 Gaussian 16, Revision A.03,
 Gaussian 16:  ES64L-G16RevA.03 25-Dec-2016

 --------------------------------
 #p wB97XD/Def2SVP td=(nstates=5)
 --------------------------------

 ----------------------------------------------------
 step_1101_chromophore_1 TDDFT with wB97XD functional
 ----------------------------------------------------
 Symbolic Z-matrix:
 Charge =  0 Multiplicity = 1

                         Standard orientation:
 ---------------------------------------------------------------------
 Center     Atomic      Atomic             Coordinates (Angstroms)
 Number     Number       Type             X           Y           Z
 ---------------------------------------------------------------------
      1         12           0        5.923759    0.429195   -0.095197
      2          6           0        3.787431   -2.278265   -0.543195
      3          6           0        3.503564    2.528665   -1.558429
      4          6           0        8.093888    3.023405    0.222552
      5          6           0        8.561850   -1.822129    0.805652
      6          7           0        3.819274    0.166854   -0.645205
      7          6           0        3.137515   -1.051119   -0.812622
      8          6           0        1.715617   -0.831176   -1.378643
      9          6           0        1.821476    0.619185   -1.994662
     10          6           0        3.162254    1.198092   -1.296804
     11          6           0        1.873484    0.776012   -3.560972
     12          6           0        0.504787   -1.134675   -0.467159
     13          6           0       -0.790222   -1.618898   -1.073622
     14          6           0       -1.889316   -2.145668   -0.126465
     15          8           0       -1.679917   -2.380089    1.081438
     16          8           0       -3.084444   -2.218656   -0.691800
     17          7           0        5.815076    2.473806   -0.639632
     18          6           0        4.739230    3.143980   -1.132834
     19          6           0        5.088992    4.506279   -1.174422
     20          6           0        6.269995    4.710529   -0.462153
     21          6           0        6.796354    3.371219   -0.257125
     22          6           0        4.144962    5.420102   -1.948810
     23          6           0        6.984550    5.984665    0.054870
     24          8           0        8.009816    6.035361    0.746538
     25          6           0        6.297102    7.291280   -0.249916
     26          7           0        7.952642    0.521735    0.451045
     27          6           0        8.633187    1.762094    0.533631
     28          6           0       10.086784    1.499066    0.902308
     29          6           0       10.160104    0.015792    1.341350
     30          6           0        8.779583   -0.468863    0.923167
     31          6           0       11.161219    1.910941   -0.167849
     32          6           0       10.498601   -0.121616    2.826475
     33          6           0        9.398077    0.481928    3.710939
     34          7           0        6.161930   -1.558358    0.088986
     35          6           0        7.335318   -2.330532    0.416886
     36          6           0        7.017773   -3.767828    0.377503
     37          6           0        5.646286   -3.774839    0.057465
     38          6           0        5.143637   -2.430574   -0.105596
     39          6           0        7.990753   -4.885265    0.710706
     40          6           0        4.615615   -4.661946   -0.089002
     41          8           0        4.590606   -5.880453    0.000471
     42          6           0        3.480541   -3.799652   -0.784018
     43          6           0        2.156655   -4.304044   -0.235432
     44          8           0        1.759713   -4.381817    0.901087
     45          8           0        1.383124   -4.619419   -1.383908
     46          6           0       -0.004059   -5.185117   -0.978943
     47          6           0       -4.241036   -2.358354    0.243617
     48          6           0       -5.401813   -1.571014   -0.357069
     49          6           0       -6.739043   -1.716028   -0.303542
     50          6           0       -7.291986   -2.896455    0.452652
     51          6           0       -7.627428   -0.736569   -1.027714
     52          6           0       -7.547833    0.728956   -0.679569
     53          6           0       -7.570216    1.038623    0.812255
     54          6           0       -8.888232    1.745558    1.298994
     55          6           0       -8.660141    3.286297    1.273098
     56          6           0       -9.305052    1.308187    2.702794
     57          6           0      -10.753889    1.806892    3.005287
     58          6           0      -11.836442    0.748890    2.898206
     59          6           0      -13.217169    1.189889    2.366650
     60          6           0      -14.364378    1.055153    3.426852
     61          6           0      -13.598042    0.391093    1.094924
     62          6           0      -13.873982    1.367617   -0.058259
     63          6           0      -14.111794    0.756040   -1.478283
     64          6           0      -12.938398    0.995166   -2.390660
     65          6           0      -13.497102    1.060137   -3.884314
     66          6           0      -11.983076   -0.203671   -2.259280
     67          1           0        2.707947    3.063275   -2.082619
     68          1           0        8.886859    3.773446    0.183521
     69          1           0        9.354392   -2.555874    0.966601
     70          1           0        1.760407   -1.506547   -2.233145
     71          1           0        0.958584    1.241054   -1.758390
     72          1           0        1.316296    1.622756   -3.961205
     73          1           0        1.312577   -0.081777   -3.933600
     74          1           0        2.914061    0.768853   -3.882522
     75          1           0        0.293175   -0.144156   -0.062249
     76          1           0        0.782695   -1.844912    0.311351
     77          1           0       -0.543105   -2.442486   -1.742998
     78          1           0       -1.233670   -0.733089   -1.529336
     79          1           0        3.742329    5.037346   -2.886507
     80          1           0        4.732642    6.232492   -2.377463
     81          1           0        3.358720    5.883704   -1.354146
     82          1           0        5.249189    7.315140    0.049788
     83          1           0        6.292831    7.398911   -1.334613
     84          1           0        6.912891    8.040390    0.247601
     85          1           0       10.223340    2.237234    1.692833
     86          1           0       10.931289   -0.379172    0.678654
     87          1           0       10.742517    2.114953   -1.153026
     88          1           0       11.914968    1.137446   -0.317408
     89          1           0       11.630082    2.864004    0.077592
     90          1           0       11.316939    0.521770    3.150654
     91          1           0       10.705792   -1.165716    3.060066
     92          1           0        8.409828    0.426575    3.255868
     93          1           0        9.561909    1.501680    4.060410
     94          1           0        9.395532   -0.233867    4.532509
     95          1           0        8.549336   -4.465138    1.546830
     96          1           0        8.654420   -5.227955   -0.083372
     97          1           0        7.434617   -5.772311    1.013738
     98          1           0        3.402148   -4.081700   -1.834631
     99          1           0        0.293694   -6.070360   -0.417109
    100          1           0       -0.465043   -5.512472   -1.910994
    101          1           0       -0.639881   -4.576613   -0.336921
    102          1           0       -4.000315   -2.015984    1.250679
    103          1           0       -4.461286   -3.421285    0.145808
    104          1           0       -4.974630   -0.677905   -0.813710
    105          1           0       -7.878278   -3.547674   -0.195944
    106          1           0       -8.016691   -2.653175    1.230045
    107          1           0       -6.586703   -3.642031    0.822180
    108          1           0       -8.659703   -1.078903   -0.956095
    109          1           0       -7.376550   -0.731462   -2.088477
    110          1           0       -8.433646    1.250427   -1.043167
    111          1           0       -6.582564    1.060668   -1.063826
    112          1           0       -6.697185    1.610481    1.128658
    113          1           0       -7.521834    0.088341    1.343658
    114          1           0       -9.684556    1.634353    0.563282
    115          1           0       -8.665720    3.549586    2.331573
    116          1           0       -9.538655    3.754475    0.828129
    117          1           0       -7.725762    3.642945    0.840872
    118          1           0       -8.666168    1.603771    3.534563
    119          1           0       -9.371243    0.220685    2.725531
    120          1           0      -11.056896    2.562267    2.279328
    121          1           0      -10.748927    2.294811    3.980053
    122          1           0      -11.949876    0.257805    3.864356
    123          1           0      -11.446444   -0.052899    2.271440
    124          1           0      -13.267560    2.248666    2.112223
    125          1           0      -14.595485   -0.008650    3.473148
    126          1           0      -15.227097    1.531325    2.961817
    127          1           0      -14.239468    1.386834    4.457905
    128          1           0      -14.557086   -0.113029    1.211754
    129          1           0      -12.912075   -0.348499    0.681951
    130          1           0      -13.273781    2.277187   -0.083897
    131          1           0      -14.826447    1.765748    0.293064
    132          1           0      -14.991835    1.304752   -1.813426
    133          1           0      -14.371079   -0.297572   -1.373856
    134          1           0      -12.299071    1.833697   -2.117774
    135          1           0      -14.562896    1.281005   -3.821703
    136          1           0      -13.354373    0.100983   -4.381681
    137          1           0      -12.964240    1.903085   -4.325302
    138          1           0      -10.956267    0.129155   -2.406369
    139          1           0      -12.308093   -1.066872   -2.839405
    140          1           0      -12.007740   -0.606639   -1.246555
 ---------------------------------------------------------------------

 SCF Done:  E(RwB97XD) =  -3007.84830171     A.U. after   20 cycles

 Excitation energies and oscillator strengths:

 Excited State   1:      Singlet-A      1.5233 eV  813.94 nm  f=0.3747  <S**2>=0.000
     245 -> 248        0.17113
     246 -> 247        0.68824
     245 <- 248        0.11903
 This state for optimization and/or second-order correction.
 Total Energy, E(TD-HF/TD-DFT) =  -3007.79232261
 Copying the excited state density for this state as the 1-particle RhoCI density.

 Excited State   2:      Singlet-A      2.1329 eV  581.29 nm  f=0.1127  <S**2>=0.000
     245 -> 247        0.63983
     246 -> 248       -0.28767

 Excited State   3:      Singlet-A      3.2821 eV  377.76 nm  f=0.0031  <S**2>=0.000
     243 -> 247       -0.15886
     244 -> 247        0.66441

 Excited State   4:      Singlet-A      3.3316 eV  372.15 nm  f=0.0097  <S**2>=0.000
     240 -> 247       -0.11195
     241 -> 247        0.26498
     241 -> 249        0.19478
     241 -> 250       -0.10747
     243 -> 247        0.51755
     243 -> 249        0.16718
     243 -> 250       -0.10278
     244 -> 249        0.12057

 Excited State   5:      Singlet-A      3.4244 eV  362.07 nm  f=0.1320  <S**2>=0.000
     240 -> 247        0.17185
     241 -> 247       -0.40670
     243 -> 247        0.29652
     244 -> 247        0.10048
     245 -> 247        0.11837
     246 -> 248        0.41553

 The electronic state is 1-A.
 Alpha  occ. eigenvalues --  -46.93974 -19.31139 -19.29225 -19.24646 -19.24318
 Alpha  occ. eigenvalues --  -19.23970 -19.23333 -14.47211 -14.47100 -14.44321
 Alpha  occ. eigenvalues --  -14.44152 -10.43272 -10.42142 -10.39513 -10.37511
 Alpha  occ. eigenvalues --  -10.36872 -10.36725 -10.35636 -10.35070 -10.35004
 Alpha  occ. eigenvalues --  -10.34818 -10.34283 -10.34212 -10.33922 -10.33624
 Alpha  occ. eigenvalues --  -10.33091 -10.33074 -10.32572 -10.32520 -10.32177
 Alpha  occ. eigenvalues --  -10.31917 -10.31850 -10.31578 -10.31559 -10.31370
 Alpha  occ. eigenvalues --  -10.31352 -10.31237 -10.31129 -10.31037 -10.30742
 Alpha  occ. eigenvalues --  -10.30676 -10.30413 -10.30374 -10.30374 -10.30116
 Alpha  occ. eigenvalues --  -10.30047 -10.29968 -10.29904 -10.29858 -10.29826
 Alpha  occ. eigenvalues --  -10.29722 -10.29557 -10.29295 -10.28910 -10.28849
 Alpha  occ. eigenvalues --  -10.28775 -10.28706 -10.28652 -10.28503 -10.28499
 Alpha  occ. eigenvalues --  -10.28485 -10.28441 -10.28401 -10.28341 -10.28322
 Alpha  occ. eigenvalues --  -10.28144  -3.20060  -1.93667  -1.93178  -1.93053
 Alpha  occ. eigenvalues --   -1.19597  -1.16272  -1.11623  -1.11418  -1.08731
 Alpha  occ. eigenvalues --   -1.08376  -1.05585  -1.04890  -1.04237  -1.03290
 Alpha  occ. eigenvalues --   -0.93852  -0.93115  -0.91982  -0.91252  -0.91075
 Alpha  occ. eigenvalues --   -0.90910  -0.90370  -0.89582  -0.89196  -0.89070
 Alpha  occ. eigenvalues --   -0.88489  -0.87662  -0.86670  -0.85433  -0.85300
 Alpha  occ. eigenvalues --   -0.84569  -0.83770  -0.83373  -0.82841  -0.81989
 Alpha  occ. eigenvalues --   -0.81945  -0.80603  -0.79968  -0.79050  -0.78130
 Alpha  occ. eigenvalues --   -0.77507  -0.77468  -0.76877  -0.76598  -0.76182
 Alpha  occ. eigenvalues --   -0.75749  -0.75076  -0.73493  -0.72262  -0.71440
 Alpha  occ. eigenvalues --   -0.70793  -0.70602  -0.68768  -0.68249  -0.67263
 Alpha  occ. eigenvalues --   -0.66893  -0.66723  -0.66480  -0.66262  -0.65764
 Alpha  occ. eigenvalues --   -0.65364  -0.65052  -0.64994  -0.62669  -0.62180
 Alpha  occ. eigenvalues --   -0.61813  -0.61475  -0.60607  -0.60386  -0.59616
 Alpha  occ. eigenvalues --   -0.59344  -0.58410  -0.58285  -0.57968  -0.57407
 Alpha  occ. eigenvalues --   -0.57295  -0.57152  -0.56698  -0.56333  -0.56043
 Alpha  occ. eigenvalues --   -0.55599  -0.55489  -0.55203  -0.54861  -0.54687
 Alpha  occ. eigenvalues --   -0.54622  -0.54511  -0.54197  -0.54132  -0.53838
 Alpha  occ. eigenvalues --   -0.53631  -0.53413  -0.53224  -0.53186  -0.52721
 Alpha  occ. eigenvalues --   -0.52288  -0.51997  -0.51771  -0.51589  -0.51350
 Alpha  occ. eigenvalues --   -0.51151  -0.50904  -0.50790  -0.50736  -0.50615
 Alpha  occ. eigenvalues --   -0.50445  -0.50213  -0.50145  -0.49891  -0.49856
 Alpha  occ. eigenvalues --   -0.49486  -0.49436  -0.48737  -0.48713  -0.48617
 Alpha  occ. eigenvalues --   -0.48470  -0.48444  -0.48231  -0.48071  -0.47967
 Alpha  occ. eigenvalues --   -0.47716  -0.47435  -0.47273  -0.46965  -0.46703
 Alpha  occ. eigenvalues --   -0.46461  -0.46317  -0.46128  -0.45897  -0.45783
 Alpha  occ. eigenvalues --   -0.45639  -0.45398  -0.44959  -0.44829  -0.44810
 Alpha  occ. eigenvalues --   -0.44767  -0.44689  -0.44287  -0.43968  -0.43850
 Alpha  occ. eigenvalues --   -0.43509  -0.43368  -0.43072  -0.43053  -0.42835
 Alpha  occ. eigenvalues --   -0.42526  -0.42395  -0.42388  -0.42117  -0.42098
 Alpha  occ. eigenvalues --   -0.41846  -0.41820  -0.41450  -0.41143  -0.40866
 Alpha  occ. eigenvalues --   -0.40499  -0.40442  -0.40284  -0.39877  -0.39527
 Alpha  occ. eigenvalues --   -0.39169  -0.38852  -0.38733  -0.38229  -0.38143
 Alpha  occ. eigenvalues --   -0.37998  -0.37031  -0.36788  -0.36322  -0.36286
 Alpha  occ. eigenvalues --   -0.36044  -0.35429  -0.35065  -0.33927  -0.33056
 Alpha  occ. eigenvalues --   -0.32596  -0.32296  -0.32240  -0.32072  -0.26506
 Alpha  occ. eigenvalues --   -0.23050
 Alpha virt. eigenvalues --   -0.07764   0.00017   0.02233   0.04246   0.06613
 Alpha virt. eigenvalues --    0.06928   0.07570   0.07910   0.08239   0.08969
 Alpha virt. eigenvalues --    0.10016   0.10361   0.11538   0.11644   0.11903

 Mulliken charges:
               1
     1  Mg   0.972044
     2  C    0.046925
     3  C   -0.074250
     4  C   -0.042493
     5  C   -0.114858
     6  N   -0.389842
     7  C   -0.008901
     8  C    0.004892
     9  C   -0.180044
    10  C    0.095604
    11  C    0.010940
    12  C    0.033907
    13  C   -0.012921
    14  C    0.210130
    15  O   -0.296506
    16  O   -0.345281
    17  N   -0.449369
    18  C    0.173314
    19  C   -0.168432
    20  C   -0.086681
    21  C    0.139359
    22  C    0.051816
    23  C    0.071743
    24  O   -0.242545
    25  C   -0.022615
    26  N   -0.392604
    27  C    0.049755
    28  C   -0.114716
    29  C   -0.043082
    30  C    0.096844
    31  C    0.012826
    32  C    0.010090
    33  C   -0.090515
    34  N   -0.498281
    35  C    0.150063
    36  C   -0.144030
    37  C   -0.019675
    38  C    0.137020
    39  C    0.068741
    40  C    0.124907
    41  O   -0.217904
    42  C   -0.143207
    43  C    0.256035
    44  O   -0.216241
    45  O   -0.423544
    46  C    0.115749
    47  C    0.258216
    48  C   -0.176294
    49  C   -0.177831
    50  C    0.024904
    51  C    0.070974
    52  C   -0.019032
    53  C    0.024140
    54  C   -0.225807
    55  C    0.004255
    56  C    0.015052
    57  C   -0.035736
    58  C    0.054235
    59  C   -0.174169
    60  C   -0.014746
    61  C    0.024434
    62  C   -0.097448
    63  C    0.030637
    64  C   -0.221150
    65  C    0.016381
    66  C   -0.006631
    67  H    0.007449
    68  H    0.028160
    69  H    0.015154
    70  H    0.025962
    71  H    0.027303
    72  H    0.038405
    73  H    0.033430
    74  H    0.053684
    75  H    0.028281
    76  H    0.071092
    77  H    0.060850
    78  H    0.050295
    79  H    0.045051
    80  H    0.018916
    81  H    0.056478
    82  H    0.058454
    83  H    0.052368
    84  H    0.058869
    85  H    0.040989
    86  H    0.027706
    87  H    0.037096
    88  H    0.036226
    89  H    0.040430
    90  H    0.037196
    91  H    0.034169
    92  H    0.047953
    93  H    0.053215
    94  H    0.038127
    95  H    0.045110
    96  H    0.063157
    97  H    0.063944
    98  H    0.082379
    99  H    0.064191
   100  H    0.058231
   101  H    0.075422
   102  H    0.090479
   103  H    0.050918
   104  H    0.017640
   105  H    0.029741
   106  H    0.042393
   107  H    0.028426
   108  H    0.012340
   109  H    0.042072
   110  H    0.026710
   111  H    0.023776
   112  H    0.017422
   113  H    0.008392
   114  H    0.015116
   115  H    0.020088
   116  H    0.030400
   117  H    0.036242
   118  H    0.028164
   119  H    0.013609
   120  H    0.004582
   121  H    0.020289
   122  H    0.010783
   123  H    0.002331
   124  H    0.029314
   125  H    0.022037
   126  H    0.023805
   127  H    0.040510
   128  H    0.013360
   129  H    0.012668
   130  H    0.015308
   131  H    0.005482
   132  H    0.016221
   133  H    0.018056
   134  H    0.026197
   135  H    0.025738
   136  H    0.033549
   137  H    0.036678
   138  H    0.035245
   139  H    0.026550
   140  H    0.003072
 Sum of Mulliken charges =  -0.00000

 Dipole moment (field-independent basis, Debye):
    X=             -2.6756    Y=              3.4663    Z=             -3.7745  Tot=              5.7811
 Quadrupole moment (field-independent basis, Debye-Ang):
   XX=           -341.5506   YY=           -424.7441   ZZ=           -404.1682
   XY=             -0.2734   XZ=             -2.5100   YZ=             -3.2737

 Normal termination of Gaussian 16 at Tue May  3 23:03:42 2022.
