 Gaussian 16, Revision A.03,
 Gaussian 16:  ES64L-G16RevA.03 25-Dec-2016

 --------------------
 #p ZINDO=(nstates=5)
 --------------------

 -----------------------------
 step_1101_chromophore_1 ZINDO
 -----------------------------
 Symbolic Z-matrix:
 Charge =  0 Multiplicity = 1

                         Standard orientation:
 ---------------------------------------------------------------------
 Center     Atomic      Atomic             Coordinates (Angstroms)
 Number     Number       Type             X           Y           Z
 ---------------------------------------------------------------------
      1         12           0        5.923759    0.429195   -0.095197
      2          6           0        3.787431   -2.278265   -0.543195
      3          6           0        3.503564    2.528665   -1.558429
      4          6           0        8.093888    3.023405    0.222552
      5          6           0        8.561850   -1.822129    0.805652
      6          7           0        3.819274    0.166854   -0.645205
      7          6           0        3.137515   -1.051119   -0.812622
      8          6           0        1.715617   -0.831176   -1.378643
      9          6           0        1.821476    0.619185   -1.994662
     10          6           0        3.162254    1.198092   -1.296804
     11          6           0        1.873484    0.776012   -3.560972
     12          6           0        0.504787   -1.134675   -0.467159
     13          6           0       -0.790222   -1.618898   -1.073622
     14          6           0       -1.889316   -2.145668   -0.126465
     15          8           0       -1.679917   -2.380089    1.081438
     16          8           0       -3.084444   -2.218656   -0.691800
     17          7           0        5.815076    2.473806   -0.639632
     18          6           0        4.739230    3.143980   -1.132834
     19          6           0        5.088992    4.506279   -1.174422
     20          6           0        6.269995    4.710529   -0.462153
     21          6           0        6.796354    3.371219   -0.257125
     22          6           0        4.144962    5.420102   -1.948810
     23          6           0        6.984550    5.984665    0.054870
     24          8           0        8.009816    6.035361    0.746538
     25          6           0        6.297102    7.291280   -0.249916
     26          7           0        7.952642    0.521735    0.451045
     27          6           0        8.633187    1.762094    0.533631
     28          6           0       10.086784    1.499066    0.902308
     29          6           0       10.160104    0.015792    1.341350
     30          6           0        8.779583   -0.468863    0.923167
     31          6           0       11.161219    1.910941   -0.167849
     32          6           0       10.498601   -0.121616    2.826475
     33          6           0        9.398077    0.481928    3.710939
     34          7           0        6.161930   -1.558358    0.088986
     35          6           0        7.335318   -2.330532    0.416886
     36          6           0        7.017773   -3.767828    0.377503
     37          6           0        5.646286   -3.774839    0.057465
     38          6           0        5.143637   -2.430574   -0.105596
     39          6           0        7.990753   -4.885265    0.710706
     40          6           0        4.615615   -4.661946   -0.089002
     41          8           0        4.590606   -5.880453    0.000471
     42          6           0        3.480541   -3.799652   -0.784018
     43          6           0        2.156655   -4.304044   -0.235432
     44          8           0        1.759713   -4.381817    0.901087
     45          8           0        1.383124   -4.619419   -1.383908
     46          6           0       -0.004059   -5.185117   -0.978943
     47          6           0       -4.241036   -2.358354    0.243617
     48          6           0       -5.401813   -1.571014   -0.357069
     49          6           0       -6.739043   -1.716028   -0.303542
     50          6           0       -7.291986   -2.896455    0.452652
     51          6           0       -7.627428   -0.736569   -1.027714
     52          6           0       -7.547833    0.728956   -0.679569
     53          6           0       -7.570216    1.038623    0.812255
     54          6           0       -8.888232    1.745558    1.298994
     55          6           0       -8.660141    3.286297    1.273098
     56          6           0       -9.305052    1.308187    2.702794
     57          6           0      -10.753889    1.806892    3.005287
     58          6           0      -11.836442    0.748890    2.898206
     59          6           0      -13.217169    1.189889    2.366650
     60          6           0      -14.364378    1.055153    3.426852
     61          6           0      -13.598042    0.391093    1.094924
     62          6           0      -13.873982    1.367617   -0.058259
     63          6           0      -14.111794    0.756040   -1.478283
     64          6           0      -12.938398    0.995166   -2.390660
     65          6           0      -13.497102    1.060137   -3.884314
     66          6           0      -11.983076   -0.203671   -2.259280
     67          1           0        2.707947    3.063275   -2.082619
     68          1           0        8.886859    3.773446    0.183521
     69          1           0        9.354392   -2.555874    0.966601
     70          1           0        1.760407   -1.506547   -2.233145
     71          1           0        0.958584    1.241054   -1.758390
     72          1           0        1.316296    1.622756   -3.961205
     73          1           0        1.312577   -0.081777   -3.933600
     74          1           0        2.914061    0.768853   -3.882522
     75          1           0        0.293175   -0.144156   -0.062249
     76          1           0        0.782695   -1.844912    0.311351
     77          1           0       -0.543105   -2.442486   -1.742998
     78          1           0       -1.233670   -0.733089   -1.529336
     79          1           0        3.742329    5.037346   -2.886507
     80          1           0        4.732642    6.232492   -2.377463
     81          1           0        3.358720    5.883704   -1.354146
     82          1           0        5.249189    7.315140    0.049788
     83          1           0        6.292831    7.398911   -1.334613
     84          1           0        6.912891    8.040390    0.247601
     85          1           0       10.223340    2.237234    1.692833
     86          1           0       10.931289   -0.379172    0.678654
     87          1           0       10.742517    2.114953   -1.153026
     88          1           0       11.914968    1.137446   -0.317408
     89          1           0       11.630082    2.864004    0.077592
     90          1           0       11.316939    0.521770    3.150654
     91          1           0       10.705792   -1.165716    3.060066
     92          1           0        8.409828    0.426575    3.255868
     93          1           0        9.561909    1.501680    4.060410
     94          1           0        9.395532   -0.233867    4.532509
     95          1           0        8.549336   -4.465138    1.546830
     96          1           0        8.654420   -5.227955   -0.083372
     97          1           0        7.434617   -5.772311    1.013738
     98          1           0        3.402148   -4.081700   -1.834631
     99          1           0        0.293694   -6.070360   -0.417109
    100          1           0       -0.465043   -5.512472   -1.910994
    101          1           0       -0.639881   -4.576613   -0.336921
    102          1           0       -4.000315   -2.015984    1.250679
    103          1           0       -4.461286   -3.421285    0.145808
    104          1           0       -4.974630   -0.677905   -0.813710
    105          1           0       -7.878278   -3.547674   -0.195944
    106          1           0       -8.016691   -2.653175    1.230045
    107          1           0       -6.586703   -3.642031    0.822180
    108          1           0       -8.659703   -1.078903   -0.956095
    109          1           0       -7.376550   -0.731462   -2.088477
    110          1           0       -8.433646    1.250427   -1.043167
    111          1           0       -6.582564    1.060668   -1.063826
    112          1           0       -6.697185    1.610481    1.128658
    113          1           0       -7.521834    0.088341    1.343658
    114          1           0       -9.684556    1.634353    0.563282
    115          1           0       -8.665720    3.549586    2.331573
    116          1           0       -9.538655    3.754475    0.828129
    117          1           0       -7.725762    3.642945    0.840872
    118          1           0       -8.666168    1.603771    3.534563
    119          1           0       -9.371243    0.220685    2.725531
    120          1           0      -11.056896    2.562267    2.279328
    121          1           0      -10.748927    2.294811    3.980053
    122          1           0      -11.949876    0.257805    3.864356
    123          1           0      -11.446444   -0.052899    2.271440
    124          1           0      -13.267560    2.248666    2.112223
    125          1           0      -14.595485   -0.008650    3.473148
    126          1           0      -15.227097    1.531325    2.961817
    127          1           0      -14.239468    1.386834    4.457905
    128          1           0      -14.557086   -0.113029    1.211754
    129          1           0      -12.912075   -0.348499    0.681951
    130          1           0      -13.273781    2.277187   -0.083897
    131          1           0      -14.826447    1.765748    0.293064
    132          1           0      -14.991835    1.304752   -1.813426
    133          1           0      -14.371079   -0.297572   -1.373856
    134          1           0      -12.299071    1.833697   -2.117774
    135          1           0      -14.562896    1.281005   -3.821703
    136          1           0      -13.354373    0.100983   -4.381681
    137          1           0      -12.964240    1.903085   -4.325302
    138          1           0      -10.956267    0.129155   -2.406369
    139          1           0      -12.308093   -1.066872   -2.839405
    140          1           0      -12.007740   -0.606639   -1.246555
 ---------------------------------------------------------------------

 SCF Done:  E(RZINDO/S) =  -474.055517454     A.U. after   20 cycles

 Excitation energies and oscillator strengths:

 Excited State   1:      Singlet-A      1.1803 eV 1050.43 nm  f=0.6227  <S**2>=0.000
     175 ->178        -0.17871
     176 ->177         0.66609
 This state for optimization and/or second-order correction.
 Total Energy, E(CIS/TDA) =  -474.012141520
 Copying the excited state density for this state as the 1-particle RhoCI density.

 Excited State   2:      Singlet-A      1.9449 eV  637.49 nm  f=0.0365  <S**2>=0.000
     175 ->177         0.54195
     176 ->178         0.42870

 Excited State   3:      Singlet-A      2.7940 eV  443.74 nm  f=0.0119  <S**2>=0.000
     169 ->177         0.10175
     169 ->179        -0.10103
     170 ->177         0.32668
     170 ->178        -0.11432
     170 ->179        -0.36099
     170 ->180         0.20463
     170 ->186        -0.15704
     171 ->177         0.19003
     171 ->179        -0.15083

 Excited State   4:      Singlet-A      2.9672 eV  417.85 nm  f=0.5629  <S**2>=0.000
     171 ->177        -0.10361
     175 ->177        -0.29969
     176 ->178         0.43963
     176 ->179         0.40468

 Excited State   5:      Singlet-A      3.0373 eV  408.21 nm  f=0.3720  <S**2>=0.000
     168 ->177         0.14165
     168 ->179         0.13803
     168 ->180         0.19178
     175 ->177         0.21608
     176 ->178        -0.23783
     176 ->179         0.47418
     176 ->180         0.15440

 The electronic state is 1-A.
 Alpha  occ. eigenvalues --   -1.82496  -1.80637  -1.78399  -1.73831  -1.69580
 Alpha  occ. eigenvalues --   -1.68767  -1.66560  -1.62575  -1.57719  -1.57304
 Alpha  occ. eigenvalues --   -1.56597  -1.51772  -1.49462  -1.46865  -1.45805
 Alpha  occ. eigenvalues --   -1.43908  -1.41826  -1.39524  -1.39367  -1.37873
 Alpha  occ. eigenvalues --   -1.35865  -1.34161  -1.33244  -1.31349  -1.29129
 Alpha  occ. eigenvalues --   -1.27305  -1.24414  -1.22320  -1.20693  -1.18461
 Alpha  occ. eigenvalues --   -1.17306  -1.16252  -1.15103  -1.14496  -1.12705
 Alpha  occ. eigenvalues --   -1.12110  -1.10524  -1.10451  -1.05332  -1.03873
 Alpha  occ. eigenvalues --   -1.03052  -1.01230  -0.99349  -0.97969  -0.96945
 Alpha  occ. eigenvalues --   -0.96019  -0.94705  -0.93900  -0.92371  -0.90570
 Alpha  occ. eigenvalues --   -0.90324  -0.89934  -0.88925  -0.87554  -0.87005
 Alpha  occ. eigenvalues --   -0.84889  -0.82829  -0.82699  -0.81673  -0.79759
 Alpha  occ. eigenvalues --   -0.78964  -0.78576  -0.77446  -0.76968  -0.76606
 Alpha  occ. eigenvalues --   -0.76072  -0.75075  -0.74852  -0.74416  -0.74112
 Alpha  occ. eigenvalues --   -0.73518  -0.72582  -0.72200  -0.71875  -0.71410
 Alpha  occ. eigenvalues --   -0.70829  -0.70044  -0.69539  -0.69385  -0.68666
 Alpha  occ. eigenvalues --   -0.68391  -0.66776  -0.66103  -0.65826  -0.65527
 Alpha  occ. eigenvalues --   -0.65058  -0.64186  -0.63913  -0.63343  -0.62985
 Alpha  occ. eigenvalues --   -0.62701  -0.62403  -0.62078  -0.61621  -0.61367
 Alpha  occ. eigenvalues --   -0.61257  -0.60833  -0.60410  -0.59930  -0.59820
 Alpha  occ. eigenvalues --   -0.59743  -0.59418  -0.58983  -0.58757  -0.58075
 Alpha  occ. eigenvalues --   -0.57946  -0.57690  -0.57489  -0.56965  -0.56800
 Alpha  occ. eigenvalues --   -0.56247  -0.55774  -0.55520  -0.54489  -0.54438
 Alpha  occ. eigenvalues --   -0.53940  -0.53317  -0.53069  -0.52550  -0.52518
 Alpha  occ. eigenvalues --   -0.52250  -0.52026  -0.51867  -0.51735  -0.51494
 Alpha  occ. eigenvalues --   -0.51425  -0.51084  -0.50815  -0.50217  -0.49913
 Alpha  occ. eigenvalues --   -0.49504  -0.49287  -0.49265  -0.48900  -0.48788
 Alpha  occ. eigenvalues --   -0.48719  -0.48590  -0.48386  -0.47889  -0.47678
 Alpha  occ. eigenvalues --   -0.47572  -0.47237  -0.47080  -0.46702  -0.46353
 Alpha  occ. eigenvalues --   -0.46188  -0.46152  -0.45793  -0.45579  -0.45145
 Alpha  occ. eigenvalues --   -0.45121  -0.44894  -0.44774  -0.44111  -0.43955
 Alpha  occ. eigenvalues --   -0.43295  -0.43023  -0.42954  -0.42194  -0.41965
 Alpha  occ. eigenvalues --   -0.41642  -0.41240  -0.41193  -0.39099  -0.38137
 Alpha  occ. eigenvalues --   -0.37821  -0.37237  -0.35411  -0.34809  -0.34801
 Alpha  occ. eigenvalues --   -0.33282  -0.32739  -0.32589  -0.32393  -0.27228
 Alpha  occ. eigenvalues --   -0.21779
 Alpha virt. eigenvalues --   -0.08985  -0.02146  -0.00630   0.01241   0.02135
 Alpha virt. eigenvalues --    0.02521   0.03010   0.03535   0.04620   0.04650
 Alpha virt. eigenvalues --    0.05758   0.06371   0.07158   0.07664   0.08053

 Mulliken charges:
               1
     1  Mg   0.421060
     2  C   -0.063336
     3  C   -0.085417
     4  C   -0.047885
     5  C   -0.049348
     6  N   -0.297905
     7  C    0.159119
     8  C    0.011520
     9  C   -0.015497
    10  C    0.114889
    11  C   -0.053680
    12  C   -0.014341
    13  C    0.009116
    14  C    0.465231
    15  O   -0.537716
    16  O   -0.262019
    17  N   -0.319735
    18  C    0.106357
    19  C    0.004275
    20  C   -0.040058
    21  C    0.118030
    22  C   -0.051758
    23  C    0.326432
    24  O   -0.522649
    25  C   -0.034234
    26  N   -0.273080
    27  C    0.107228
    28  C    0.000715
    29  C    0.004247
    30  C    0.146235
    31  C   -0.054249
    32  C   -0.024398
    33  C   -0.058905
    34  N   -0.330743
    35  C    0.088421
    36  C    0.047625
    37  C   -0.041472
    38  C    0.141820
    39  C   -0.033365
    40  C    0.332125
    41  O   -0.521888
    42  C    0.050254
    43  C    0.472480
    44  O   -0.488809
    45  O   -0.301838
    46  C    0.060695
    47  C    0.106120
    48  C   -0.091105
    49  C    0.005709
    50  C   -0.044640
    51  C   -0.008231
    52  C   -0.028290
    53  C   -0.041170
    54  C   -0.013183
    55  C   -0.066113
    56  C   -0.028971
    57  C   -0.039623
    58  C   -0.030130
    59  C   -0.005673
    60  C   -0.063176
    61  C   -0.032847
    62  C   -0.054529
    63  C   -0.027936
    64  C   -0.015446
    65  C   -0.066020
    66  C   -0.062510
    67  H    0.036008
    68  H    0.046345
    69  H    0.039088
    70  H    0.021581
    71  H    0.024405
    72  H    0.025038
    73  H    0.012183
    74  H    0.030525
    75  H    0.023221
    76  H    0.047192
    77  H    0.047691
    78  H    0.036497
    79  H    0.027132
    80  H    0.008202
    81  H    0.032603
    82  H    0.037981
    83  H    0.035879
    84  H    0.040581
    85  H    0.029721
    86  H    0.028066
    87  H    0.019323
    88  H    0.020614
    89  H    0.022052
    90  H    0.022603
    91  H    0.021846
    92  H    0.024723
    93  H    0.030372
    94  H    0.012461
    95  H    0.030375
    96  H    0.041237
    97  H    0.037510
    98  H    0.060206
    99  H    0.044405
   100  H    0.030937
   101  H    0.063968
   102  H    0.072878
   103  H    0.045458
   104  H    0.018621
   105  H    0.015885
   106  H    0.029976
   107  H    0.026046
   108  H    0.014660
   109  H    0.018739
   110  H    0.025532
   111  H    0.022605
   112  H    0.021089
   113  H    0.011861
   114  H    0.026768
   115  H    0.014634
   116  H    0.016273
   117  H    0.024946
   118  H    0.027625
   119  H    0.010310
   120  H    0.016352
   121  H    0.015744
   122  H    0.013638
   123  H    0.015030
   124  H    0.024269
   125  H    0.011575
   126  H    0.013744
   127  H    0.026566
   128  H    0.017363
   129  H    0.024557
   130  H    0.023679
   131  H    0.000063
   132  H    0.011113
   133  H    0.025998
   134  H    0.030865
   135  H    0.021163
   136  H    0.028764
   137  H    0.020090
   138  H    0.016371
   139  H    0.022886
   140  H    0.007906
 Sum of Mulliken charges =  -0.00000

 Dipole moment (field-independent basis, Debye):
    X=             -2.4873    Y=              3.6656    Z=             -6.6799  Tot=              8.0153
 N-N= 4.275236212404D+03 E-N= 0.000000000000D+00  KE=-9.224776005765D+03
 Leave Link  601 at Tue May  3 23:18:35 2022, MaxMem=  6710886400 cpu:               1.1 elap:               0.1
 (Enter /sw/apps/gaussian-16.0/g16/l9999.exe)
 1\1\GINC-BP1-COMPUTE128\SP\RZINDO CIS\STO-3G\C55H74Mg1N4O6\OF15641\03-
 May-2022\0\\#p ZINDO=(nstates=5)\\step_1101_chromophore_1 ZINDO\\0,1\M
 g,0,-1.717,17.622,26.947\C,0,-1.911,15.396,29.612\C,0,-2.736,20.22,29.
 096\C,0,-1.66,19.738,24.29\C,0,-1.291,14.866,24.697\N,0,-1.948,17.793,
 29.119\C,0,-2.044,16.737,30.042\C,0,-2.381,17.253,31.46\C,0,-2.965,18.
 69,31.163\C,0,-2.463,18.965,29.649\C,0,-4.516,18.923,31.307\C,0,-1.305
 ,17.132,32.563\C,0,-1.721,16.936,34.001\C,0,-0.633,16.573,35.034\O,0,0

 Normal termination of Gaussian 16 at Tue May  3 23:18:35 2022.
