 Gaussian 16, Revision A.03,
 Gaussian 16:  ES64L-G16RevA.03 25-Dec-2016

 ------------------------------
 #p blyp/Def2SVP td=(nstates=5)
 ------------------------------

 --------------------------------------------------
 step_1001_chromophore_4 TDDFT with blyp functional
 --------------------------------------------------
 Symbolic Z-matrix:
 Charge =  0 Multiplicity = 1

                         Standard orientation:
 ---------------------------------------------------------------------
 Center     Atomic      Atomic             Coordinates (Angstroms)
 Number     Number       Type             X           Y           Z
 ---------------------------------------------------------------------
      1         12           0        5.933020    0.480746    0.180958
      2          6           0        3.649382   -2.188762   -0.013690
      3          6           0        3.354744    2.668043   -0.679410
      4          6           0        8.201120    2.995834    0.086887
      5          6           0        8.439912   -1.785634    0.436327
      6          7           0        3.824046    0.235363   -0.263815
      7          6           0        2.988100   -0.921332   -0.250478
      8          6           0        1.559803   -0.573263   -0.678577
      9          6           0        1.599659    0.961072   -0.847661
     10          6           0        3.052888    1.325503   -0.617618
     11          6           0        1.110092    1.415677   -2.271675
     12          6           0        0.422379   -1.080856    0.251447
     13          6           0       -0.880403   -0.301184    0.418997
     14          6           0       -2.104206   -1.119336    0.268243
     15          8           0       -2.571114   -1.331490   -0.795484
     16          8           0       -2.434460   -1.819186    1.457626
     17          7           0        5.794860    2.478769   -0.226758
     18          6           0        4.606402    3.220504   -0.497395
     19          6           0        4.964257    4.634135   -0.434900
     20          6           0        6.349333    4.735058   -0.310666
     21          6           0        6.860354    3.387524   -0.111090
     22          6           0        3.968271    5.808627   -0.640300
     23          6           0        7.186046    5.999151   -0.195710
     24          8           0        8.408429    5.871216    0.056680
     25          6           0        6.573853    7.404049   -0.291144
     26          7           0        8.063696    0.596586    0.166673
     27          6           0        8.726851    1.711307    0.105190
     28          6           0       10.275255    1.376760    0.170532
     29          6           0       10.343128   -0.113414    0.409461
     30          6           0        8.904600   -0.451429    0.436780
     31          6           0       11.051751    1.876667   -1.087307
     32          6           0       11.060169   -0.493936    1.792112
     33          6           0       12.510343   -1.047646    1.501649
     34          7           0        6.077907   -1.486115    0.318839
     35          6           0        7.166042   -2.277841    0.407952
     36          6           0        6.721318   -3.674922    0.503510
     37          6           0        5.328609   -3.635068    0.354829
     38          6           0        5.022120   -2.323027    0.220060
     39          6           0        7.638964   -4.833721    0.489535
     40          6           0        4.185237   -4.491549    0.226336
     41          8           0        4.077238   -5.667084    0.220380
     42          6           0        3.033244   -3.544705    0.046068
     43          6           0        2.239630   -3.964730   -1.061494
     44          8           0        2.587843   -4.099213   -2.228944
     45          8           0        1.003469   -4.364750   -0.596877
     46          6           0        0.074139   -4.981762   -1.551095
     47          6           0       -3.465161   -2.821034    1.281466
     48          6           0       -4.849310   -2.134926    1.204340
     49          6           0       -6.009649   -2.784666    0.924414
     50          6           0       -6.102383   -4.314524    0.613624
     51          6           0       -7.385210   -2.085888    0.841394
     52          6           0       -7.736843   -1.582643   -0.488145
     53          6           0       -7.730352    0.015708   -0.496484
     54          6           0       -9.176023    0.534208   -0.699798
     55          6           0       -9.733105    0.475417   -2.090549
     56          6           0       -9.209145    2.038391   -0.206318
     57          6           0       -9.677335    2.198250    1.305893
     58          6           0      -10.990908    3.025371    1.524415
     59          6           0      -12.166343    2.219335    2.218381
     60          6           0      -12.604721    2.784693    3.532292
     61          6           0      -13.351325    1.883964    1.222151
     62          6           0      -13.101000    0.628836    0.347727
     63          6           0      -13.789600    0.861140   -0.981900
     64          6           0      -15.257690    0.346919   -0.984818
     65          6           0      -15.587065   -0.534972   -2.260199
     66          6           0      -16.145606    1.595128   -0.978132
     67          1           0        2.501642    3.275349   -0.986840
     68          1           0        9.080352    3.642311    0.114934
     69          1           0        9.251439   -2.509980    0.346104
     70          1           0        1.427840   -0.967354   -1.686188
     71          1           0        1.067166    1.517731   -0.076576
     72          1           0        1.888728    1.308858   -3.027165
     73          1           0        0.846018    2.473020   -2.268076
     74          1           0        0.277289    0.798513   -2.605769
     75          1           0        0.865193   -1.553840    1.127228
     76          1           0        0.150547   -1.934386   -0.369470
     77          1           0       -0.979813    0.421805   -0.391878
     78          1           0       -0.833013    0.136347    1.416253
     79          1           0        4.260731    6.413297   -1.498574
     80          1           0        3.895154    6.515461    0.186240
     81          1           0        2.976298    5.421335   -0.874436
     82          1           0        5.907102    7.517038    0.564630
     83          1           0        6.161220    7.557233   -1.288446
     84          1           0        7.321429    8.163902   -0.065171
     85          1           0       10.620173    1.894419    1.064707
     86          1           0       10.733369   -0.630185   -0.466540
     87          1           0       11.872364    1.169173   -1.199495
     88          1           0       11.337990    2.903200   -0.855002
     89          1           0       10.404961    1.930931   -1.963174
     90          1           0       10.446758   -1.228275    2.314084
     91          1           0       11.039731    0.354552    2.475459
     92          1           0       12.621148   -1.234185    0.433882
     93          1           0       12.744700   -1.954734    2.058829
     94          1           0       13.230593   -0.317728    1.870319
     95          1           0        8.673782   -4.717472    0.168072
     96          1           0        7.364970   -5.549206   -0.285554
     97          1           0        7.694171   -5.289224    1.478568
     98          1           0        2.413756   -3.685116    0.931303
     99          1           0        0.521091   -5.396685   -2.455201
    100          1           0       -0.784042   -4.351031   -1.781646
    101          1           0       -0.374228   -5.861317   -1.087695
    102          1           0       -3.313902   -3.307739    2.244820
    103          1           0       -3.293034   -3.590052    0.529673
    104          1           0       -4.779656   -1.063691    1.394772
    105          1           0       -6.901431   -4.458885   -0.113447
    106          1           0       -6.363277   -4.766607    1.570845
    107          1           0       -5.138089   -4.660209    0.242649
    108          1           0       -7.331963   -1.299427    1.594139
    109          1           0       -8.086003   -2.868823    1.129215
    110          1           0       -8.801194   -1.790573   -0.599675
    111          1           0       -7.173790   -2.061725   -1.288366
    112          1           0       -7.153519    0.251299   -1.390125
    113          1           0       -7.295069    0.433473    0.411700
    114          1           0       -9.717124   -0.121148   -0.018744
    115          1           0       -9.410545    1.279829   -2.752022
    116          1           0      -10.796631    0.624050   -1.905124
    117          1           0       -9.398265   -0.477090   -2.500500
    118          1           0       -9.747306    2.682314   -0.901290
    119          1           0       -8.160381    2.334865   -0.230029
    120          1           0       -8.866327    2.703448    1.830573
    121          1           0       -9.772729    1.191349    1.712489
    122          1           0      -11.266017    3.438089    0.553766
    123          1           0      -10.782654    3.888670    2.156483
    124          1           0      -11.766619    1.224055    2.412991
    125          1           0      -12.924462    1.969272    4.180656
    126          1           0      -13.415637    3.494731    3.362931
    127          1           0      -11.851012    3.315714    4.113814
    128          1           0      -13.611220    2.780495    0.659191
    129          1           0      -14.217815    1.646532    1.839748
    130          1           0      -13.580127   -0.229598    0.818658
    131          1           0      -12.037440    0.474137    0.164582
    132          1           0      -13.315186    0.214659   -1.719178
    133          1           0      -13.764942    1.902559   -1.302177
    134          1           0      -15.497249   -0.309151   -0.148738
    135          1           0      -15.489781   -1.621009   -2.248189
    136          1           0      -14.811291   -0.481509   -3.023834
    137          1           0      -16.564983   -0.288237   -2.673830
    138          1           0      -15.855247    2.224839   -1.819747
    139          1           0      -15.972214    2.175594   -0.071307
    140          1           0      -17.181190    1.267610   -1.070991
 ---------------------------------------------------------------------

 SCF Done:  E(RB-LYP) =  -3007.36147829     A.U. after   20 cycles

 Excitation energies and oscillator strengths:

 Excited State   1:      Singlet-A      1.8036 eV  687.42 nm  f=0.2894  <S**2>=0.000
     245 -> 248        0.20085
     246 -> 247        0.68795
     246 <- 247       -0.14608
 This state for optimization and/or second-order correction.
 Total Energy, E(TD-HF/TD-DFT) =  -3007.29519624
 Copying the excited state density for this state as the 1-particle RhoCI density.

 Excited State   2:      Singlet-A      1.9652 eV  630.91 nm  f=0.0031  <S**2>=0.000
     244 -> 247        0.68789
     245 -> 247       -0.15186

 Excited State   3:      Singlet-A      2.0468 eV  605.73 nm  f=0.0503  <S**2>=0.000
     243 -> 247        0.14600
     244 -> 247        0.15727
     245 -> 247        0.60473
     246 -> 248       -0.27667

 Excited State   4:      Singlet-A      2.2248 eV  557.29 nm  f=0.0021  <S**2>=0.000
     243 -> 247        0.68884
     245 -> 247       -0.10874
     246 -> 248        0.10352

 Excited State   5:      Singlet-A      2.3255 eV  533.15 nm  f=0.0002  <S**2>=0.000
     242 -> 247        0.70705

 The electronic state is 1-A.
 Alpha  occ. eigenvalues --  -46.25225 -18.82013 -18.81574 -18.77635 -18.76187
 Alpha  occ. eigenvalues --  -18.75823 -18.75315 -14.03308 -14.02462 -14.01067
 Alpha  occ. eigenvalues --  -14.00472 -10.03711 -10.03368 -10.00105  -9.99152
 Alpha  occ. eigenvalues --   -9.97715  -9.97234  -9.97115  -9.96001  -9.95847
 Alpha  occ. eigenvalues --   -9.95826  -9.95691  -9.95358  -9.94792  -9.94252
 Alpha  occ. eigenvalues --   -9.94043  -9.93882  -9.93813  -9.93597  -9.93584
 Alpha  occ. eigenvalues --   -9.93357  -9.93275  -9.93269  -9.93199  -9.93113
 Alpha  occ. eigenvalues --   -9.93100  -9.92793  -9.92754  -9.92663  -9.92573
 Alpha  occ. eigenvalues --   -9.92518  -9.92404  -9.92397  -9.92253  -9.92168
 Alpha  occ. eigenvalues --   -9.92104  -9.92043  -9.91779  -9.91742  -9.91667
 Alpha  occ. eigenvalues --   -9.91569  -9.91543  -9.91422  -9.91321  -9.91147
 Alpha  occ. eigenvalues --   -9.91143  -9.91087  -9.91066  -9.91007  -9.90972
 Alpha  occ. eigenvalues --   -9.90873  -9.90721  -9.90640  -9.90622  -9.90612
 Alpha  occ. eigenvalues --   -9.90240  -2.90214  -1.70635  -1.70081  -1.69944
 Alpha  occ. eigenvalues --   -0.98316  -0.97309  -0.93859  -0.91332  -0.89822
 Alpha  occ. eigenvalues --   -0.89137  -0.87499  -0.86766  -0.84450  -0.83258
 Alpha  occ. eigenvalues --   -0.77209  -0.73601  -0.73253  -0.72825  -0.72821
 Alpha  occ. eigenvalues --   -0.71724  -0.71642  -0.70943  -0.70596  -0.69977
 Alpha  occ. eigenvalues --   -0.69756  -0.69367  -0.68213  -0.67542  -0.66754
 Alpha  occ. eigenvalues --   -0.66390  -0.65988  -0.65218  -0.64858  -0.64606
 Alpha  occ. eigenvalues --   -0.63846  -0.62631  -0.62501  -0.62148  -0.61204
 Alpha  occ. eigenvalues --   -0.60100  -0.60058  -0.59702  -0.59217  -0.58895
 Alpha  occ. eigenvalues --   -0.58274  -0.57496  -0.57138  -0.56205  -0.54797
 Alpha  occ. eigenvalues --   -0.54471  -0.53260  -0.52542  -0.52118  -0.51996
 Alpha  occ. eigenvalues --   -0.51158  -0.50936  -0.50638  -0.50208  -0.49699
 Alpha  occ. eigenvalues --   -0.49422  -0.48826  -0.48707  -0.48434  -0.46432
 Alpha  occ. eigenvalues --   -0.46360  -0.46342  -0.46057  -0.45326  -0.45072
 Alpha  occ. eigenvalues --   -0.44512  -0.44283  -0.42955  -0.42399  -0.42313
 Alpha  occ. eigenvalues --   -0.41968  -0.41508  -0.41294  -0.41177  -0.40808
 Alpha  occ. eigenvalues --   -0.40680  -0.40391  -0.40141  -0.40038  -0.39896
 Alpha  occ. eigenvalues --   -0.39796  -0.39595  -0.39446  -0.39154  -0.39092
 Alpha  occ. eigenvalues --   -0.39008  -0.38656  -0.38548  -0.38448  -0.37954
 Alpha  occ. eigenvalues --   -0.37823  -0.37728  -0.37679  -0.37472  -0.37391
 Alpha  occ. eigenvalues --   -0.37137  -0.36802  -0.36677  -0.36594  -0.36463
 Alpha  occ. eigenvalues --   -0.36346  -0.36120  -0.36011  -0.35882  -0.35824
 Alpha  occ. eigenvalues --   -0.35747  -0.35410  -0.35132  -0.34852  -0.34791
 Alpha  occ. eigenvalues --   -0.34708  -0.34582  -0.34213  -0.34075  -0.33758
 Alpha  occ. eigenvalues --   -0.33705  -0.33482  -0.33322  -0.33250  -0.33044
 Alpha  occ. eigenvalues --   -0.32987  -0.32881  -0.32805  -0.32512  -0.32301
 Alpha  occ. eigenvalues --   -0.32128  -0.31984  -0.31920  -0.31771  -0.31714
 Alpha  occ. eigenvalues --   -0.31457  -0.31255  -0.31052  -0.30935  -0.30800
 Alpha  occ. eigenvalues --   -0.30650  -0.30423  -0.30329  -0.30170  -0.30016
 Alpha  occ. eigenvalues --   -0.29731  -0.29597  -0.29474  -0.29421  -0.29170
 Alpha  occ. eigenvalues --   -0.29128  -0.28255  -0.28225  -0.27965  -0.27440
 Alpha  occ. eigenvalues --   -0.27053  -0.26931  -0.26626  -0.26429  -0.26324
 Alpha  occ. eigenvalues --   -0.26286  -0.25775  -0.25697  -0.25577  -0.24964
 Alpha  occ. eigenvalues --   -0.24770  -0.24631  -0.24151  -0.24121  -0.24085
 Alpha  occ. eigenvalues --   -0.23473  -0.22665  -0.22103  -0.21451  -0.20831
 Alpha  occ. eigenvalues --   -0.20416  -0.19750  -0.19253  -0.18335  -0.17224
 Alpha  occ. eigenvalues --   -0.15511
 Alpha virt. eigenvalues --   -0.11205  -0.07034  -0.05969  -0.04600  -0.03217
 Alpha virt. eigenvalues --   -0.02568  -0.01654  -0.01404  -0.01150   0.00033
 Alpha virt. eigenvalues --    0.01463   0.01957   0.02514   0.02783   0.02947

 Mulliken charges:
               1
     1  Mg   0.719864
     2  C   -0.056533
     3  C   -0.106080
     4  C   -0.017692
     5  C   -0.104052
     6  N   -0.251000
     7  C   -0.096500
     8  C    0.087010
     9  C   -0.056989
    10  C    0.056512
    11  C    0.101412
    12  C    0.084579
    13  C    0.219906
    14  C    0.045962
    15  O   -0.150793
    16  O   -0.302860
    17  N   -0.347917
    18  C    0.197803
    19  C   -0.146089
    20  C    0.063098
    21  C    0.151768
    22  C    0.174619
    23  C   -0.084154
    24  O   -0.191968
    25  C    0.151254
    26  N   -0.183687
    27  C   -0.060958
    28  C    0.007782
    29  C    0.057679
    30  C   -0.036067
    31  C    0.133860
    32  C    0.093128
    33  C    0.065694
    34  N   -0.268856
    35  C    0.162796
    36  C   -0.164431
    37  C    0.068660
    38  C    0.158480
    39  C    0.148045
    40  C   -0.092905
    41  O   -0.068089
    42  C    0.133102
    43  C    0.071728
    44  O   -0.176343
    45  O   -0.278077
    46  C    0.203087
    47  C    0.296105
    48  C   -0.091886
    49  C   -0.183576
    50  C    0.141144
    51  C    0.140084
    52  C    0.097669
    53  C    0.094189
    54  C   -0.144808
    55  C    0.139265
    56  C    0.095610
    57  C    0.058601
    58  C    0.129351
    59  C   -0.064747
    60  C    0.117718
    61  C    0.050483
    62  C    0.094138
    63  C    0.091786
    64  C   -0.078204
    65  C    0.077068
    66  C    0.095986
    67  H   -0.065213
    68  H   -0.050797
    69  H   -0.067716
    70  H   -0.013813
    71  H   -0.012822
    72  H   -0.002301
    73  H   -0.006056
    74  H    0.004429
    75  H   -0.011940
    76  H   -0.015566
    77  H   -0.010872
    78  H   -0.014377
    79  H   -0.006593
    80  H   -0.001888
    81  H   -0.021382
    82  H    0.006618
    83  H    0.018439
    84  H   -0.017005
    85  H   -0.028237
    86  H   -0.020992
    87  H   -0.002909
    88  H    0.004453
    89  H    0.000161
    90  H   -0.021521
    91  H   -0.022363
    92  H   -0.001887
    93  H   -0.006108
    94  H   -0.004464
    95  H   -0.027848
    96  H    0.006235
    97  H    0.003816
    98  H   -0.000394
    99  H    0.025958
   100  H    0.020421
   101  H    0.002331
   102  H   -0.009180
   103  H    0.004776
   104  H   -0.035518
   105  H   -0.002343
   106  H    0.011603
   107  H   -0.011405
   108  H   -0.023533
   109  H   -0.046753
   110  H   -0.034458
   111  H   -0.015837
   112  H   -0.036285
   113  H   -0.021031
   114  H   -0.017070
   115  H   -0.015859
   116  H   -0.006202
   117  H   -0.018919
   118  H   -0.034862
   119  H   -0.039332
   120  H   -0.033148
   121  H   -0.024694
   122  H   -0.038637
   123  H   -0.043873
   124  H   -0.042630
   125  H   -0.019397
   126  H   -0.017287
   127  H   -0.023933
   128  H   -0.023122
   129  H   -0.036611
   130  H   -0.026696
   131  H   -0.019345
   132  H   -0.035196
   133  H   -0.024627
   134  H   -0.030912
   135  H   -0.027762
   136  H   -0.030382
   137  H   -0.015398
   138  H   -0.013813
   139  H   -0.014660
   140  H   -0.015221
 Sum of Mulliken charges =  -0.00000

 Dipole moment (field-independent basis, Debye):
    X=             -1.6231    Y=              2.3725    Z=              1.8182  Tot=              3.4013
 Quadrupole moment (field-independent basis, Debye-Ang):
   XX=           -384.7985   YY=           -416.5507   ZZ=           -408.9505
   XY=              3.0804   XZ=              5.0000   YZ=             -7.0154

 Normal termination of Gaussian 16 at Tue Apr 26 23:39:05 2022.
