 Gaussian 16, Revision A.03,
 Gaussian 16:  ES64L-G16RevA.03 25-Dec-2016

 -----------------------------------
 #p cam-b3lyp/Def2SVP td=(nstates=5)
 -----------------------------------

 -------------------------------------------------------
 step_1001_chromophore_4 TDDFT with cam-b3lyp functional
 -------------------------------------------------------
 Symbolic Z-matrix:
 Charge =  0 Multiplicity = 1

                         Standard orientation:
 ---------------------------------------------------------------------
 Center     Atomic      Atomic             Coordinates (Angstroms)
 Number     Number       Type             X           Y           Z
 ---------------------------------------------------------------------
      1         12           0        5.933020    0.480746    0.180958
      2          6           0        3.649382   -2.188762   -0.013690
      3          6           0        3.354744    2.668043   -0.679410
      4          6           0        8.201120    2.995834    0.086887
      5          6           0        8.439912   -1.785634    0.436327
      6          7           0        3.824046    0.235363   -0.263815
      7          6           0        2.988100   -0.921332   -0.250478
      8          6           0        1.559803   -0.573263   -0.678577
      9          6           0        1.599659    0.961072   -0.847661
     10          6           0        3.052888    1.325503   -0.617618
     11          6           0        1.110092    1.415677   -2.271675
     12          6           0        0.422379   -1.080856    0.251447
     13          6           0       -0.880403   -0.301184    0.418997
     14          6           0       -2.104206   -1.119336    0.268243
     15          8           0       -2.571114   -1.331490   -0.795484
     16          8           0       -2.434460   -1.819186    1.457626
     17          7           0        5.794860    2.478769   -0.226758
     18          6           0        4.606402    3.220504   -0.497395
     19          6           0        4.964257    4.634135   -0.434900
     20          6           0        6.349333    4.735058   -0.310666
     21          6           0        6.860354    3.387524   -0.111090
     22          6           0        3.968271    5.808627   -0.640300
     23          6           0        7.186046    5.999151   -0.195710
     24          8           0        8.408429    5.871216    0.056680
     25          6           0        6.573853    7.404049   -0.291144
     26          7           0        8.063696    0.596586    0.166673
     27          6           0        8.726851    1.711307    0.105190
     28          6           0       10.275255    1.376760    0.170532
     29          6           0       10.343128   -0.113414    0.409461
     30          6           0        8.904600   -0.451429    0.436780
     31          6           0       11.051751    1.876667   -1.087307
     32          6           0       11.060169   -0.493936    1.792112
     33          6           0       12.510343   -1.047646    1.501649
     34          7           0        6.077907   -1.486115    0.318839
     35          6           0        7.166042   -2.277841    0.407952
     36          6           0        6.721318   -3.674922    0.503510
     37          6           0        5.328609   -3.635068    0.354829
     38          6           0        5.022120   -2.323027    0.220060
     39          6           0        7.638964   -4.833721    0.489535
     40          6           0        4.185237   -4.491549    0.226336
     41          8           0        4.077238   -5.667084    0.220380
     42          6           0        3.033244   -3.544705    0.046068
     43          6           0        2.239630   -3.964730   -1.061494
     44          8           0        2.587843   -4.099213   -2.228944
     45          8           0        1.003469   -4.364750   -0.596877
     46          6           0        0.074139   -4.981762   -1.551095
     47          6           0       -3.465161   -2.821034    1.281466
     48          6           0       -4.849310   -2.134926    1.204340
     49          6           0       -6.009649   -2.784666    0.924414
     50          6           0       -6.102383   -4.314524    0.613624
     51          6           0       -7.385210   -2.085888    0.841394
     52          6           0       -7.736843   -1.582643   -0.488145
     53          6           0       -7.730352    0.015708   -0.496484
     54          6           0       -9.176023    0.534208   -0.699798
     55          6           0       -9.733105    0.475417   -2.090549
     56          6           0       -9.209145    2.038391   -0.206318
     57          6           0       -9.677335    2.198250    1.305893
     58          6           0      -10.990908    3.025371    1.524415
     59          6           0      -12.166343    2.219335    2.218381
     60          6           0      -12.604721    2.784693    3.532292
     61          6           0      -13.351325    1.883964    1.222151
     62          6           0      -13.101000    0.628836    0.347727
     63          6           0      -13.789600    0.861140   -0.981900
     64          6           0      -15.257690    0.346919   -0.984818
     65          6           0      -15.587065   -0.534972   -2.260199
     66          6           0      -16.145606    1.595128   -0.978132
     67          1           0        2.501642    3.275349   -0.986840
     68          1           0        9.080352    3.642311    0.114934
     69          1           0        9.251439   -2.509980    0.346104
     70          1           0        1.427840   -0.967354   -1.686188
     71          1           0        1.067166    1.517731   -0.076576
     72          1           0        1.888728    1.308858   -3.027165
     73          1           0        0.846018    2.473020   -2.268076
     74          1           0        0.277289    0.798513   -2.605769
     75          1           0        0.865193   -1.553840    1.127228
     76          1           0        0.150547   -1.934386   -0.369470
     77          1           0       -0.979813    0.421805   -0.391878
     78          1           0       -0.833013    0.136347    1.416253
     79          1           0        4.260731    6.413297   -1.498574
     80          1           0        3.895154    6.515461    0.186240
     81          1           0        2.976298    5.421335   -0.874436
     82          1           0        5.907102    7.517038    0.564630
     83          1           0        6.161220    7.557233   -1.288446
     84          1           0        7.321429    8.163902   -0.065171
     85          1           0       10.620173    1.894419    1.064707
     86          1           0       10.733369   -0.630185   -0.466540
     87          1           0       11.872364    1.169173   -1.199495
     88          1           0       11.337990    2.903200   -0.855002
     89          1           0       10.404961    1.930931   -1.963174
     90          1           0       10.446758   -1.228275    2.314084
     91          1           0       11.039731    0.354552    2.475459
     92          1           0       12.621148   -1.234185    0.433882
     93          1           0       12.744700   -1.954734    2.058829
     94          1           0       13.230593   -0.317728    1.870319
     95          1           0        8.673782   -4.717472    0.168072
     96          1           0        7.364970   -5.549206   -0.285554
     97          1           0        7.694171   -5.289224    1.478568
     98          1           0        2.413756   -3.685116    0.931303
     99          1           0        0.521091   -5.396685   -2.455201
    100          1           0       -0.784042   -4.351031   -1.781646
    101          1           0       -0.374228   -5.861317   -1.087695
    102          1           0       -3.313902   -3.307739    2.244820
    103          1           0       -3.293034   -3.590052    0.529673
    104          1           0       -4.779656   -1.063691    1.394772
    105          1           0       -6.901431   -4.458885   -0.113447
    106          1           0       -6.363277   -4.766607    1.570845
    107          1           0       -5.138089   -4.660209    0.242649
    108          1           0       -7.331963   -1.299427    1.594139
    109          1           0       -8.086003   -2.868823    1.129215
    110          1           0       -8.801194   -1.790573   -0.599675
    111          1           0       -7.173790   -2.061725   -1.288366
    112          1           0       -7.153519    0.251299   -1.390125
    113          1           0       -7.295069    0.433473    0.411700
    114          1           0       -9.717124   -0.121148   -0.018744
    115          1           0       -9.410545    1.279829   -2.752022
    116          1           0      -10.796631    0.624050   -1.905124
    117          1           0       -9.398265   -0.477090   -2.500500
    118          1           0       -9.747306    2.682314   -0.901290
    119          1           0       -8.160381    2.334865   -0.230029
    120          1           0       -8.866327    2.703448    1.830573
    121          1           0       -9.772729    1.191349    1.712489
    122          1           0      -11.266017    3.438089    0.553766
    123          1           0      -10.782654    3.888670    2.156483
    124          1           0      -11.766619    1.224055    2.412991
    125          1           0      -12.924462    1.969272    4.180656
    126          1           0      -13.415637    3.494731    3.362931
    127          1           0      -11.851012    3.315714    4.113814
    128          1           0      -13.611220    2.780495    0.659191
    129          1           0      -14.217815    1.646532    1.839748
    130          1           0      -13.580127   -0.229598    0.818658
    131          1           0      -12.037440    0.474137    0.164582
    132          1           0      -13.315186    0.214659   -1.719178
    133          1           0      -13.764942    1.902559   -1.302177
    134          1           0      -15.497249   -0.309151   -0.148738
    135          1           0      -15.489781   -1.621009   -2.248189
    136          1           0      -14.811291   -0.481509   -3.023834
    137          1           0      -16.564983   -0.288237   -2.673830
    138          1           0      -15.855247    2.224839   -1.819747
    139          1           0      -15.972214    2.175594   -0.071307
    140          1           0      -17.181190    1.267610   -1.070991
 ---------------------------------------------------------------------

 SCF Done:  E(RCAM-B3LYP) =  -3007.16775789     A.U. after   19 cycles

 Excitation energies and oscillator strengths:

 Excited State   1:      Singlet-A      1.7096 eV  725.21 nm  f=0.3593  <S**2>=0.000
     245 -> 248        0.18810
     246 -> 247        0.68374
     245 <- 248        0.10954
 This state for optimization and/or second-order correction.
 Total Energy, E(TD-HF/TD-DFT) =  -3007.10492973
 Copying the excited state density for this state as the 1-particle RhoCI density.

 Excited State   2:      Singlet-A      2.2860 eV  542.35 nm  f=0.0653  <S**2>=0.000
     245 -> 247        0.61099
     246 -> 248       -0.34441

 Excited State   3:      Singlet-A      3.4311 eV  361.35 nm  f=0.4764  <S**2>=0.000
     241 -> 247        0.10827
     242 -> 247        0.18156
     243 -> 247        0.35020
     245 -> 247        0.25104
     246 -> 248        0.50475

 Excited State   4:      Singlet-A      3.5181 eV  352.41 nm  f=0.2263  <S**2>=0.000
     240 -> 247        0.20707
     240 -> 249       -0.12546
     240 -> 250        0.12830
     241 -> 247        0.31290
     241 -> 249       -0.20887
     241 -> 250        0.14193
     243 -> 247        0.36014
     245 -> 247       -0.16931
     246 -> 248       -0.26178

 Excited State   5:      Singlet-A      3.5559 eV  348.67 nm  f=0.1614  <S**2>=0.000
     240 -> 247       -0.24110
     240 -> 249        0.16321
     241 -> 247       -0.26561
     241 -> 249        0.14691
     241 -> 250       -0.14114
     243 -> 247        0.43335
     245 -> 247       -0.14763
     246 -> 248       -0.21276

 The electronic state is 1-A.
 Alpha  occ. eigenvalues --  -46.86606 -19.24944 -19.24449 -19.20730 -19.19288
 Alpha  occ. eigenvalues --  -19.18889 -19.18832 -14.42217 -14.41261 -14.39612
 Alpha  occ. eigenvalues --  -14.38720 -10.38996 -10.38800 -10.35627 -10.34172
 Alpha  occ. eigenvalues --  -10.31698 -10.31594 -10.31201 -10.30617 -10.30427
 Alpha  occ. eigenvalues --  -10.30338 -10.30003 -10.29815 -10.28753 -10.28681
 Alpha  occ. eigenvalues --  -10.28269 -10.28083 -10.28014 -10.27602 -10.27528
 Alpha  occ. eigenvalues --  -10.27440 -10.27341 -10.27116 -10.27029 -10.27023
 Alpha  occ. eigenvalues --  -10.26994 -10.26957 -10.26945 -10.26868 -10.26861
 Alpha  occ. eigenvalues --  -10.26511 -10.26455 -10.26264 -10.26020 -10.25823
 Alpha  occ. eigenvalues --  -10.25822 -10.25812 -10.25760 -10.25733 -10.25300
 Alpha  occ. eigenvalues --  -10.25282 -10.25281 -10.25099 -10.25023 -10.24786
 Alpha  occ. eigenvalues --  -10.24783 -10.24779 -10.24771 -10.24712 -10.24695
 Alpha  occ. eigenvalues --  -10.24448 -10.24317 -10.24272 -10.24269 -10.24173
 Alpha  occ. eigenvalues --  -10.24050  -3.15514  -1.90407  -1.89953  -1.89855
 Alpha  occ. eigenvalues --   -1.16907  -1.15849  -1.12239  -1.09226  -1.08426
 Alpha  occ. eigenvalues --   -1.07057  -1.05152  -1.04297  -1.02111  -1.00855
 Alpha  occ. eigenvalues --   -0.94323  -0.90477  -0.90057  -0.89616  -0.89492
 Alpha  occ. eigenvalues --   -0.88410  -0.88342  -0.87524  -0.87171  -0.86670
 Alpha  occ. eigenvalues --   -0.86241  -0.85783  -0.84429  -0.83751  -0.82872
 Alpha  occ. eigenvalues --   -0.82446  -0.81944  -0.81381  -0.80815  -0.80575
 Alpha  occ. eigenvalues --   -0.79523  -0.78368  -0.78091  -0.77746  -0.76583
 Alpha  occ. eigenvalues --   -0.75442  -0.75397  -0.74973  -0.74473  -0.74115
 Alpha  occ. eigenvalues --   -0.73375  -0.72442  -0.72075  -0.71041  -0.69331
 Alpha  occ. eigenvalues --   -0.69044  -0.67776  -0.67202  -0.66492  -0.66064
 Alpha  occ. eigenvalues --   -0.65336  -0.65158  -0.64548  -0.64342  -0.63729
 Alpha  occ. eigenvalues --   -0.63393  -0.62745  -0.62388  -0.62190  -0.60140
 Alpha  occ. eigenvalues --   -0.59958  -0.59913  -0.59628  -0.58886  -0.58340
 Alpha  occ. eigenvalues --   -0.58085  -0.57620  -0.56082  -0.55639  -0.55511
 Alpha  occ. eigenvalues --   -0.54842  -0.54779  -0.54417  -0.54281  -0.53618
 Alpha  occ. eigenvalues --   -0.53476  -0.53079  -0.52982  -0.52588  -0.52552
 Alpha  occ. eigenvalues --   -0.52454  -0.52442  -0.52281  -0.52028  -0.51709
 Alpha  occ. eigenvalues --   -0.51469  -0.51363  -0.51129  -0.50848  -0.50421
 Alpha  occ. eigenvalues --   -0.50108  -0.49962  -0.49920  -0.49789  -0.49698
 Alpha  occ. eigenvalues --   -0.49627  -0.49462  -0.49255  -0.48878  -0.48676
 Alpha  occ. eigenvalues --   -0.48582  -0.48406  -0.48322  -0.48059  -0.47794
 Alpha  occ. eigenvalues --   -0.47766  -0.47516  -0.47306  -0.47112  -0.46840
 Alpha  occ. eigenvalues --   -0.46703  -0.46472  -0.46173  -0.45883  -0.45642
 Alpha  occ. eigenvalues --   -0.45361  -0.45351  -0.45090  -0.45056  -0.44653
 Alpha  occ. eigenvalues --   -0.44569  -0.44469  -0.44401  -0.44084  -0.43937
 Alpha  occ. eigenvalues --   -0.43666  -0.43576  -0.43408  -0.43217  -0.43178
 Alpha  occ. eigenvalues --   -0.43104  -0.42903  -0.42651  -0.42490  -0.42317
 Alpha  occ. eigenvalues --   -0.42183  -0.41932  -0.41774  -0.41731  -0.41301
 Alpha  occ. eigenvalues --   -0.41171  -0.40985  -0.40695  -0.40582  -0.40339
 Alpha  occ. eigenvalues --   -0.40182  -0.39260  -0.39232  -0.38900  -0.38537
 Alpha  occ. eigenvalues --   -0.38259  -0.37796  -0.37632  -0.37234  -0.37175
 Alpha  occ. eigenvalues --   -0.37105  -0.36772  -0.36451  -0.36243  -0.36106
 Alpha  occ. eigenvalues --   -0.35673  -0.35527  -0.34690  -0.34537  -0.34490
 Alpha  occ. eigenvalues --   -0.34372  -0.34231  -0.33462  -0.31367  -0.31085
 Alpha  occ. eigenvalues --   -0.30873  -0.30012  -0.29768  -0.29459  -0.24024
 Alpha  occ. eigenvalues --   -0.20722
 Alpha virt. eigenvalues --   -0.08139  -0.01936   0.00630   0.02457   0.03351
 Alpha virt. eigenvalues --    0.04722   0.05222   0.05675   0.06351   0.06761
 Alpha virt. eigenvalues --    0.07763   0.08634   0.08886   0.09261   0.09332

 Mulliken charges:
               1
     1  Mg   0.856105
     2  C   -0.081222
     3  C   -0.116962
     4  C   -0.037062
     5  C   -0.104540
     6  N   -0.320959
     7  C   -0.048910
     8  C    0.038897
     9  C   -0.120728
    10  C    0.081829
    11  C    0.044473
    12  C    0.034450
    13  C    0.140356
    14  C    0.127871
    15  O   -0.187449
    16  O   -0.365976
    17  N   -0.435954
    18  C    0.204715
    19  C   -0.150711
    20  C   -0.004358
    21  C    0.176152
    22  C    0.119397
    23  C   -0.005154
    24  O   -0.231300
    25  C    0.068565
    26  N   -0.256112
    27  C   -0.034415
    28  C   -0.047893
    29  C   -0.010349
    30  C   -0.015207
    31  C    0.078247
    32  C    0.041617
    33  C    0.004795
    34  N   -0.361887
    35  C    0.159734
    36  C   -0.154519
    37  C   -0.016644
    38  C    0.186548
    39  C    0.092375
    40  C    0.014204
    41  O   -0.108097
    42  C    0.045448
    43  C    0.163202
    44  O   -0.213407
    45  O   -0.342552
    46  C    0.168001
    47  C    0.262399
    48  C   -0.111473
    49  C   -0.203546
    50  C    0.080857
    51  C    0.080774
    52  C    0.037935
    53  C    0.046105
    54  C   -0.196836
    55  C    0.087560
    56  C    0.039269
    57  C    0.007238
    58  C    0.072789
    59  C   -0.118218
    60  C    0.057552
    61  C    0.002856
    62  C    0.046440
    63  C    0.030395
    64  C   -0.135231
    65  C    0.017821
    66  C    0.039623
    67  H   -0.031194
    68  H   -0.009982
    69  H   -0.032639
    70  H    0.021879
    71  H    0.021421
    72  H    0.025056
    73  H    0.017188
    74  H    0.028450
    75  H    0.019943
    76  H    0.014273
    77  H    0.021303
    78  H    0.021116
    79  H    0.019792
    80  H    0.025237
    81  H    0.007711
    82  H    0.034763
    83  H    0.045684
    84  H    0.021095
    85  H    0.006554
    86  H    0.014342
    87  H    0.019431
    88  H    0.027178
    89  H    0.025408
    90  H    0.009214
    91  H    0.005923
    92  H    0.018594
    93  H    0.017885
    94  H    0.018383
    95  H   -0.001297
    96  H    0.031698
    97  H    0.029214
    98  H    0.045155
    99  H    0.052385
   100  H    0.038237
   101  H    0.024586
   102  H    0.021692
   103  H    0.029705
   104  H   -0.002587
   105  H    0.020570
   106  H    0.035879
   107  H    0.011254
   108  H    0.005747
   109  H   -0.014507
   110  H   -0.005561
   111  H    0.013358
   112  H   -0.005835
   113  H    0.004458
   114  H    0.007186
   115  H    0.008728
   116  H    0.011552
   117  H    0.004430
   118  H   -0.006239
   119  H   -0.008436
   120  H   -0.003689
   121  H    0.000187
   122  H   -0.011157
   123  H   -0.012935
   124  H   -0.010859
   125  H    0.005198
   126  H    0.005996
   127  H    0.001823
   128  H    0.001412
   129  H   -0.007842
   130  H    0.002073
   131  H    0.000619
   132  H   -0.005937
   133  H    0.003093
   134  H   -0.000101
   135  H   -0.001752
   136  H   -0.006338
   137  H    0.008898
   138  H    0.009446
   139  H    0.008552
   140  H    0.009012
 Sum of Mulliken charges =  -0.00000

 Dipole moment (field-independent basis, Debye):
    X=             -1.7760    Y=              3.3720    Z=              1.7156  Tot=              4.1795
 Quadrupole moment (field-independent basis, Debye-Ang):
   XX=           -384.8309   YY=           -409.9894   ZZ=           -409.3372
   XY=              8.5676   XZ=              5.2814   YZ=             -7.2146

 Normal termination of Gaussian 16 at Tue Apr 26 22:40:55 2022.
