 Gaussian 16, Revision A.03,
 Gaussian 16:  ES64L-G16RevA.03 25-Dec-2016

 ---------------------------------
 #p PBE1PBE/Def2SVP td=(nstates=5)
 ---------------------------------

 -----------------------------------------------------
 step_1001_chromophore_4 TDDFT with PBE1PBE functional
 -----------------------------------------------------
 Symbolic Z-matrix:
 Charge =  0 Multiplicity = 1

                         Standard orientation:
 ---------------------------------------------------------------------
 Center     Atomic      Atomic             Coordinates (Angstroms)
 Number     Number       Type             X           Y           Z
 ---------------------------------------------------------------------
      1         12           0        5.933020    0.480746    0.180958
      2          6           0        3.649382   -2.188762   -0.013690
      3          6           0        3.354744    2.668043   -0.679410
      4          6           0        8.201120    2.995834    0.086887
      5          6           0        8.439912   -1.785634    0.436327
      6          7           0        3.824046    0.235363   -0.263815
      7          6           0        2.988100   -0.921332   -0.250478
      8          6           0        1.559803   -0.573263   -0.678577
      9          6           0        1.599659    0.961072   -0.847661
     10          6           0        3.052888    1.325503   -0.617618
     11          6           0        1.110092    1.415677   -2.271675
     12          6           0        0.422379   -1.080856    0.251447
     13          6           0       -0.880403   -0.301184    0.418997
     14          6           0       -2.104206   -1.119336    0.268243
     15          8           0       -2.571114   -1.331490   -0.795484
     16          8           0       -2.434460   -1.819186    1.457626
     17          7           0        5.794860    2.478769   -0.226758
     18          6           0        4.606402    3.220504   -0.497395
     19          6           0        4.964257    4.634135   -0.434900
     20          6           0        6.349333    4.735058   -0.310666
     21          6           0        6.860354    3.387524   -0.111090
     22          6           0        3.968271    5.808627   -0.640300
     23          6           0        7.186046    5.999151   -0.195710
     24          8           0        8.408429    5.871216    0.056680
     25          6           0        6.573853    7.404049   -0.291144
     26          7           0        8.063696    0.596586    0.166673
     27          6           0        8.726851    1.711307    0.105190
     28          6           0       10.275255    1.376760    0.170532
     29          6           0       10.343128   -0.113414    0.409461
     30          6           0        8.904600   -0.451429    0.436780
     31          6           0       11.051751    1.876667   -1.087307
     32          6           0       11.060169   -0.493936    1.792112
     33          6           0       12.510343   -1.047646    1.501649
     34          7           0        6.077907   -1.486115    0.318839
     35          6           0        7.166042   -2.277841    0.407952
     36          6           0        6.721318   -3.674922    0.503510
     37          6           0        5.328609   -3.635068    0.354829
     38          6           0        5.022120   -2.323027    0.220060
     39          6           0        7.638964   -4.833721    0.489535
     40          6           0        4.185237   -4.491549    0.226336
     41          8           0        4.077238   -5.667084    0.220380
     42          6           0        3.033244   -3.544705    0.046068
     43          6           0        2.239630   -3.964730   -1.061494
     44          8           0        2.587843   -4.099213   -2.228944
     45          8           0        1.003469   -4.364750   -0.596877
     46          6           0        0.074139   -4.981762   -1.551095
     47          6           0       -3.465161   -2.821034    1.281466
     48          6           0       -4.849310   -2.134926    1.204340
     49          6           0       -6.009649   -2.784666    0.924414
     50          6           0       -6.102383   -4.314524    0.613624
     51          6           0       -7.385210   -2.085888    0.841394
     52          6           0       -7.736843   -1.582643   -0.488145
     53          6           0       -7.730352    0.015708   -0.496484
     54          6           0       -9.176023    0.534208   -0.699798
     55          6           0       -9.733105    0.475417   -2.090549
     56          6           0       -9.209145    2.038391   -0.206318
     57          6           0       -9.677335    2.198250    1.305893
     58          6           0      -10.990908    3.025371    1.524415
     59          6           0      -12.166343    2.219335    2.218381
     60          6           0      -12.604721    2.784693    3.532292
     61          6           0      -13.351325    1.883964    1.222151
     62          6           0      -13.101000    0.628836    0.347727
     63          6           0      -13.789600    0.861140   -0.981900
     64          6           0      -15.257690    0.346919   -0.984818
     65          6           0      -15.587065   -0.534972   -2.260199
     66          6           0      -16.145606    1.595128   -0.978132
     67          1           0        2.501642    3.275349   -0.986840
     68          1           0        9.080352    3.642311    0.114934
     69          1           0        9.251439   -2.509980    0.346104
     70          1           0        1.427840   -0.967354   -1.686188
     71          1           0        1.067166    1.517731   -0.076576
     72          1           0        1.888728    1.308858   -3.027165
     73          1           0        0.846018    2.473020   -2.268076
     74          1           0        0.277289    0.798513   -2.605769
     75          1           0        0.865193   -1.553840    1.127228
     76          1           0        0.150547   -1.934386   -0.369470
     77          1           0       -0.979813    0.421805   -0.391878
     78          1           0       -0.833013    0.136347    1.416253
     79          1           0        4.260731    6.413297   -1.498574
     80          1           0        3.895154    6.515461    0.186240
     81          1           0        2.976298    5.421335   -0.874436
     82          1           0        5.907102    7.517038    0.564630
     83          1           0        6.161220    7.557233   -1.288446
     84          1           0        7.321429    8.163902   -0.065171
     85          1           0       10.620173    1.894419    1.064707
     86          1           0       10.733369   -0.630185   -0.466540
     87          1           0       11.872364    1.169173   -1.199495
     88          1           0       11.337990    2.903200   -0.855002
     89          1           0       10.404961    1.930931   -1.963174
     90          1           0       10.446758   -1.228275    2.314084
     91          1           0       11.039731    0.354552    2.475459
     92          1           0       12.621148   -1.234185    0.433882
     93          1           0       12.744700   -1.954734    2.058829
     94          1           0       13.230593   -0.317728    1.870319
     95          1           0        8.673782   -4.717472    0.168072
     96          1           0        7.364970   -5.549206   -0.285554
     97          1           0        7.694171   -5.289224    1.478568
     98          1           0        2.413756   -3.685116    0.931303
     99          1           0        0.521091   -5.396685   -2.455201
    100          1           0       -0.784042   -4.351031   -1.781646
    101          1           0       -0.374228   -5.861317   -1.087695
    102          1           0       -3.313902   -3.307739    2.244820
    103          1           0       -3.293034   -3.590052    0.529673
    104          1           0       -4.779656   -1.063691    1.394772
    105          1           0       -6.901431   -4.458885   -0.113447
    106          1           0       -6.363277   -4.766607    1.570845
    107          1           0       -5.138089   -4.660209    0.242649
    108          1           0       -7.331963   -1.299427    1.594139
    109          1           0       -8.086003   -2.868823    1.129215
    110          1           0       -8.801194   -1.790573   -0.599675
    111          1           0       -7.173790   -2.061725   -1.288366
    112          1           0       -7.153519    0.251299   -1.390125
    113          1           0       -7.295069    0.433473    0.411700
    114          1           0       -9.717124   -0.121148   -0.018744
    115          1           0       -9.410545    1.279829   -2.752022
    116          1           0      -10.796631    0.624050   -1.905124
    117          1           0       -9.398265   -0.477090   -2.500500
    118          1           0       -9.747306    2.682314   -0.901290
    119          1           0       -8.160381    2.334865   -0.230029
    120          1           0       -8.866327    2.703448    1.830573
    121          1           0       -9.772729    1.191349    1.712489
    122          1           0      -11.266017    3.438089    0.553766
    123          1           0      -10.782654    3.888670    2.156483
    124          1           0      -11.766619    1.224055    2.412991
    125          1           0      -12.924462    1.969272    4.180656
    126          1           0      -13.415637    3.494731    3.362931
    127          1           0      -11.851012    3.315714    4.113814
    128          1           0      -13.611220    2.780495    0.659191
    129          1           0      -14.217815    1.646532    1.839748
    130          1           0      -13.580127   -0.229598    0.818658
    131          1           0      -12.037440    0.474137    0.164582
    132          1           0      -13.315186    0.214659   -1.719178
    133          1           0      -13.764942    1.902559   -1.302177
    134          1           0      -15.497249   -0.309151   -0.148738
    135          1           0      -15.489781   -1.621009   -2.248189
    136          1           0      -14.811291   -0.481509   -3.023834
    137          1           0      -16.564983   -0.288237   -2.673830
    138          1           0      -15.855247    2.224839   -1.819747
    139          1           0      -15.972214    2.175594   -0.071307
    140          1           0      -17.181190    1.267610   -1.070991
 ---------------------------------------------------------------------

 SCF Done:  E(RPBE1PBE) =  -3005.35457246     A.U. after   15 cycles

 Excitation energies and oscillator strengths:

 Excited State   1:      Singlet-A      1.8558 eV  668.08 nm  f=0.3493  <S**2>=0.000
     245 -> 248        0.18135
     246 -> 247        0.69068
     246 <- 247       -0.10333
 This state for optimization and/or second-order correction.
 Total Energy, E(TD-HF/TD-DFT) =  -3005.28637151
 Copying the excited state density for this state as the 1-particle RhoCI density.

 Excited State   2:      Singlet-A      2.2854 eV  542.51 nm  f=0.0703  <S**2>=0.000
     245 -> 247        0.62692
     246 -> 248       -0.31631

 Excited State   3:      Singlet-A      3.0728 eV  403.49 nm  f=0.0009  <S**2>=0.000
     241 -> 247       -0.10849
     242 -> 247        0.51727
     242 -> 249       -0.15003
     242 -> 250        0.11464
     243 -> 247        0.40088

 Excited State   4:      Singlet-A      3.1802 eV  389.87 nm  f=0.0077  <S**2>=0.000
     242 -> 247       -0.39183
     243 -> 247        0.55550
     246 -> 248        0.12703

 Excited State   5:      Singlet-A      3.2606 eV  380.25 nm  f=0.3505  <S**2>=0.000
     240 -> 247        0.29935
     241 -> 247        0.18245
     242 -> 247        0.11792
     245 -> 247        0.22943
     246 -> 248        0.51688
     246 -> 249       -0.10269

 The electronic state is 1-A.
 Alpha  occ. eigenvalues --  -46.90050 -19.25644 -19.25180 -19.20965 -19.19538
 Alpha  occ. eigenvalues --  -19.19198 -19.18902 -14.41809 -14.40746 -14.39286
 Alpha  occ. eigenvalues --  -14.38459 -10.36033 -10.35815 -10.32636 -10.31392
 Alpha  occ. eigenvalues --  -10.29510 -10.29133 -10.28470 -10.28181 -10.28030
 Alpha  occ. eigenvalues --  -10.27904 -10.27839 -10.27440 -10.26568 -10.26235
 Alpha  occ. eigenvalues --  -10.26096 -10.25915 -10.25867 -10.25388 -10.25232
 Alpha  occ. eigenvalues --  -10.25029 -10.25024 -10.24829 -10.24730 -10.24700
 Alpha  occ. eigenvalues --  -10.24645 -10.24640 -10.24545 -10.24526 -10.24087
 Alpha  occ. eigenvalues --  -10.24012 -10.23936 -10.23683 -10.23673 -10.23507
 Alpha  occ. eigenvalues --  -10.23358 -10.23318 -10.23305 -10.23287 -10.23018
 Alpha  occ. eigenvalues --  -10.22974 -10.22831 -10.22640 -10.22587 -10.22374
 Alpha  occ. eigenvalues --  -10.22357 -10.22347 -10.22307 -10.22305 -10.22278
 Alpha  occ. eigenvalues --  -10.21903 -10.21841 -10.21829 -10.21701 -10.21692
 Alpha  occ. eigenvalues --  -10.21531  -3.12527  -1.85362  -1.84885  -1.84794
 Alpha  occ. eigenvalues --   -1.11711  -1.10635  -1.07118  -1.04139  -1.02976
 Alpha  occ. eigenvalues --   -1.01903  -0.99869  -0.99069  -0.96662  -0.95393
 Alpha  occ. eigenvalues --   -0.88823  -0.84597  -0.84275  -0.83847  -0.83692
 Alpha  occ. eigenvalues --   -0.82715  -0.82478  -0.81858  -0.81275  -0.80853
 Alpha  occ. eigenvalues --   -0.80656  -0.80057  -0.78781  -0.77949  -0.77114
 Alpha  occ. eigenvalues --   -0.76610  -0.76240  -0.75523  -0.75016  -0.74769
 Alpha  occ. eigenvalues --   -0.73808  -0.72647  -0.72373  -0.72038  -0.70934
 Alpha  occ. eigenvalues --   -0.69586  -0.69489  -0.69326  -0.68639  -0.68294
 Alpha  occ. eigenvalues --   -0.67674  -0.66921  -0.66444  -0.65443  -0.63794
 Alpha  occ. eigenvalues --   -0.63475  -0.62026  -0.61551  -0.60723  -0.60502
 Alpha  occ. eigenvalues --   -0.59886  -0.59386  -0.59171  -0.58773  -0.57837
 Alpha  occ. eigenvalues --   -0.57540  -0.57017  -0.56954  -0.56635  -0.54649
 Alpha  occ. eigenvalues --   -0.54521  -0.54278  -0.54228  -0.53366  -0.52989
 Alpha  occ. eigenvalues --   -0.52512  -0.52241  -0.50676  -0.50225  -0.49998
 Alpha  occ. eigenvalues --   -0.49428  -0.49290  -0.48949  -0.48839  -0.48121
 Alpha  occ. eigenvalues --   -0.48012  -0.47441  -0.47285  -0.47249  -0.47052
 Alpha  occ. eigenvalues --   -0.46983  -0.46904  -0.46789  -0.46604  -0.46320
 Alpha  occ. eigenvalues --   -0.46013  -0.45918  -0.45707  -0.45535  -0.44961
 Alpha  occ. eigenvalues --   -0.44657  -0.44542  -0.44487  -0.44351  -0.44248
 Alpha  occ. eigenvalues --   -0.44135  -0.44039  -0.43884  -0.43425  -0.43194
 Alpha  occ. eigenvalues --   -0.43158  -0.43049  -0.42897  -0.42691  -0.42442
 Alpha  occ. eigenvalues --   -0.42364  -0.42176  -0.41974  -0.41774  -0.41474
 Alpha  occ. eigenvalues --   -0.41334  -0.41101  -0.40930  -0.40687  -0.40380
 Alpha  occ. eigenvalues --   -0.40106  -0.39974  -0.39848  -0.39799  -0.39480
 Alpha  occ. eigenvalues --   -0.39287  -0.39246  -0.39024  -0.38864  -0.38745
 Alpha  occ. eigenvalues --   -0.38452  -0.38263  -0.38242  -0.37980  -0.37888
 Alpha  occ. eigenvalues --   -0.37826  -0.37782  -0.37447  -0.37325  -0.37099
 Alpha  occ. eigenvalues --   -0.36955  -0.36774  -0.36588  -0.36575  -0.36041
 Alpha  occ. eigenvalues --   -0.35950  -0.35923  -0.35574  -0.35349  -0.35272
 Alpha  occ. eigenvalues --   -0.34970  -0.34266  -0.34092  -0.33847  -0.33367
 Alpha  occ. eigenvalues --   -0.33172  -0.32662  -0.32520  -0.32285  -0.32122
 Alpha  occ. eigenvalues --   -0.31882  -0.31802  -0.31268  -0.31105  -0.31073
 Alpha  occ. eigenvalues --   -0.30647  -0.30406  -0.29711  -0.29571  -0.29421
 Alpha  occ. eigenvalues --   -0.29412  -0.29325  -0.28706  -0.26799  -0.26155
 Alpha  occ. eigenvalues --   -0.25745  -0.25560  -0.25318  -0.24724  -0.20932
 Alpha  occ. eigenvalues --   -0.18384
 Alpha virt. eigenvalues --   -0.10697  -0.05405  -0.03632  -0.01977  -0.00038
 Alpha virt. eigenvalues --    0.00480   0.00759   0.01299   0.01890   0.02954
 Alpha virt. eigenvalues --    0.04171   0.04994   0.05313   0.05716   0.05900

 Mulliken charges:
               1
     1  Mg   1.013017
     2  C   -0.081665
     3  C   -0.100613
     4  C   -0.029824
     5  C   -0.093604
     6  N   -0.425913
     7  C    0.037212
     8  C   -0.030252
     9  C   -0.206125
    10  C    0.123693
    11  C   -0.012785
    12  C   -0.018314
    13  C    0.054678
    14  C    0.194969
    15  O   -0.218562
    16  O   -0.395679
    17  N   -0.546936
    18  C    0.218726
    19  C   -0.172127
    20  C   -0.058866
    21  C    0.204801
    22  C    0.059734
    23  C    0.045417
    24  O   -0.267184
    25  C   -0.006924
    26  N   -0.365445
    27  C    0.010591
    28  C   -0.121981
    29  C   -0.100004
    30  C    0.032536
    31  C    0.017040
    32  C   -0.010981
    33  C   -0.067619
    34  N   -0.500785
    35  C    0.176125
    36  C   -0.166204
    37  C   -0.066200
    38  C    0.215533
    39  C    0.044215
    40  C    0.121115
    41  O   -0.159271
    42  C   -0.073109
    43  C    0.260170
    44  O   -0.251623
    45  O   -0.376351
    46  C    0.114153
    47  C    0.219903
    48  C   -0.118692
    49  C   -0.241209
    50  C    0.011688
    51  C    0.014870
    52  C   -0.027427
    53  C   -0.002830
    54  C   -0.286834
    55  C    0.019175
    56  C   -0.014866
    57  C   -0.055714
    58  C    0.022079
    59  C   -0.203921
    60  C   -0.005082
    61  C   -0.045917
    62  C   -0.032654
    63  C   -0.030210
    64  C   -0.222383
    65  C   -0.037643
    66  C   -0.026313
    67  H    0.000311
    68  H    0.023047
    69  H   -0.000160
    70  H    0.059131
    71  H    0.059051
    72  H    0.053447
    73  H    0.044374
    74  H    0.055311
    75  H    0.051170
    76  H    0.056412
    77  H    0.055821
    78  H    0.053887
    79  H    0.047486
    80  H    0.051973
    81  H    0.035673
    82  H    0.061518
    83  H    0.071223
    84  H    0.048462
    85  H    0.044047
    86  H    0.050834
    87  H    0.047662
    88  H    0.054434
    89  H    0.053695
    90  H    0.042061
    91  H    0.037368
    92  H    0.044973
    93  H    0.045620
    94  H    0.046634
    95  H    0.025143
    96  H    0.058902
    97  H    0.057793
    98  H    0.082832
    99  H    0.073108
   100  H    0.059052
   101  H    0.046849
   102  H    0.050027
   103  H    0.055061
   104  H    0.027610
   105  H    0.047921
   106  H    0.064569
   107  H    0.038903
   108  H    0.037750
   109  H    0.019493
   110  H    0.027719
   111  H    0.044338
   112  H    0.028597
   113  H    0.035897
   114  H    0.043126
   115  H    0.036681
   116  H    0.046904
   117  H    0.032900
   118  H    0.024394
   119  H    0.025683
   120  H    0.029064
   121  H    0.031607
   122  H    0.020788
   123  H    0.019888
   124  H    0.028852
   125  H    0.033194
   126  H    0.033930
   127  H    0.029430
   128  H    0.031614
   129  H    0.025559
   130  H    0.035255
   131  H    0.046224
   132  H    0.028275
   133  H    0.034661
   134  H    0.035949
   135  H    0.025404
   136  H    0.019539
   137  H    0.035592
   138  H    0.037600
   139  H    0.038889
   140  H    0.037173
 Sum of Mulliken charges =  -0.00000

 Dipole moment (field-independent basis, Debye):
    X=             -1.6881    Y=              2.9277    Z=              1.7316  Tot=              3.7973
 Quadrupole moment (field-independent basis, Debye-Ang):
   XX=           -378.4099   YY=           -407.9094   ZZ=           -406.9027
   XY=              5.5151   XZ=              6.0757   YZ=             -7.2050

 Normal termination of Gaussian 16 at Tue Apr 26 23:01:55 2022.
