 Gaussian 16, Revision A.03,
 Gaussian 16:  ES64L-G16RevA.03 25-Dec-2016

 --------------------------------
 #p wB97XD/Def2SVP td=(nstates=5)
 --------------------------------

 ----------------------------------------------------
 step_1001_chromophore_4 TDDFT with wB97XD functional
 ----------------------------------------------------
 Symbolic Z-matrix:
 Charge =  0 Multiplicity = 1

                         Standard orientation:
 ---------------------------------------------------------------------
 Center     Atomic      Atomic             Coordinates (Angstroms)
 Number     Number       Type             X           Y           Z
 ---------------------------------------------------------------------
      1         12           0        5.933020    0.480746    0.180958
      2          6           0        3.649382   -2.188762   -0.013690
      3          6           0        3.354744    2.668043   -0.679410
      4          6           0        8.201120    2.995834    0.086887
      5          6           0        8.439912   -1.785634    0.436327
      6          7           0        3.824046    0.235363   -0.263815
      7          6           0        2.988100   -0.921332   -0.250478
      8          6           0        1.559803   -0.573263   -0.678577
      9          6           0        1.599659    0.961072   -0.847661
     10          6           0        3.052888    1.325503   -0.617618
     11          6           0        1.110092    1.415677   -2.271675
     12          6           0        0.422379   -1.080856    0.251447
     13          6           0       -0.880403   -0.301184    0.418997
     14          6           0       -2.104206   -1.119336    0.268243
     15          8           0       -2.571114   -1.331490   -0.795484
     16          8           0       -2.434460   -1.819186    1.457626
     17          7           0        5.794860    2.478769   -0.226758
     18          6           0        4.606402    3.220504   -0.497395
     19          6           0        4.964257    4.634135   -0.434900
     20          6           0        6.349333    4.735058   -0.310666
     21          6           0        6.860354    3.387524   -0.111090
     22          6           0        3.968271    5.808627   -0.640300
     23          6           0        7.186046    5.999151   -0.195710
     24          8           0        8.408429    5.871216    0.056680
     25          6           0        6.573853    7.404049   -0.291144
     26          7           0        8.063696    0.596586    0.166673
     27          6           0        8.726851    1.711307    0.105190
     28          6           0       10.275255    1.376760    0.170532
     29          6           0       10.343128   -0.113414    0.409461
     30          6           0        8.904600   -0.451429    0.436780
     31          6           0       11.051751    1.876667   -1.087307
     32          6           0       11.060169   -0.493936    1.792112
     33          6           0       12.510343   -1.047646    1.501649
     34          7           0        6.077907   -1.486115    0.318839
     35          6           0        7.166042   -2.277841    0.407952
     36          6           0        6.721318   -3.674922    0.503510
     37          6           0        5.328609   -3.635068    0.354829
     38          6           0        5.022120   -2.323027    0.220060
     39          6           0        7.638964   -4.833721    0.489535
     40          6           0        4.185237   -4.491549    0.226336
     41          8           0        4.077238   -5.667084    0.220380
     42          6           0        3.033244   -3.544705    0.046068
     43          6           0        2.239630   -3.964730   -1.061494
     44          8           0        2.587843   -4.099213   -2.228944
     45          8           0        1.003469   -4.364750   -0.596877
     46          6           0        0.074139   -4.981762   -1.551095
     47          6           0       -3.465161   -2.821034    1.281466
     48          6           0       -4.849310   -2.134926    1.204340
     49          6           0       -6.009649   -2.784666    0.924414
     50          6           0       -6.102383   -4.314524    0.613624
     51          6           0       -7.385210   -2.085888    0.841394
     52          6           0       -7.736843   -1.582643   -0.488145
     53          6           0       -7.730352    0.015708   -0.496484
     54          6           0       -9.176023    0.534208   -0.699798
     55          6           0       -9.733105    0.475417   -2.090549
     56          6           0       -9.209145    2.038391   -0.206318
     57          6           0       -9.677335    2.198250    1.305893
     58          6           0      -10.990908    3.025371    1.524415
     59          6           0      -12.166343    2.219335    2.218381
     60          6           0      -12.604721    2.784693    3.532292
     61          6           0      -13.351325    1.883964    1.222151
     62          6           0      -13.101000    0.628836    0.347727
     63          6           0      -13.789600    0.861140   -0.981900
     64          6           0      -15.257690    0.346919   -0.984818
     65          6           0      -15.587065   -0.534972   -2.260199
     66          6           0      -16.145606    1.595128   -0.978132
     67          1           0        2.501642    3.275349   -0.986840
     68          1           0        9.080352    3.642311    0.114934
     69          1           0        9.251439   -2.509980    0.346104
     70          1           0        1.427840   -0.967354   -1.686188
     71          1           0        1.067166    1.517731   -0.076576
     72          1           0        1.888728    1.308858   -3.027165
     73          1           0        0.846018    2.473020   -2.268076
     74          1           0        0.277289    0.798513   -2.605769
     75          1           0        0.865193   -1.553840    1.127228
     76          1           0        0.150547   -1.934386   -0.369470
     77          1           0       -0.979813    0.421805   -0.391878
     78          1           0       -0.833013    0.136347    1.416253
     79          1           0        4.260731    6.413297   -1.498574
     80          1           0        3.895154    6.515461    0.186240
     81          1           0        2.976298    5.421335   -0.874436
     82          1           0        5.907102    7.517038    0.564630
     83          1           0        6.161220    7.557233   -1.288446
     84          1           0        7.321429    8.163902   -0.065171
     85          1           0       10.620173    1.894419    1.064707
     86          1           0       10.733369   -0.630185   -0.466540
     87          1           0       11.872364    1.169173   -1.199495
     88          1           0       11.337990    2.903200   -0.855002
     89          1           0       10.404961    1.930931   -1.963174
     90          1           0       10.446758   -1.228275    2.314084
     91          1           0       11.039731    0.354552    2.475459
     92          1           0       12.621148   -1.234185    0.433882
     93          1           0       12.744700   -1.954734    2.058829
     94          1           0       13.230593   -0.317728    1.870319
     95          1           0        8.673782   -4.717472    0.168072
     96          1           0        7.364970   -5.549206   -0.285554
     97          1           0        7.694171   -5.289224    1.478568
     98          1           0        2.413756   -3.685116    0.931303
     99          1           0        0.521091   -5.396685   -2.455201
    100          1           0       -0.784042   -4.351031   -1.781646
    101          1           0       -0.374228   -5.861317   -1.087695
    102          1           0       -3.313902   -3.307739    2.244820
    103          1           0       -3.293034   -3.590052    0.529673
    104          1           0       -4.779656   -1.063691    1.394772
    105          1           0       -6.901431   -4.458885   -0.113447
    106          1           0       -6.363277   -4.766607    1.570845
    107          1           0       -5.138089   -4.660209    0.242649
    108          1           0       -7.331963   -1.299427    1.594139
    109          1           0       -8.086003   -2.868823    1.129215
    110          1           0       -8.801194   -1.790573   -0.599675
    111          1           0       -7.173790   -2.061725   -1.288366
    112          1           0       -7.153519    0.251299   -1.390125
    113          1           0       -7.295069    0.433473    0.411700
    114          1           0       -9.717124   -0.121148   -0.018744
    115          1           0       -9.410545    1.279829   -2.752022
    116          1           0      -10.796631    0.624050   -1.905124
    117          1           0       -9.398265   -0.477090   -2.500500
    118          1           0       -9.747306    2.682314   -0.901290
    119          1           0       -8.160381    2.334865   -0.230029
    120          1           0       -8.866327    2.703448    1.830573
    121          1           0       -9.772729    1.191349    1.712489
    122          1           0      -11.266017    3.438089    0.553766
    123          1           0      -10.782654    3.888670    2.156483
    124          1           0      -11.766619    1.224055    2.412991
    125          1           0      -12.924462    1.969272    4.180656
    126          1           0      -13.415637    3.494731    3.362931
    127          1           0      -11.851012    3.315714    4.113814
    128          1           0      -13.611220    2.780495    0.659191
    129          1           0      -14.217815    1.646532    1.839748
    130          1           0      -13.580127   -0.229598    0.818658
    131          1           0      -12.037440    0.474137    0.164582
    132          1           0      -13.315186    0.214659   -1.719178
    133          1           0      -13.764942    1.902559   -1.302177
    134          1           0      -15.497249   -0.309151   -0.148738
    135          1           0      -15.489781   -1.621009   -2.248189
    136          1           0      -14.811291   -0.481509   -3.023834
    137          1           0      -16.564983   -0.288237   -2.673830
    138          1           0      -15.855247    2.224839   -1.819747
    139          1           0      -15.972214    2.175594   -0.071307
    140          1           0      -17.181190    1.267610   -1.070991
 ---------------------------------------------------------------------

 SCF Done:  E(RwB97XD) =  -3007.86593343     A.U. after   19 cycles

 Excitation energies and oscillator strengths:

 Excited State   1:      Singlet-A      1.6565 eV  748.48 nm  f=0.3577  <S**2>=0.000
     245 -> 248        0.19326
     246 -> 247        0.68171
     245 <- 248        0.11875
 This state for optimization and/or second-order correction.
 Total Energy, E(TD-HF/TD-DFT) =  -3007.80505862
 Copying the excited state density for this state as the 1-particle RhoCI density.

 Excited State   2:      Singlet-A      2.2319 eV  555.51 nm  f=0.0645  <S**2>=0.000
     245 -> 247        0.61029
     246 -> 248       -0.34348

 Excited State   3:      Singlet-A      3.4337 eV  361.08 nm  f=0.4262  <S**2>=0.000
     242 -> 247        0.25293
     243 -> 247       -0.34530
     245 -> 247        0.22946
     246 -> 248        0.48379

 Excited State   4:      Singlet-A      3.5279 eV  351.44 nm  f=0.1714  <S**2>=0.000
     240 -> 247       -0.13019
     241 -> 247        0.40024
     241 -> 248        0.12424
     241 -> 249       -0.28464
     241 -> 250        0.20318
     243 -> 247       -0.25487
     245 -> 247       -0.14654
     246 -> 248       -0.23098

 Excited State   5:      Singlet-A      3.5701 eV  347.28 nm  f=0.2790  <S**2>=0.000
     240 -> 247       -0.12769
     240 -> 249        0.10268
     241 -> 247        0.25418
     241 -> 249       -0.14529
     241 -> 250        0.12770
     243 -> 247        0.46391
     245 -> 247        0.19290
     246 -> 248        0.28226

 The electronic state is 1-A.
 Alpha  occ. eigenvalues --  -46.92980 -19.30175 -19.29724 -19.25649 -19.24227
 Alpha  occ. eigenvalues --  -19.23913 -19.23894 -14.46858 -14.45840 -14.44299
 Alpha  occ. eigenvalues --  -14.43319 -10.42812 -10.42631 -10.39653 -10.38127
 Alpha  occ. eigenvalues --  -10.35655 -10.35590 -10.34939 -10.34723 -10.34485
 Alpha  occ. eigenvalues --  -10.34450 -10.33971 -10.33833 -10.32956 -10.32637
 Alpha  occ. eigenvalues --  -10.32326 -10.32147 -10.32031 -10.31661 -10.31459
 Alpha  occ. eigenvalues --  -10.31426 -10.31425 -10.31161 -10.31148 -10.31052
 Alpha  occ. eigenvalues --  -10.30983 -10.30959 -10.30906 -10.30877 -10.30765
 Alpha  occ. eigenvalues --  -10.30561 -10.30363 -10.30108 -10.30028 -10.29842
 Alpha  occ. eigenvalues --  -10.29783 -10.29689 -10.29672 -10.29643 -10.29285
 Alpha  occ. eigenvalues --  -10.29261 -10.29122 -10.29016 -10.28946 -10.28719
 Alpha  occ. eigenvalues --  -10.28710 -10.28708 -10.28700 -10.28659 -10.28643
 Alpha  occ. eigenvalues --  -10.28281 -10.28190 -10.28150 -10.28105 -10.28040
 Alpha  occ. eigenvalues --  -10.27981  -3.19274  -1.92866  -1.92391  -1.92292
 Alpha  occ. eigenvalues --   -1.19068  -1.18008  -1.14450  -1.11463  -1.10674
 Alpha  occ. eigenvalues --   -1.09245  -1.07151  -1.06319  -1.04127  -1.02930
 Alpha  occ. eigenvalues --   -0.96315  -0.92259  -0.91902  -0.91382  -0.91369
 Alpha  occ. eigenvalues --   -0.90342  -0.90145  -0.89448  -0.88945  -0.88649
 Alpha  occ. eigenvalues --   -0.88169  -0.87696  -0.86368  -0.85601  -0.84753
 Alpha  occ. eigenvalues --   -0.84265  -0.83845  -0.83334  -0.82721  -0.82446
 Alpha  occ. eigenvalues --   -0.81426  -0.80346  -0.79993  -0.79670  -0.78501
 Alpha  occ. eigenvalues --   -0.77266  -0.77192  -0.76930  -0.76311  -0.75958
 Alpha  occ. eigenvalues --   -0.75280  -0.74420  -0.74022  -0.73001  -0.71266
 Alpha  occ. eigenvalues --   -0.71000  -0.69656  -0.69233  -0.68360  -0.67969
 Alpha  occ. eigenvalues --   -0.67331  -0.67024  -0.66567  -0.66322  -0.65529
 Alpha  occ. eigenvalues --   -0.65206  -0.64582  -0.64377  -0.64150  -0.62163
 Alpha  occ. eigenvalues --   -0.61905  -0.61813  -0.61608  -0.60839  -0.60333
 Alpha  occ. eigenvalues --   -0.60014  -0.59612  -0.58076  -0.57586  -0.57440
 Alpha  occ. eigenvalues --   -0.56791  -0.56767  -0.56330  -0.56218  -0.55498
 Alpha  occ. eigenvalues --   -0.55414  -0.55015  -0.54851  -0.54534  -0.54444
 Alpha  occ. eigenvalues --   -0.54392  -0.54317  -0.54175  -0.53947  -0.53638
 Alpha  occ. eigenvalues --   -0.53322  -0.53303  -0.53044  -0.52763  -0.52333
 Alpha  occ. eigenvalues --   -0.51997  -0.51877  -0.51803  -0.51697  -0.51631
 Alpha  occ. eigenvalues --   -0.51551  -0.51370  -0.51162  -0.50843  -0.50527
 Alpha  occ. eigenvalues --   -0.50484  -0.50287  -0.50238  -0.49964  -0.49700
 Alpha  occ. eigenvalues --   -0.49647  -0.49461  -0.49244  -0.49067  -0.48763
 Alpha  occ. eigenvalues --   -0.48632  -0.48355  -0.48110  -0.47815  -0.47572
 Alpha  occ. eigenvalues --   -0.47319  -0.47217  -0.47006  -0.46955  -0.46591
 Alpha  occ. eigenvalues --   -0.46435  -0.46412  -0.46243  -0.45948  -0.45832
 Alpha  occ. eigenvalues --   -0.45541  -0.45460  -0.45356  -0.45137  -0.45069
 Alpha  occ. eigenvalues --   -0.45051  -0.44808  -0.44585  -0.44415  -0.44307
 Alpha  occ. eigenvalues --   -0.44075  -0.43871  -0.43722  -0.43665  -0.43144
 Alpha  occ. eigenvalues --   -0.43028  -0.43014  -0.42576  -0.42432  -0.42230
 Alpha  occ. eigenvalues --   -0.42029  -0.41169  -0.41130  -0.40774  -0.40443
 Alpha  occ. eigenvalues --   -0.40184  -0.39627  -0.39556  -0.39307  -0.39111
 Alpha  occ. eigenvalues --   -0.38943  -0.38719  -0.38287  -0.38117  -0.38076
 Alpha  occ. eigenvalues --   -0.37582  -0.37362  -0.36626  -0.36421  -0.36353
 Alpha  occ. eigenvalues --   -0.36330  -0.36240  -0.35621  -0.33489  -0.33108
 Alpha  occ. eigenvalues --   -0.32882  -0.32210  -0.31957  -0.31483  -0.25966
 Alpha  occ. eigenvalues --   -0.22538
 Alpha virt. eigenvalues --   -0.06484  -0.00021   0.02672   0.04554   0.06412
 Alpha virt. eigenvalues --    0.06917   0.07337   0.08036   0.08621   0.09509
 Alpha virt. eigenvalues --    0.10566   0.11757   0.11992   0.12429   0.12567

 Mulliken charges:
               1
     1  Mg   0.999408
     2  C   -0.088810
     3  C   -0.121609
     4  C   -0.048138
     5  C   -0.110684
     6  N   -0.392912
     7  C   -0.000926
     8  C   -0.008239
     9  C   -0.174216
    10  C    0.110039
    11  C   -0.004260
    12  C   -0.001475
    13  C    0.073289
    14  C    0.185436
    15  O   -0.216554
    16  O   -0.395257
    17  N   -0.518476
    18  C    0.219224
    19  C   -0.166234
    20  C   -0.047918
    21  C    0.198155
    22  C    0.073972
    23  C    0.039794
    24  O   -0.260809
    25  C    0.005948
    26  N   -0.328932
    27  C   -0.004594
    28  C   -0.098285
    29  C   -0.069162
    30  C    0.015684
    31  C    0.029123
    32  C   -0.000380
    33  C   -0.050219
    34  N   -0.458670
    35  C    0.170115
    36  C   -0.165770
    37  C   -0.062272
    38  C    0.206735
    39  C    0.051649
    40  C    0.101378
    41  O   -0.149492
    42  C   -0.029704
    43  C    0.231639
    44  O   -0.244583
    45  O   -0.373208
    46  C    0.129564
    47  C    0.235707
    48  C   -0.132300
    49  C   -0.229854
    50  C    0.029010
    51  C    0.036650
    52  C   -0.011107
    53  C    0.008606
    54  C   -0.247931
    55  C    0.040292
    56  C   -0.000195
    57  C   -0.036123
    58  C    0.032617
    59  C   -0.170080
    60  C    0.006881
    61  C   -0.034706
    62  C    0.003758
    63  C   -0.009161
    64  C   -0.197758
    65  C   -0.027467
    66  C   -0.008605
    67  H   -0.009602
    68  H    0.018538
    69  H   -0.007733
    70  H    0.049351
    71  H    0.046955
    72  H    0.047951
    73  H    0.038959
    74  H    0.050382
    75  H    0.045277
    76  H    0.037771
    77  H    0.046547
    78  H    0.049583
    79  H    0.041360
    80  H    0.047382
    81  H    0.032370
    82  H    0.055848
    83  H    0.066953
    84  H    0.048057
    85  H    0.032665
    86  H    0.038732
    87  H    0.041110
    88  H    0.048971
    89  H    0.047898
    90  H    0.033480
    91  H    0.030122
    92  H    0.037677
    93  H    0.040260
    94  H    0.040193
    95  H    0.019621
    96  H    0.053856
    97  H    0.052586
    98  H    0.076101
    99  H    0.069517
   100  H    0.055687
   101  H    0.042257
   102  H    0.045919
   103  H    0.049248
   104  H    0.024097
   105  H    0.041999
   106  H    0.058586
   107  H    0.032217
   108  H    0.028431
   109  H    0.011869
   110  H    0.016656
   111  H    0.038021
   112  H    0.020176
   113  H    0.024401
   114  H    0.024574
   115  H    0.030825
   116  H    0.031467
   117  H    0.026324
   118  H    0.015792
   119  H    0.015914
   120  H    0.022642
   121  H    0.018534
   122  H    0.010561
   123  H    0.012450
   124  H    0.013662
   125  H    0.027840
   126  H    0.027479
   127  H    0.023955
   128  H    0.020597
   129  H    0.016023
   130  H    0.026830
   131  H    0.017711
   132  H    0.017172
   133  H    0.023507
   134  H    0.025732
   135  H    0.020312
   136  H    0.012631
   137  H    0.030061
   138  H    0.030055
   139  H    0.030214
   140  H    0.031236
 Sum of Mulliken charges =  -0.00000

 Dipole moment (field-independent basis, Debye):
    X=             -1.8079    Y=              3.5161    Z=              1.6975  Tot=              4.3027
 Quadrupole moment (field-independent basis, Debye-Ang):
   XX=           -379.7249   YY=           -405.1551   ZZ=           -406.6400
   XY=              9.1989   XZ=              5.7069   YZ=             -7.2979

 Normal termination of Gaussian 16 at Tue Apr 26 23:27:45 2022.
