 Gaussian 16, Revision A.03,
 Gaussian 16:  ES64L-G16RevA.03 25-Dec-2016

 --------------------
 #p ZINDO=(nstates=5)
 --------------------

 -----------------------------
 step_1001_chromophore_4 ZINDO
 -----------------------------
 Symbolic Z-matrix:
 Charge =  0 Multiplicity = 1

                         Standard orientation:
 ---------------------------------------------------------------------
 Center     Atomic      Atomic             Coordinates (Angstroms)
 Number     Number       Type             X           Y           Z
 ---------------------------------------------------------------------
      1         12           0        5.933020    0.480746    0.180958
      2          6           0        3.649382   -2.188762   -0.013690
      3          6           0        3.354744    2.668043   -0.679410
      4          6           0        8.201120    2.995834    0.086887
      5          6           0        8.439912   -1.785634    0.436327
      6          7           0        3.824046    0.235363   -0.263815
      7          6           0        2.988100   -0.921332   -0.250478
      8          6           0        1.559803   -0.573263   -0.678577
      9          6           0        1.599659    0.961072   -0.847661
     10          6           0        3.052888    1.325503   -0.617618
     11          6           0        1.110092    1.415677   -2.271675
     12          6           0        0.422379   -1.080856    0.251447
     13          6           0       -0.880403   -0.301184    0.418997
     14          6           0       -2.104206   -1.119336    0.268243
     15          8           0       -2.571114   -1.331490   -0.795484
     16          8           0       -2.434460   -1.819186    1.457626
     17          7           0        5.794860    2.478769   -0.226758
     18          6           0        4.606402    3.220504   -0.497395
     19          6           0        4.964257    4.634135   -0.434900
     20          6           0        6.349333    4.735058   -0.310666
     21          6           0        6.860354    3.387524   -0.111090
     22          6           0        3.968271    5.808627   -0.640300
     23          6           0        7.186046    5.999151   -0.195710
     24          8           0        8.408429    5.871216    0.056680
     25          6           0        6.573853    7.404049   -0.291144
     26          7           0        8.063696    0.596586    0.166673
     27          6           0        8.726851    1.711307    0.105190
     28          6           0       10.275255    1.376760    0.170532
     29          6           0       10.343128   -0.113414    0.409461
     30          6           0        8.904600   -0.451429    0.436780
     31          6           0       11.051751    1.876667   -1.087307
     32          6           0       11.060169   -0.493936    1.792112
     33          6           0       12.510343   -1.047646    1.501649
     34          7           0        6.077907   -1.486115    0.318839
     35          6           0        7.166042   -2.277841    0.407952
     36          6           0        6.721318   -3.674922    0.503510
     37          6           0        5.328609   -3.635068    0.354829
     38          6           0        5.022120   -2.323027    0.220060
     39          6           0        7.638964   -4.833721    0.489535
     40          6           0        4.185237   -4.491549    0.226336
     41          8           0        4.077238   -5.667084    0.220380
     42          6           0        3.033244   -3.544705    0.046068
     43          6           0        2.239630   -3.964730   -1.061494
     44          8           0        2.587843   -4.099213   -2.228944
     45          8           0        1.003469   -4.364750   -0.596877
     46          6           0        0.074139   -4.981762   -1.551095
     47          6           0       -3.465161   -2.821034    1.281466
     48          6           0       -4.849310   -2.134926    1.204340
     49          6           0       -6.009649   -2.784666    0.924414
     50          6           0       -6.102383   -4.314524    0.613624
     51          6           0       -7.385210   -2.085888    0.841394
     52          6           0       -7.736843   -1.582643   -0.488145
     53          6           0       -7.730352    0.015708   -0.496484
     54          6           0       -9.176023    0.534208   -0.699798
     55          6           0       -9.733105    0.475417   -2.090549
     56          6           0       -9.209145    2.038391   -0.206318
     57          6           0       -9.677335    2.198250    1.305893
     58          6           0      -10.990908    3.025371    1.524415
     59          6           0      -12.166343    2.219335    2.218381
     60          6           0      -12.604721    2.784693    3.532292
     61          6           0      -13.351325    1.883964    1.222151
     62          6           0      -13.101000    0.628836    0.347727
     63          6           0      -13.789600    0.861140   -0.981900
     64          6           0      -15.257690    0.346919   -0.984818
     65          6           0      -15.587065   -0.534972   -2.260199
     66          6           0      -16.145606    1.595128   -0.978132
     67          1           0        2.501642    3.275349   -0.986840
     68          1           0        9.080352    3.642311    0.114934
     69          1           0        9.251439   -2.509980    0.346104
     70          1           0        1.427840   -0.967354   -1.686188
     71          1           0        1.067166    1.517731   -0.076576
     72          1           0        1.888728    1.308858   -3.027165
     73          1           0        0.846018    2.473020   -2.268076
     74          1           0        0.277289    0.798513   -2.605769
     75          1           0        0.865193   -1.553840    1.127228
     76          1           0        0.150547   -1.934386   -0.369470
     77          1           0       -0.979813    0.421805   -0.391878
     78          1           0       -0.833013    0.136347    1.416253
     79          1           0        4.260731    6.413297   -1.498574
     80          1           0        3.895154    6.515461    0.186240
     81          1           0        2.976298    5.421335   -0.874436
     82          1           0        5.907102    7.517038    0.564630
     83          1           0        6.161220    7.557233   -1.288446
     84          1           0        7.321429    8.163902   -0.065171
     85          1           0       10.620173    1.894419    1.064707
     86          1           0       10.733369   -0.630185   -0.466540
     87          1           0       11.872364    1.169173   -1.199495
     88          1           0       11.337990    2.903200   -0.855002
     89          1           0       10.404961    1.930931   -1.963174
     90          1           0       10.446758   -1.228275    2.314084
     91          1           0       11.039731    0.354552    2.475459
     92          1           0       12.621148   -1.234185    0.433882
     93          1           0       12.744700   -1.954734    2.058829
     94          1           0       13.230593   -0.317728    1.870319
     95          1           0        8.673782   -4.717472    0.168072
     96          1           0        7.364970   -5.549206   -0.285554
     97          1           0        7.694171   -5.289224    1.478568
     98          1           0        2.413756   -3.685116    0.931303
     99          1           0        0.521091   -5.396685   -2.455201
    100          1           0       -0.784042   -4.351031   -1.781646
    101          1           0       -0.374228   -5.861317   -1.087695
    102          1           0       -3.313902   -3.307739    2.244820
    103          1           0       -3.293034   -3.590052    0.529673
    104          1           0       -4.779656   -1.063691    1.394772
    105          1           0       -6.901431   -4.458885   -0.113447
    106          1           0       -6.363277   -4.766607    1.570845
    107          1           0       -5.138089   -4.660209    0.242649
    108          1           0       -7.331963   -1.299427    1.594139
    109          1           0       -8.086003   -2.868823    1.129215
    110          1           0       -8.801194   -1.790573   -0.599675
    111          1           0       -7.173790   -2.061725   -1.288366
    112          1           0       -7.153519    0.251299   -1.390125
    113          1           0       -7.295069    0.433473    0.411700
    114          1           0       -9.717124   -0.121148   -0.018744
    115          1           0       -9.410545    1.279829   -2.752022
    116          1           0      -10.796631    0.624050   -1.905124
    117          1           0       -9.398265   -0.477090   -2.500500
    118          1           0       -9.747306    2.682314   -0.901290
    119          1           0       -8.160381    2.334865   -0.230029
    120          1           0       -8.866327    2.703448    1.830573
    121          1           0       -9.772729    1.191349    1.712489
    122          1           0      -11.266017    3.438089    0.553766
    123          1           0      -10.782654    3.888670    2.156483
    124          1           0      -11.766619    1.224055    2.412991
    125          1           0      -12.924462    1.969272    4.180656
    126          1           0      -13.415637    3.494731    3.362931
    127          1           0      -11.851012    3.315714    4.113814
    128          1           0      -13.611220    2.780495    0.659191
    129          1           0      -14.217815    1.646532    1.839748
    130          1           0      -13.580127   -0.229598    0.818658
    131          1           0      -12.037440    0.474137    0.164582
    132          1           0      -13.315186    0.214659   -1.719178
    133          1           0      -13.764942    1.902559   -1.302177
    134          1           0      -15.497249   -0.309151   -0.148738
    135          1           0      -15.489781   -1.621009   -2.248189
    136          1           0      -14.811291   -0.481509   -3.023834
    137          1           0      -16.564983   -0.288237   -2.673830
    138          1           0      -15.855247    2.224839   -1.819747
    139          1           0      -15.972214    2.175594   -0.071307
    140          1           0      -17.181190    1.267610   -1.070991
 ---------------------------------------------------------------------

 SCF Done:  E(RZINDO/S) =  -474.577841374     A.U. after   20 cycles

 Excitation energies and oscillator strengths:

 Excited State   1:      Singlet-A      1.2573 eV  986.11 nm  f=0.5648  <S**2>=0.000
     175 ->178         0.19620
     176 ->177         0.66241
 This state for optimization and/or second-order correction.
 Total Energy, E(CIS/TDA) =  -474.531636449
 Copying the excited state density for this state as the 1-particle RhoCI density.

 Excited State   2:      Singlet-A      1.9421 eV  638.41 nm  f=0.0041  <S**2>=0.000
     175 ->177         0.49874
     176 ->178        -0.48156

 Excited State   3:      Singlet-A      2.8981 eV  427.81 nm  f=0.0027  <S**2>=0.000
     168 ->177         0.30884
     168 ->178         0.10908
     168 ->179        -0.41995
     168 ->180        -0.31713
     168 ->185        -0.16407
     168 ->187         0.12290

 Excited State   4:      Singlet-A      3.0295 eV  409.26 nm  f=0.2520  <S**2>=0.000
     170 ->177         0.16647
     170 ->179         0.20447
     170 ->180        -0.20441
     170 ->185         0.14387
     175 ->177         0.19699
     176 ->178         0.20537
     176 ->179         0.43483
     176 ->180        -0.13703

 Excited State   5:      Singlet-A      3.0349 eV  408.52 nm  f=0.4925  <S**2>=0.000
     170 ->177        -0.11603
     170 ->179        -0.13531
     170 ->180         0.13897
     175 ->177        -0.26752
     176 ->178        -0.29062
     176 ->179         0.48161

 The electronic state is 1-A.
 Alpha  occ. eigenvalues --   -1.87703  -1.82865  -1.79186  -1.74210  -1.73911
 Alpha  occ. eigenvalues --   -1.70346  -1.66171  -1.62263  -1.61735  -1.56679
 Alpha  occ. eigenvalues --   -1.54709  -1.52843  -1.49642  -1.49168  -1.47183
 Alpha  occ. eigenvalues --   -1.44817  -1.44037  -1.40064  -1.39301  -1.36774
 Alpha  occ. eigenvalues --   -1.36560  -1.33669  -1.33266  -1.31745  -1.28878
 Alpha  occ. eigenvalues --   -1.28134  -1.25877  -1.21623  -1.20965  -1.18320
 Alpha  occ. eigenvalues --   -1.17189  -1.16089  -1.15372  -1.13688  -1.13259
 Alpha  occ. eigenvalues --   -1.11297  -1.10927  -1.10598  -1.05149  -1.04151
 Alpha  occ. eigenvalues --   -1.02593  -1.01503  -0.99633  -0.97485  -0.96504
 Alpha  occ. eigenvalues --   -0.96150  -0.94303  -0.93526  -0.92662  -0.92025
 Alpha  occ. eigenvalues --   -0.91830  -0.90559  -0.89981  -0.88213  -0.87919
 Alpha  occ. eigenvalues --   -0.85715  -0.83348  -0.82177  -0.81310  -0.80389
 Alpha  occ. eigenvalues --   -0.80351  -0.79170  -0.77447  -0.77270  -0.76517
 Alpha  occ. eigenvalues --   -0.75106  -0.75036  -0.74284  -0.74154  -0.73723
 Alpha  occ. eigenvalues --   -0.73633  -0.72292  -0.71779  -0.71038  -0.70378
 Alpha  occ. eigenvalues --   -0.70139  -0.68184  -0.68117  -0.67672  -0.67554
 Alpha  occ. eigenvalues --   -0.67271  -0.66964  -0.66344  -0.65685  -0.65163
 Alpha  occ. eigenvalues --   -0.65066  -0.64814  -0.64172  -0.63443  -0.63424
 Alpha  occ. eigenvalues --   -0.62947  -0.62645  -0.62576  -0.61986  -0.61550
 Alpha  occ. eigenvalues --   -0.61338  -0.61236  -0.60873  -0.60132  -0.59244
 Alpha  occ. eigenvalues --   -0.58824  -0.58582  -0.58447  -0.58184  -0.57762
 Alpha  occ. eigenvalues --   -0.57656  -0.57437  -0.56871  -0.56645  -0.56503
 Alpha  occ. eigenvalues --   -0.55935  -0.55755  -0.55391  -0.55049  -0.54607
 Alpha  occ. eigenvalues --   -0.54385  -0.54146  -0.54035  -0.53465  -0.53007
 Alpha  occ. eigenvalues --   -0.52825  -0.52499  -0.52140  -0.51782  -0.51378
 Alpha  occ. eigenvalues --   -0.51152  -0.50929  -0.50457  -0.50430  -0.50170
 Alpha  occ. eigenvalues --   -0.49953  -0.49832  -0.49494  -0.49313  -0.48957
 Alpha  occ. eigenvalues --   -0.48691  -0.48647  -0.48459  -0.48299  -0.47784
 Alpha  occ. eigenvalues --   -0.47711  -0.47201  -0.46421  -0.46206  -0.46115
 Alpha  occ. eigenvalues --   -0.46088  -0.45640  -0.45492  -0.45366  -0.45318
 Alpha  occ. eigenvalues --   -0.44700  -0.44448  -0.44235  -0.43608  -0.43437
 Alpha  occ. eigenvalues --   -0.43007  -0.42937  -0.42550  -0.42482  -0.42389
 Alpha  occ. eigenvalues --   -0.41707  -0.41654  -0.40961  -0.39132  -0.38779
 Alpha  occ. eigenvalues --   -0.37866  -0.36897  -0.35653  -0.35276  -0.34366
 Alpha  occ. eigenvalues --   -0.33892  -0.32496  -0.31945  -0.31843  -0.26679
 Alpha  occ. eigenvalues --   -0.21373
 Alpha virt. eigenvalues --   -0.07976  -0.02204  -0.00288   0.01349   0.01852
 Alpha virt. eigenvalues --    0.02739   0.02992   0.03110   0.05184   0.05233
 Alpha virt. eigenvalues --    0.06392   0.07295   0.07509   0.08314   0.08735

 Mulliken charges:
               1
     1  Mg   0.418587
     2  C   -0.043049
     3  C   -0.076716
     4  C   -0.061904
     5  C   -0.058996
     6  N   -0.297921
     7  C    0.084023
     8  C    0.016472
     9  C   -0.004799
    10  C    0.148093
    11  C   -0.051329
    12  C   -0.029352
    13  C    0.014074
    14  C    0.470273
    15  O   -0.493993
    16  O   -0.290110
    17  N   -0.348757
    18  C    0.117749
    19  C    0.006865
    20  C   -0.025975
    21  C    0.144394
    22  C   -0.048351
    23  C    0.320426
    24  O   -0.532164
    25  C   -0.028720
    26  N   -0.248533
    27  C    0.144207
    28  C   -0.002236
    29  C    0.005183
    30  C    0.097913
    31  C   -0.053814
    32  C   -0.033973
    33  C   -0.060383
    34  N   -0.314801
    35  C    0.093866
    36  C    0.018844
    37  C   -0.050536
    38  C    0.120246
    39  C   -0.041729
    40  C    0.351848
    41  O   -0.506323
    42  C    0.065937
    43  C    0.500191
    44  O   -0.527738
    45  O   -0.275909
    46  C    0.071229
    47  C    0.101444
    48  C   -0.091531
    49  C   -0.016491
    50  C   -0.047620
    51  C   -0.013912
    52  C   -0.034823
    53  C   -0.041714
    54  C   -0.015676
    55  C   -0.053897
    56  C   -0.049432
    57  C   -0.042111
    58  C   -0.037390
    59  C   -0.015302
    60  C   -0.048601
    61  C   -0.037483
    62  C   -0.034035
    63  C   -0.034788
    64  C   -0.012132
    65  C   -0.077325
    66  C   -0.053665
    67  H    0.031069
    68  H    0.050569
    69  H    0.019030
    70  H    0.044043
    71  H    0.031657
    72  H    0.025320
    73  H    0.017553
    74  H    0.023746
    75  H    0.034513
    76  H    0.021015
    77  H    0.042318
    78  H    0.031852
    79  H    0.026044
    80  H    0.033153
    81  H    0.020043
    82  H    0.040630
    83  H    0.045946
    84  H    0.033488
    85  H    0.029155
    86  H    0.041325
    87  H    0.026143
    88  H    0.025568
    89  H    0.028986
    90  H    0.021561
    91  H    0.027686
    92  H    0.026273
    93  H    0.020464
    94  H    0.019422
    95  H    0.017363
    96  H    0.031004
    97  H    0.032561
    98  H    0.052132
    99  H    0.054683
   100  H    0.040203
   101  H    0.024997
   102  H    0.026469
   103  H    0.057219
   104  H    0.038837
   105  H    0.028513
   106  H    0.032292
   107  H    0.028447
   108  H    0.023258
   109  H    0.014946
   110  H    0.013136
   111  H    0.032853
   112  H    0.017208
   113  H    0.030432
   114  H    0.023095
   115  H    0.021588
   116  H    0.022416
   117  H    0.021217
   118  H    0.024323
   119  H    0.014344
   120  H    0.015583
   121  H    0.023649
   122  H    0.020268
   123  H    0.016055
   124  H    0.012743
   125  H    0.014589
   126  H    0.016905
   127  H    0.016170
   128  H    0.024470
   129  H    0.011350
   130  H    0.026233
   131  H    0.023820
   132  H    0.009146
   133  H    0.029327
   134  H    0.025600
   135  H    0.018962
   136  H    0.014426
   137  H    0.019882
   138  H    0.020252
   139  H    0.017442
   140  H    0.015197
 Sum of Mulliken charges =  -0.00000

 Dipole moment (field-independent basis, Debye):
    X=             -3.0817    Y=              5.8286    Z=              2.4182  Tot=              7.0226
 N-N= 4.272631311372D+03 E-N= 0.000000000000D+00  KE=-9.220205250334D+03
 Leave Link  601 at Tue Apr 26 23:39:14 2022, MaxMem=  6710886400 cpu:               0.8 elap:               0.0
 (Enter /sw/apps/gaussian-16.0/g16/l9999.exe)
 1\1\GINC-BP1-COMPUTE163\SP\RZINDO CIS\STO-3G\C55H74Mg1N4O6\OF15641\26-
 Apr-2022\0\\#p ZINDO=(nstates=5)\\step_1001_chromophore_4 ZINDO\\0,1\M
 g,0,9.438,3.816,27.712\C,0,10.758,2.265,30.581\C,0,7.774,6.082,29.778\
 C,0,7.947,5.113,24.96\C,0,10.624,1.233,25.866\N,0,9.318,4.102,29.859\C
 ,0,9.964,3.424,30.936\C,0,9.516,3.986,32.288\C,0,8.6,5.167,31.9\C,0,8.
 519,5.097,30.388\C,0,7.176,5.057,32.559\C,0,10.649,4.361,33.284\C,0,10
 .491,5.51,34.278\C,0,10.852,5.165,35.671\O,0,10.071,4.659,36.398\O,0,1

 Normal termination of Gaussian 16 at Tue Apr 26 23:39:14 2022.
