 Gaussian 16, Revision A.03,
 Gaussian 16:  ES64L-G16RevA.03 25-Dec-2016

 ------------------------------
 #p blyp/Def2SVP td=(nstates=5)
 ------------------------------

 ---------------------------------------------------
 step_1351_chromophore_22 TDDFT with blyp functional
 ---------------------------------------------------
 Symbolic Z-matrix:
 Charge =  0 Multiplicity = 1

                         Standard orientation:
 ---------------------------------------------------------------------
 Center     Atomic      Atomic             Coordinates (Angstroms)
 Number     Number       Type             X           Y           Z
 ---------------------------------------------------------------------
      1         12           0        5.818910    0.527830   -0.166738
      2          6           0        3.878236   -2.271836   -0.127353
      3          6           0        3.593627    2.144004   -2.231791
      4          6           0        7.631515    3.200870    0.180574
      5          6           0        8.515504   -1.498034    1.081658
      6          7           0        3.978375   -0.070630   -1.140019
      7          6           0        3.350064   -1.324925   -0.957908
      8          6           0        2.063992   -1.312430   -1.758884
      9          6           0        2.142224    0.091345   -2.586714
     10          6           0        3.346104    0.763250   -1.978417
     11          6           0        2.237677   -0.114619   -4.099227
     12          6           0        0.787211   -1.580646   -0.866868
     13          6           0       -0.538578   -1.031644   -1.382213
     14          6           0       -1.769207   -1.456529   -0.449516
     15          8           0       -1.876864   -1.031835    0.726880
     16          8           0       -2.601461   -2.312558   -1.106836
     17          7           0        5.656814    2.404032   -0.963295
     18          6           0        4.598956    2.923705   -1.729871
     19          6           0        4.781115    4.394532   -1.847421
     20          6           0        6.071743    4.712410   -1.266350
     21          6           0        6.546567    3.452485   -0.679017
     22          6           0        3.692499    5.223504   -2.655737
     23          6           0        6.738635    6.109416   -1.106834
     24          8           0        7.861411    6.154970   -0.601994
     25          6           0        6.025783    7.334729   -1.530858
     26          7           0        8.007249    0.818075    0.205148
     27          6           0        8.315238    2.057897    0.537697
     28          6           0        9.601200    2.112520    1.439296
     29          6           0       10.003169    0.599567    1.583640
     30          6           0        8.748904   -0.060514    0.970818
     31          6           0       10.765949    2.979874    0.843578
     32          6           0       10.478687    0.187840    3.034085
     33          6           0       11.899977   -0.352757    3.180197
     34          7           0        6.175547   -1.469627    0.403739
     35          6           0        7.281758   -2.175327    0.896445
     36          6           0        6.894776   -3.571994    1.207636
     37          6           0        5.562784   -3.671277    0.793232
     38          6           0        5.141306   -2.339849    0.368045
     39          6           0        7.919328   -4.624216    1.729042
     40          6           0        4.394778   -4.570088    0.635033
     41          8           0        4.284538   -5.763110    0.978764
     42          6           0        3.228528   -3.728503    0.122411
     43          6           0        2.208751   -3.774647    1.184549
     44          8           0        1.871535   -2.861649    1.936040
     45          8           0        1.580389   -4.978944    1.062032
     46          6           0        0.293358   -5.229175    1.769287
     47          6           0       -3.785634   -2.749954   -0.506955
     48          6           0       -4.996274   -2.586848   -1.364671
     49          6           0       -6.269679   -3.119333   -1.299322
     50          6           0       -6.688582   -4.115611   -0.288376
     51          6           0       -7.352172   -2.740006   -2.312421
     52          6           0       -8.242181   -1.567172   -1.822349
     53          6           0       -9.434962   -1.423452   -2.749937
     54          6           0      -10.798432   -1.247871   -1.970038
     55          6           0      -11.954736   -1.763581   -2.831887
     56          6           0      -10.962211    0.167507   -1.337501
     57          6           0      -11.252021    0.271842    0.188722
     58          6           0      -12.750500   -0.031539    0.400088
     59          6           0      -13.522356    1.212172    0.862512
     60          6           0      -14.968275    1.234921    0.286594
     61          6           0      -13.579571    1.398076    2.338141
     62          6           0      -13.503132    2.907791    2.732421
     63          6           0      -12.162656    3.257706    3.391994
     64          6           0      -11.296392    4.335586    2.712019
     65          6           0       -9.811244    3.843110    2.708596
     66          6           0      -11.377716    5.716193    3.451388
     67          1           0        2.764105    2.585307   -2.788294
     68          1           0        8.161228    4.100788    0.500534
     69          1           0        9.257686   -1.985352    1.717852
     70          1           0        2.279352   -2.152904   -2.418340
     71          1           0        1.304026    0.753754   -2.368114
     72          1           0        1.352698    0.203068   -4.650306
     73          1           0        2.357418   -1.189204   -4.244236
     74          1           0        3.053804    0.436951   -4.565331
     75          1           0        1.086227   -1.208492    0.113983
     76          1           0        0.566928   -2.647704   -0.858423
     77          1           0       -0.714293   -1.477530   -2.360952
     78          1           0       -0.473908    0.054322   -1.444982
     79          1           0        2.769101    4.656676   -2.776143
     80          1           0        4.162180    5.504618   -3.598427
     81          1           0        3.462420    6.071744   -2.011643
     82          1           0        6.763274    8.119105   -1.700762
     83          1           0        5.319169    7.552155   -0.729789
     84          1           0        5.529267    7.147585   -2.483657
     85          1           0        9.309346    2.525264    2.405610
     86          1           0       10.801633    0.472270    0.851956
     87          1           0       11.711348    2.493407    0.599813
     88          1           0       10.980250    3.775449    1.557048
     89          1           0       10.436583    3.425027   -0.094447
     90          1           0        9.803487   -0.603202    3.358409
     91          1           0       10.228483    0.977976    3.743140
     92          1           0       11.799070   -1.320463    3.670933
     93          1           0       12.482171    0.337757    3.790484
     94          1           0       12.400917   -0.466529    2.218381
     95          1           0        7.426955   -5.541011    2.052079
     96          1           0        8.377470   -4.220999    2.632234
     97          1           0        8.759664   -4.794253    1.055012
     98          1           0        2.875289   -4.257891   -0.762555
     99          1           0       -0.557642   -5.464781    1.129420
    100          1           0       -0.044528   -4.475048    2.480361
    101          1           0        0.448962   -6.081517    2.429728
    102          1           0       -4.106591   -2.498682    0.504234
    103          1           0       -3.613307   -3.822394   -0.412192
    104          1           0       -4.781076   -1.935291   -2.211952
    105          1           0       -5.869219   -4.828977   -0.208041
    106          1           0       -7.527430   -4.694023   -0.676474
    107          1           0       -6.912463   -3.594456    0.642163
    108          1           0       -7.957245   -3.615536   -2.548954
    109          1           0       -6.866001   -2.298990   -3.182856
    110          1           0       -7.676463   -0.636147   -1.818763
    111          1           0       -8.489727   -1.755449   -0.777451
    112          1           0       -9.454809   -2.296722   -3.402266
    113          1           0       -9.272041   -0.497088   -3.300682
    114          1           0      -10.763609   -1.945518   -1.133248
    115          1           0      -11.661427   -1.711209   -3.880305
    116          1           0      -12.890030   -1.210566   -2.746877
    117          1           0      -12.226369   -2.798195   -2.618999
    118          1           0      -11.728584    0.765085   -1.829427
    119          1           0      -10.017696    0.671440   -1.540620
    120          1           0      -10.935460    1.273839    0.479475
    121          1           0      -10.697055   -0.435555    0.805364
    122          1           0      -12.900099   -0.817001    1.140455
    123          1           0      -13.216590   -0.425475   -0.503946
    124          1           0      -13.137294    2.137142    0.433510
    125          1           0      -15.029080    1.819048   -0.630917
    126          1           0      -15.681759    1.617711    1.015497
    127          1           0      -15.347351    0.297591   -0.120516
    128          1           0      -12.733364    0.813531    2.700018
    129          1           0      -14.492298    1.007769    2.786820
    130          1           0      -14.269810    3.122266    3.477652
    131          1           0      -13.691409    3.653467    1.960124
    132          1           0      -11.504796    2.390085    3.424900
    133          1           0      -12.342810    3.623151    4.403775
    134          1           0      -11.684979    4.434754    1.698996
    135          1           0       -9.768851    2.892537    2.178478
    136          1           0       -9.341874    3.623395    3.667316
    137          1           0       -9.294354    4.617230    2.139909
    138          1           0      -11.859761    5.770397    4.427476
    139          1           0      -11.907606    6.376674    2.765068
    140          1           0      -10.439266    6.251080    3.597856
 ---------------------------------------------------------------------

 SCF Done:  E(RB-LYP) =  -3007.37336010     A.U. after   21 cycles

 Excitation energies and oscillator strengths:

 Excited State   1:      Singlet-A      1.7512 eV  708.01 nm  f=0.2923  <S**2>=0.000
     245 -> 248       -0.18542
     246 -> 247        0.68922
     246 <- 247       -0.15368
 This state for optimization and/or second-order correction.
 Total Energy, E(TD-HF/TD-DFT) =  -3007.30900580
 Copying the excited state density for this state as the 1-particle RhoCI density.

 Excited State   2:      Singlet-A      1.9329 eV  641.46 nm  f=0.0358  <S**2>=0.000
     244 -> 247        0.39322
     245 -> 247        0.54480
     246 -> 248        0.18123

 Excited State   3:      Singlet-A      2.0517 eV  604.29 nm  f=0.0176  <S**2>=0.000
     243 -> 247        0.16204
     244 -> 247        0.57464
     245 -> 247       -0.31864
     246 -> 248       -0.19021

 Excited State   4:      Singlet-A      2.1708 eV  571.14 nm  f=0.0036  <S**2>=0.000
     243 -> 247        0.67876
     245 -> 247        0.11925
     246 -> 248        0.12090

 Excited State   5:      Singlet-A      2.2361 eV  554.45 nm  f=0.0000  <S**2>=0.000
     242 -> 247        0.70710

 The electronic state is 1-A.
 Alpha  occ. eigenvalues --  -46.27125 -18.84222 -18.81772 -18.77107 -18.76390
 Alpha  occ. eigenvalues --  -18.75842 -18.75416 -14.02982 -14.02560 -14.00867
 Alpha  occ. eigenvalues --  -14.00774 -10.05162 -10.03808 -10.00346  -9.99713
 Alpha  occ. eigenvalues --   -9.98564  -9.97595  -9.96701  -9.96415  -9.96323
 Alpha  occ. eigenvalues --   -9.96068  -9.95757  -9.95689  -9.95491  -9.94817
 Alpha  occ. eigenvalues --   -9.94471  -9.94411  -9.94358  -9.94217  -9.94075
 Alpha  occ. eigenvalues --   -9.93996  -9.93939  -9.93496  -9.93478  -9.93469
 Alpha  occ. eigenvalues --   -9.93412  -9.93040  -9.92991  -9.92857  -9.92743
 Alpha  occ. eigenvalues --   -9.92656  -9.92531  -9.92504  -9.92476  -9.92373
 Alpha  occ. eigenvalues --   -9.92244  -9.92114  -9.92049  -9.92023  -9.91829
 Alpha  occ. eigenvalues --   -9.91697  -9.91520  -9.91479  -9.91454  -9.91448
 Alpha  occ. eigenvalues --   -9.91402  -9.91265  -9.91125  -9.90945  -9.90914
 Alpha  occ. eigenvalues --   -9.90818  -9.90785  -9.90694  -9.90599  -9.90271
 Alpha  occ. eigenvalues --   -9.90172  -2.91691  -1.72104  -1.71584  -1.71401
 Alpha  occ. eigenvalues --   -0.99564  -0.96954  -0.91398  -0.89931  -0.89631
 Alpha  occ. eigenvalues --   -0.89071  -0.86065  -0.85468  -0.84554  -0.83254
 Alpha  occ. eigenvalues --   -0.75159  -0.73918  -0.73383  -0.72348  -0.71894
 Alpha  occ. eigenvalues --   -0.71734  -0.71292  -0.70895  -0.70222  -0.69472
 Alpha  occ. eigenvalues --   -0.69327  -0.69086  -0.68273  -0.67647  -0.67201
 Alpha  occ. eigenvalues --   -0.66682  -0.66176  -0.65744  -0.64986  -0.64864
 Alpha  occ. eigenvalues --   -0.64306  -0.62480  -0.62271  -0.61594  -0.60733
 Alpha  occ. eigenvalues --   -0.60522  -0.59890  -0.59632  -0.59442  -0.58982
 Alpha  occ. eigenvalues --   -0.58457  -0.57251  -0.56875  -0.55205  -0.54327
 Alpha  occ. eigenvalues --   -0.53994  -0.53556  -0.52794  -0.52097  -0.51805
 Alpha  occ. eigenvalues --   -0.51384  -0.51078  -0.50758  -0.50450  -0.49949
 Alpha  occ. eigenvalues --   -0.49806  -0.49196  -0.48596  -0.48326  -0.46964
 Alpha  occ. eigenvalues --   -0.46041  -0.45672  -0.45326  -0.44894  -0.44362
 Alpha  occ. eigenvalues --   -0.43942  -0.43679  -0.42855  -0.42400  -0.42350
 Alpha  occ. eigenvalues --   -0.42150  -0.42043  -0.41582  -0.41317  -0.41141
 Alpha  occ. eigenvalues --   -0.40550  -0.40372  -0.40248  -0.40003  -0.39814
 Alpha  occ. eigenvalues --   -0.39726  -0.39532  -0.39451  -0.39396  -0.39183
 Alpha  occ. eigenvalues --   -0.38790  -0.38525  -0.38406  -0.38180  -0.38036
 Alpha  occ. eigenvalues --   -0.37700  -0.37492  -0.37436  -0.37331  -0.37205
 Alpha  occ. eigenvalues --   -0.37195  -0.36790  -0.36744  -0.36583  -0.36268
 Alpha  occ. eigenvalues --   -0.36104  -0.36012  -0.35869  -0.35611  -0.35337
 Alpha  occ. eigenvalues --   -0.35316  -0.35291  -0.34892  -0.34647  -0.34564
 Alpha  occ. eigenvalues --   -0.34338  -0.34258  -0.34205  -0.34049  -0.33872
 Alpha  occ. eigenvalues --   -0.33483  -0.33271  -0.33083  -0.32920  -0.32778
 Alpha  occ. eigenvalues --   -0.32549  -0.32440  -0.32294  -0.32157  -0.31931
 Alpha  occ. eigenvalues --   -0.31799  -0.31586  -0.31479  -0.31431  -0.31370
 Alpha  occ. eigenvalues --   -0.31282  -0.31207  -0.30991  -0.30864  -0.30680
 Alpha  occ. eigenvalues --   -0.30530  -0.30416  -0.30227  -0.30142  -0.29921
 Alpha  occ. eigenvalues --   -0.29818  -0.29631  -0.29224  -0.29212  -0.29080
 Alpha  occ. eigenvalues --   -0.28930  -0.28519  -0.28067  -0.27968  -0.27631
 Alpha  occ. eigenvalues --   -0.27316  -0.26687  -0.26667  -0.26580  -0.26405
 Alpha  occ. eigenvalues --   -0.26320  -0.26281  -0.25956  -0.25419  -0.25134
 Alpha  occ. eigenvalues --   -0.24775  -0.24488  -0.24434  -0.24327  -0.23813
 Alpha  occ. eigenvalues --   -0.22907  -0.22018  -0.21688  -0.21654  -0.20855
 Alpha  occ. eigenvalues --   -0.20290  -0.19410  -0.19028  -0.18443  -0.17148
 Alpha  occ. eigenvalues --   -0.15281
 Alpha virt. eigenvalues --   -0.11192  -0.06916  -0.06497  -0.04985  -0.03654
 Alpha virt. eigenvalues --   -0.02547  -0.02177  -0.02114  -0.01672   0.00616
 Alpha virt. eigenvalues --    0.01321   0.01850   0.02358   0.02554   0.02613

 Mulliken charges:
               1
     1  Mg   0.673423
     2  C    0.033874
     3  C   -0.074295
     4  C   -0.031116
     5  C   -0.032153
     6  N   -0.238061
     7  C   -0.119696
     8  C    0.091105
     9  C   -0.029824
    10  C    0.014287
    11  C    0.138669
    12  C    0.083608
    13  C    0.142369
    14  C    0.095986
    15  O   -0.210576
    16  O   -0.223063
    17  N   -0.341254
    18  C    0.196125
    19  C   -0.171894
    20  C    0.030280
    21  C    0.126832
    22  C    0.154422
    23  C   -0.086334
    24  O   -0.169257
    25  C    0.153851
    26  N   -0.177679
    27  C   -0.007548
    28  C   -0.028605
    29  C    0.075032
    30  C   -0.035076
    31  C    0.114237
    32  C    0.086884
    33  C    0.076140
    34  N   -0.261880
    35  C    0.086397
    36  C   -0.170547
    37  C    0.083753
    38  C    0.108443
    39  C    0.166363
    40  C   -0.063622
    41  O   -0.150493
    42  C    0.026392
    43  C    0.142247
    44  O   -0.175458
    45  O   -0.266689
    46  C    0.208213
    47  C    0.340053
    48  C   -0.122986
    49  C   -0.188498
    50  C    0.163752
    51  C    0.123925
    52  C    0.056549
    53  C    0.115091
    54  C   -0.056434
    55  C    0.105816
    56  C    0.096175
    57  C    0.074108
    58  C    0.122942
    59  C   -0.087510
    60  C    0.089161
    61  C    0.136407
    62  C    0.084289
    63  C    0.106829
    64  C   -0.095777
    65  C    0.083749
    66  C    0.095320
    67  H   -0.068239
    68  H   -0.044224
    69  H   -0.055491
    70  H   -0.031958
    71  H   -0.020283
    72  H   -0.013319
    73  H   -0.014340
    74  H   -0.004830
    75  H    0.022024
    76  H   -0.012791
    77  H   -0.023204
    78  H    0.001084
    79  H   -0.004610
    80  H    0.030179
    81  H    0.003435
    82  H    0.000614
    83  H    0.028467
    84  H   -0.004589
    85  H   -0.017430
    86  H   -0.016479
    87  H   -0.011318
    88  H   -0.007479
    89  H    0.004227
    90  H   -0.031077
    91  H   -0.028859
    92  H   -0.003905
    93  H   -0.002603
    94  H   -0.004732
    95  H    0.008077
    96  H   -0.012978
    97  H    0.007963
    98  H    0.011643
    99  H    0.016076
   100  H    0.022063
   101  H    0.012604
   102  H    0.009365
   103  H   -0.021818
   104  H   -0.045003
   105  H   -0.008336
   106  H   -0.018952
   107  H    0.019063
   108  H   -0.021606
   109  H   -0.031967
   110  H   -0.030613
   111  H   -0.032687
   112  H   -0.028304
   113  H   -0.026269
   114  H   -0.043942
   115  H   -0.023324
   116  H   -0.019434
   117  H   -0.018840
   118  H   -0.034398
   119  H   -0.048449
   120  H   -0.010169
   121  H   -0.030450
   122  H   -0.042657
   123  H   -0.036847
   124  H   -0.037501
   125  H   -0.031544
   126  H   -0.019113
   127  H   -0.027547
   128  H   -0.034397
   129  H   -0.034648
   130  H   -0.046287
   131  H   -0.027930
   132  H   -0.043292
   133  H   -0.038376
   134  H   -0.033470
   135  H   -0.020018
   136  H   -0.005936
   137  H   -0.013073
   138  H   -0.012423
   139  H   -0.024228
   140  H   -0.025069
 Sum of Mulliken charges =  -0.00000

 Dipole moment (field-independent basis, Debye):
    X=             -2.9678    Y=              1.4742    Z=             -2.5254  Tot=              4.1664
 Quadrupole moment (field-independent basis, Debye-Ang):
   XX=           -388.7046   YY=           -413.7819   ZZ=           -398.5626
   XY=             10.3048   XZ=             11.4517   YZ=             -2.9030

 Normal termination of Gaussian 16 at Wed May  4 04:47:36 2022.
