 Gaussian 16, Revision A.03,
 Gaussian 16:  ES64L-G16RevA.03 25-Dec-2016

 -----------------------------------
 #p cam-b3lyp/Def2SVP td=(nstates=5)
 -----------------------------------

 --------------------------------------------------------
 step_1351_chromophore_22 TDDFT with cam-b3lyp functional
 --------------------------------------------------------
 Symbolic Z-matrix:
 Charge =  0 Multiplicity = 1

                         Standard orientation:
 ---------------------------------------------------------------------
 Center     Atomic      Atomic             Coordinates (Angstroms)
 Number     Number       Type             X           Y           Z
 ---------------------------------------------------------------------
      1         12           0        5.818910    0.527830   -0.166738
      2          6           0        3.878236   -2.271836   -0.127353
      3          6           0        3.593627    2.144004   -2.231791
      4          6           0        7.631515    3.200870    0.180574
      5          6           0        8.515504   -1.498034    1.081658
      6          7           0        3.978375   -0.070630   -1.140019
      7          6           0        3.350064   -1.324925   -0.957908
      8          6           0        2.063992   -1.312430   -1.758884
      9          6           0        2.142224    0.091345   -2.586714
     10          6           0        3.346104    0.763250   -1.978417
     11          6           0        2.237677   -0.114619   -4.099227
     12          6           0        0.787211   -1.580646   -0.866868
     13          6           0       -0.538578   -1.031644   -1.382213
     14          6           0       -1.769207   -1.456529   -0.449516
     15          8           0       -1.876864   -1.031835    0.726880
     16          8           0       -2.601461   -2.312558   -1.106836
     17          7           0        5.656814    2.404032   -0.963295
     18          6           0        4.598956    2.923705   -1.729871
     19          6           0        4.781115    4.394532   -1.847421
     20          6           0        6.071743    4.712410   -1.266350
     21          6           0        6.546567    3.452485   -0.679017
     22          6           0        3.692499    5.223504   -2.655737
     23          6           0        6.738635    6.109416   -1.106834
     24          8           0        7.861411    6.154970   -0.601994
     25          6           0        6.025783    7.334729   -1.530858
     26          7           0        8.007249    0.818075    0.205148
     27          6           0        8.315238    2.057897    0.537697
     28          6           0        9.601200    2.112520    1.439296
     29          6           0       10.003169    0.599567    1.583640
     30          6           0        8.748904   -0.060514    0.970818
     31          6           0       10.765949    2.979874    0.843578
     32          6           0       10.478687    0.187840    3.034085
     33          6           0       11.899977   -0.352757    3.180197
     34          7           0        6.175547   -1.469627    0.403739
     35          6           0        7.281758   -2.175327    0.896445
     36          6           0        6.894776   -3.571994    1.207636
     37          6           0        5.562784   -3.671277    0.793232
     38          6           0        5.141306   -2.339849    0.368045
     39          6           0        7.919328   -4.624216    1.729042
     40          6           0        4.394778   -4.570088    0.635033
     41          8           0        4.284538   -5.763110    0.978764
     42          6           0        3.228528   -3.728503    0.122411
     43          6           0        2.208751   -3.774647    1.184549
     44          8           0        1.871535   -2.861649    1.936040
     45          8           0        1.580389   -4.978944    1.062032
     46          6           0        0.293358   -5.229175    1.769287
     47          6           0       -3.785634   -2.749954   -0.506955
     48          6           0       -4.996274   -2.586848   -1.364671
     49          6           0       -6.269679   -3.119333   -1.299322
     50          6           0       -6.688582   -4.115611   -0.288376
     51          6           0       -7.352172   -2.740006   -2.312421
     52          6           0       -8.242181   -1.567172   -1.822349
     53          6           0       -9.434962   -1.423452   -2.749937
     54          6           0      -10.798432   -1.247871   -1.970038
     55          6           0      -11.954736   -1.763581   -2.831887
     56          6           0      -10.962211    0.167507   -1.337501
     57          6           0      -11.252021    0.271842    0.188722
     58          6           0      -12.750500   -0.031539    0.400088
     59          6           0      -13.522356    1.212172    0.862512
     60          6           0      -14.968275    1.234921    0.286594
     61          6           0      -13.579571    1.398076    2.338141
     62          6           0      -13.503132    2.907791    2.732421
     63          6           0      -12.162656    3.257706    3.391994
     64          6           0      -11.296392    4.335586    2.712019
     65          6           0       -9.811244    3.843110    2.708596
     66          6           0      -11.377716    5.716193    3.451388
     67          1           0        2.764105    2.585307   -2.788294
     68          1           0        8.161228    4.100788    0.500534
     69          1           0        9.257686   -1.985352    1.717852
     70          1           0        2.279352   -2.152904   -2.418340
     71          1           0        1.304026    0.753754   -2.368114
     72          1           0        1.352698    0.203068   -4.650306
     73          1           0        2.357418   -1.189204   -4.244236
     74          1           0        3.053804    0.436951   -4.565331
     75          1           0        1.086227   -1.208492    0.113983
     76          1           0        0.566928   -2.647704   -0.858423
     77          1           0       -0.714293   -1.477530   -2.360952
     78          1           0       -0.473908    0.054322   -1.444982
     79          1           0        2.769101    4.656676   -2.776143
     80          1           0        4.162180    5.504618   -3.598427
     81          1           0        3.462420    6.071744   -2.011643
     82          1           0        6.763274    8.119105   -1.700762
     83          1           0        5.319169    7.552155   -0.729789
     84          1           0        5.529267    7.147585   -2.483657
     85          1           0        9.309346    2.525264    2.405610
     86          1           0       10.801633    0.472270    0.851956
     87          1           0       11.711348    2.493407    0.599813
     88          1           0       10.980250    3.775449    1.557048
     89          1           0       10.436583    3.425027   -0.094447
     90          1           0        9.803487   -0.603202    3.358409
     91          1           0       10.228483    0.977976    3.743140
     92          1           0       11.799070   -1.320463    3.670933
     93          1           0       12.482171    0.337757    3.790484
     94          1           0       12.400917   -0.466529    2.218381
     95          1           0        7.426955   -5.541011    2.052079
     96          1           0        8.377470   -4.220999    2.632234
     97          1           0        8.759664   -4.794253    1.055012
     98          1           0        2.875289   -4.257891   -0.762555
     99          1           0       -0.557642   -5.464781    1.129420
    100          1           0       -0.044528   -4.475048    2.480361
    101          1           0        0.448962   -6.081517    2.429728
    102          1           0       -4.106591   -2.498682    0.504234
    103          1           0       -3.613307   -3.822394   -0.412192
    104          1           0       -4.781076   -1.935291   -2.211952
    105          1           0       -5.869219   -4.828977   -0.208041
    106          1           0       -7.527430   -4.694023   -0.676474
    107          1           0       -6.912463   -3.594456    0.642163
    108          1           0       -7.957245   -3.615536   -2.548954
    109          1           0       -6.866001   -2.298990   -3.182856
    110          1           0       -7.676463   -0.636147   -1.818763
    111          1           0       -8.489727   -1.755449   -0.777451
    112          1           0       -9.454809   -2.296722   -3.402266
    113          1           0       -9.272041   -0.497088   -3.300682
    114          1           0      -10.763609   -1.945518   -1.133248
    115          1           0      -11.661427   -1.711209   -3.880305
    116          1           0      -12.890030   -1.210566   -2.746877
    117          1           0      -12.226369   -2.798195   -2.618999
    118          1           0      -11.728584    0.765085   -1.829427
    119          1           0      -10.017696    0.671440   -1.540620
    120          1           0      -10.935460    1.273839    0.479475
    121          1           0      -10.697055   -0.435555    0.805364
    122          1           0      -12.900099   -0.817001    1.140455
    123          1           0      -13.216590   -0.425475   -0.503946
    124          1           0      -13.137294    2.137142    0.433510
    125          1           0      -15.029080    1.819048   -0.630917
    126          1           0      -15.681759    1.617711    1.015497
    127          1           0      -15.347351    0.297591   -0.120516
    128          1           0      -12.733364    0.813531    2.700018
    129          1           0      -14.492298    1.007769    2.786820
    130          1           0      -14.269810    3.122266    3.477652
    131          1           0      -13.691409    3.653467    1.960124
    132          1           0      -11.504796    2.390085    3.424900
    133          1           0      -12.342810    3.623151    4.403775
    134          1           0      -11.684979    4.434754    1.698996
    135          1           0       -9.768851    2.892537    2.178478
    136          1           0       -9.341874    3.623395    3.667316
    137          1           0       -9.294354    4.617230    2.139909
    138          1           0      -11.859761    5.770397    4.427476
    139          1           0      -11.907606    6.376674    2.765068
    140          1           0      -10.439266    6.251080    3.597856
 ---------------------------------------------------------------------

 SCF Done:  E(RCAM-B3LYP) =  -3007.15448264     A.U. after   18 cycles

 Excitation energies and oscillator strengths:

 Excited State   1:      Singlet-A      1.6604 eV  746.72 nm  f=0.3766  <S**2>=0.000
     245 -> 248        0.18252
     246 -> 247        0.68532
     245 <- 248        0.10983
 This state for optimization and/or second-order correction.
 Total Energy, E(TD-HF/TD-DFT) =  -3007.09346457
 Copying the excited state density for this state as the 1-particle RhoCI density.

 Excited State   2:      Singlet-A      2.2513 eV  550.72 nm  f=0.0442  <S**2>=0.000
     245 -> 247        0.60467
     246 -> 248       -0.35493

 Excited State   3:      Singlet-A      3.3247 eV  372.92 nm  f=0.5376  <S**2>=0.000
     241 -> 247        0.19516
     242 -> 247       -0.14684
     243 -> 247       -0.18291
     245 -> 247        0.29877
     246 -> 248        0.55602
     245 <- 247       -0.10156

 Excited State   4:      Singlet-A      3.4823 eV  356.04 nm  f=0.0197  <S**2>=0.000
     240 -> 247       -0.10731
     241 -> 247        0.22997
     241 -> 249        0.27006
     241 -> 250       -0.13546
     242 -> 247        0.37784
     242 -> 249        0.14755
     243 -> 247        0.35306

 Excited State   5:      Singlet-A      3.5497 eV  349.28 nm  f=0.1542  <S**2>=0.000
     241 -> 247       -0.27677
     241 -> 249       -0.13846
     242 -> 247       -0.10775
     242 -> 249       -0.16297
     243 -> 247        0.51471
     245 -> 247        0.14356
     246 -> 248        0.19946

 The electronic state is 1-A.
 Alpha  occ. eigenvalues --  -46.88637 -19.27087 -19.24623 -19.20069 -19.19381
 Alpha  occ. eigenvalues --  -19.19312 -19.18503 -14.41912 -14.41291 -14.39301
 Alpha  occ. eigenvalues --  -14.39196 -10.40592 -10.39209 -10.35795 -10.34949
 Alpha  occ. eigenvalues --  -10.32428 -10.31557 -10.31054 -10.30976 -10.30770
 Alpha  occ. eigenvalues --  -10.30631 -10.30259 -10.30119 -10.29912 -10.29679
 Alpha  occ. eigenvalues --  -10.28648 -10.28529 -10.28427 -10.28302 -10.28295
 Alpha  occ. eigenvalues --  -10.28263 -10.28223 -10.28024 -10.27692 -10.27362
 Alpha  occ. eigenvalues --  -10.27343 -10.27142 -10.26965 -10.26948 -10.26889
 Alpha  occ. eigenvalues --  -10.26831 -10.26231 -10.26176 -10.26121 -10.26026
 Alpha  occ. eigenvalues --  -10.25980 -10.25966 -10.25853 -10.25781 -10.25667
 Alpha  occ. eigenvalues --  -10.25374 -10.25248 -10.25185 -10.25139 -10.25123
 Alpha  occ. eigenvalues --  -10.25100 -10.25081 -10.24786 -10.24584 -10.24568
 Alpha  occ. eigenvalues --  -10.24422 -10.24382 -10.24314 -10.24202 -10.23868
 Alpha  occ. eigenvalues --  -10.23808  -3.17104  -1.91995  -1.91564  -1.91407
 Alpha  occ. eigenvalues --   -1.17932  -1.15401  -1.10031  -1.08157  -1.07552
 Alpha  occ. eigenvalues --   -1.06901  -1.03696  -1.03129  -1.01955  -1.00860
 Alpha  occ. eigenvalues --   -0.92167  -0.90794  -0.90208  -0.89077  -0.88589
 Alpha  occ. eigenvalues --   -0.88434  -0.87893  -0.87472  -0.86835  -0.86099
 Alpha  occ. eigenvalues --   -0.85688  -0.85469  -0.84570  -0.83780  -0.83271
 Alpha  occ. eigenvalues --   -0.82773  -0.82496  -0.81680  -0.80903  -0.80612
 Alpha  occ. eigenvalues --   -0.80152  -0.78232  -0.77942  -0.77073  -0.76072
 Alpha  occ. eigenvalues --   -0.75872  -0.75234  -0.74900  -0.74705  -0.74207
 Alpha  occ. eigenvalues --   -0.73445  -0.72179  -0.71790  -0.69990  -0.68860
 Alpha  occ. eigenvalues --   -0.68566  -0.68124  -0.67148  -0.66549  -0.66130
 Alpha  occ. eigenvalues --   -0.65481  -0.65106  -0.64796  -0.64304  -0.63952
 Alpha  occ. eigenvalues --   -0.63831  -0.63139  -0.62473  -0.61889  -0.60495
 Alpha  occ. eigenvalues --   -0.59759  -0.59143  -0.58960  -0.58417  -0.57709
 Alpha  occ. eigenvalues --   -0.57178  -0.57034  -0.56064  -0.55561  -0.55467
 Alpha  occ. eigenvalues --   -0.55220  -0.55164  -0.54612  -0.54214  -0.54044
 Alpha  occ. eigenvalues --   -0.53579  -0.53375  -0.53232  -0.52687  -0.52618
 Alpha  occ. eigenvalues --   -0.52331  -0.52269  -0.52074  -0.51827  -0.51527
 Alpha  occ. eigenvalues --   -0.51280  -0.51081  -0.50927  -0.50461  -0.50307
 Alpha  occ. eigenvalues --   -0.50191  -0.50042  -0.49866  -0.49638  -0.49500
 Alpha  occ. eigenvalues --   -0.49445  -0.49363  -0.48980  -0.48963  -0.48759
 Alpha  occ. eigenvalues --   -0.48472  -0.48264  -0.48008  -0.47751  -0.47627
 Alpha  occ. eigenvalues --   -0.47294  -0.47198  -0.47007  -0.46585  -0.46378
 Alpha  occ. eigenvalues --   -0.46140  -0.46047  -0.46018  -0.45893  -0.45725
 Alpha  occ. eigenvalues --   -0.45234  -0.44966  -0.44857  -0.44624  -0.44422
 Alpha  occ. eigenvalues --   -0.44278  -0.44078  -0.43917  -0.43826  -0.43700
 Alpha  occ. eigenvalues --   -0.43578  -0.43255  -0.43093  -0.42974  -0.42935
 Alpha  occ. eigenvalues --   -0.42663  -0.42612  -0.42445  -0.42398  -0.42190
 Alpha  occ. eigenvalues --   -0.42074  -0.41660  -0.41523  -0.41476  -0.41132
 Alpha  occ. eigenvalues --   -0.41089  -0.40971  -0.40744  -0.40569  -0.40219
 Alpha  occ. eigenvalues --   -0.40155  -0.39598  -0.38990  -0.38924  -0.38555
 Alpha  occ. eigenvalues --   -0.38098  -0.37751  -0.37575  -0.37515  -0.37385
 Alpha  occ. eigenvalues --   -0.37067  -0.36945  -0.36654  -0.36309  -0.36183
 Alpha  occ. eigenvalues --   -0.35759  -0.35565  -0.34961  -0.34792  -0.34046
 Alpha  occ. eigenvalues --   -0.33868  -0.33631  -0.33121  -0.31580  -0.31237
 Alpha  occ. eigenvalues --   -0.30427  -0.30073  -0.29597  -0.28881  -0.24128
 Alpha  occ. eigenvalues --   -0.20343
 Alpha virt. eigenvalues --   -0.08113  -0.01856   0.00012   0.01857   0.02872
 Alpha virt. eigenvalues --    0.04236   0.05204   0.05315   0.05672   0.07090
 Alpha virt. eigenvalues --    0.08233   0.08483   0.08621   0.08706   0.09057

 Mulliken charges:
               1
     1  Mg   0.805395
     2  C    0.006057
     3  C   -0.091812
     4  C   -0.058001
     5  C   -0.036607
     6  N   -0.309335
     7  C   -0.073140
     8  C    0.041006
     9  C   -0.090088
    10  C    0.043256
    11  C    0.080485
    12  C    0.026805
    13  C    0.075390
    14  C    0.176532
    15  O   -0.250960
    16  O   -0.288732
    17  N   -0.429223
    18  C    0.201417
    19  C   -0.171446
    20  C   -0.036285
    21  C    0.155664
    22  C    0.102764
    23  C   -0.004383
    24  O   -0.208159
    25  C    0.071015
    26  N   -0.245138
    27  C    0.016617
    28  C   -0.079117
    29  C    0.016779
    30  C   -0.013172
    31  C    0.055902
    32  C    0.027962
    33  C    0.014579
    34  N   -0.347195
    35  C    0.087999
    36  C   -0.168082
    37  C    0.004470
    38  C    0.140708
    39  C    0.117010
    40  C    0.037755
    41  O   -0.187956
    42  C   -0.052795
    43  C    0.230608
    44  O   -0.214305
    45  O   -0.330825
    46  C    0.173802
    47  C    0.303880
    48  C   -0.142712
    49  C   -0.209332
    50  C    0.098095
    51  C    0.064007
    52  C    0.010141
    53  C    0.056740
    54  C   -0.111096
    55  C    0.046384
    56  C    0.043217
    57  C    0.025153
    58  C    0.065835
    59  C   -0.139000
    60  C    0.033343
    61  C    0.077333
    62  C    0.025932
    63  C    0.055081
    64  C   -0.153645
    65  C    0.027257
    66  C    0.034450
    67  H   -0.033533
    68  H   -0.006574
    69  H   -0.025114
    70  H    0.003341
    71  H    0.011922
    72  H    0.011658
    73  H    0.011379
    74  H    0.021939
    75  H    0.055236
    76  H    0.013146
    77  H    0.011831
    78  H    0.030839
    79  H    0.023258
    80  H    0.055121
    81  H    0.029042
    82  H    0.035717
    83  H    0.055855
    84  H    0.023410
    85  H    0.015960
    86  H    0.016695
    87  H    0.013553
    88  H    0.016663
    89  H    0.029487
    90  H   -0.000817
    91  H    0.000692
    92  H    0.018899
    93  H    0.020358
    94  H    0.017963
    95  H    0.034947
    96  H    0.010395
    97  H    0.032798
    98  H    0.053894
    99  H    0.035321
   100  H    0.047793
   101  H    0.034950
   102  H    0.040943
   103  H    0.005318
   104  H   -0.011173
   105  H    0.016368
   106  H    0.007469
   107  H    0.042215
   108  H    0.006503
   109  H   -0.001436
   110  H   -0.002278
   111  H   -0.007353
   112  H    0.001153
   113  H    0.002155
   114  H   -0.012148
   115  H    0.001520
   116  H    0.003670
   117  H    0.006252
   118  H   -0.006434
   119  H   -0.018459
   120  H    0.012462
   121  H   -0.003158
   122  H   -0.011828
   123  H   -0.010436
   124  H   -0.006973
   125  H   -0.006754
   126  H    0.004693
   127  H   -0.002969
   128  H   -0.005942
   129  H   -0.003996
   130  H   -0.014189
   131  H   -0.001335
   132  H   -0.014719
   133  H   -0.009306
   134  H   -0.003348
   135  H    0.000573
   136  H    0.018162
   137  H    0.010988
   138  H    0.011372
   139  H   -0.000183
   140  H    0.000295
 Sum of Mulliken charges =  -0.00000

 Dipole moment (field-independent basis, Debye):
    X=             -3.2074    Y=              2.3925    Z=             -2.9565  Tot=              4.9752
 Quadrupole moment (field-independent basis, Debye-Ang):
   XX=           -389.4363   YY=           -408.6074   ZZ=           -397.3923
   XY=             15.1975   XZ=             11.1047   YZ=             -4.6857

 Normal termination of Gaussian 16 at Wed May  4 03:49:14 2022.
