 Gaussian 16, Revision A.03,
 Gaussian 16:  ES64L-G16RevA.03 25-Dec-2016

 ---------------------------------
 #p PBE1PBE/Def2SVP td=(nstates=5)
 ---------------------------------

 ------------------------------------------------------
 step_1351_chromophore_22 TDDFT with PBE1PBE functional
 ------------------------------------------------------
 Symbolic Z-matrix:
 Charge =  0 Multiplicity = 1

                         Standard orientation:
 ---------------------------------------------------------------------
 Center     Atomic      Atomic             Coordinates (Angstroms)
 Number     Number       Type             X           Y           Z
 ---------------------------------------------------------------------
      1         12           0        5.818910    0.527830   -0.166738
      2          6           0        3.878236   -2.271836   -0.127353
      3          6           0        3.593627    2.144004   -2.231791
      4          6           0        7.631515    3.200870    0.180574
      5          6           0        8.515504   -1.498034    1.081658
      6          7           0        3.978375   -0.070630   -1.140019
      7          6           0        3.350064   -1.324925   -0.957908
      8          6           0        2.063992   -1.312430   -1.758884
      9          6           0        2.142224    0.091345   -2.586714
     10          6           0        3.346104    0.763250   -1.978417
     11          6           0        2.237677   -0.114619   -4.099227
     12          6           0        0.787211   -1.580646   -0.866868
     13          6           0       -0.538578   -1.031644   -1.382213
     14          6           0       -1.769207   -1.456529   -0.449516
     15          8           0       -1.876864   -1.031835    0.726880
     16          8           0       -2.601461   -2.312558   -1.106836
     17          7           0        5.656814    2.404032   -0.963295
     18          6           0        4.598956    2.923705   -1.729871
     19          6           0        4.781115    4.394532   -1.847421
     20          6           0        6.071743    4.712410   -1.266350
     21          6           0        6.546567    3.452485   -0.679017
     22          6           0        3.692499    5.223504   -2.655737
     23          6           0        6.738635    6.109416   -1.106834
     24          8           0        7.861411    6.154970   -0.601994
     25          6           0        6.025783    7.334729   -1.530858
     26          7           0        8.007249    0.818075    0.205148
     27          6           0        8.315238    2.057897    0.537697
     28          6           0        9.601200    2.112520    1.439296
     29          6           0       10.003169    0.599567    1.583640
     30          6           0        8.748904   -0.060514    0.970818
     31          6           0       10.765949    2.979874    0.843578
     32          6           0       10.478687    0.187840    3.034085
     33          6           0       11.899977   -0.352757    3.180197
     34          7           0        6.175547   -1.469627    0.403739
     35          6           0        7.281758   -2.175327    0.896445
     36          6           0        6.894776   -3.571994    1.207636
     37          6           0        5.562784   -3.671277    0.793232
     38          6           0        5.141306   -2.339849    0.368045
     39          6           0        7.919328   -4.624216    1.729042
     40          6           0        4.394778   -4.570088    0.635033
     41          8           0        4.284538   -5.763110    0.978764
     42          6           0        3.228528   -3.728503    0.122411
     43          6           0        2.208751   -3.774647    1.184549
     44          8           0        1.871535   -2.861649    1.936040
     45          8           0        1.580389   -4.978944    1.062032
     46          6           0        0.293358   -5.229175    1.769287
     47          6           0       -3.785634   -2.749954   -0.506955
     48          6           0       -4.996274   -2.586848   -1.364671
     49          6           0       -6.269679   -3.119333   -1.299322
     50          6           0       -6.688582   -4.115611   -0.288376
     51          6           0       -7.352172   -2.740006   -2.312421
     52          6           0       -8.242181   -1.567172   -1.822349
     53          6           0       -9.434962   -1.423452   -2.749937
     54          6           0      -10.798432   -1.247871   -1.970038
     55          6           0      -11.954736   -1.763581   -2.831887
     56          6           0      -10.962211    0.167507   -1.337501
     57          6           0      -11.252021    0.271842    0.188722
     58          6           0      -12.750500   -0.031539    0.400088
     59          6           0      -13.522356    1.212172    0.862512
     60          6           0      -14.968275    1.234921    0.286594
     61          6           0      -13.579571    1.398076    2.338141
     62          6           0      -13.503132    2.907791    2.732421
     63          6           0      -12.162656    3.257706    3.391994
     64          6           0      -11.296392    4.335586    2.712019
     65          6           0       -9.811244    3.843110    2.708596
     66          6           0      -11.377716    5.716193    3.451388
     67          1           0        2.764105    2.585307   -2.788294
     68          1           0        8.161228    4.100788    0.500534
     69          1           0        9.257686   -1.985352    1.717852
     70          1           0        2.279352   -2.152904   -2.418340
     71          1           0        1.304026    0.753754   -2.368114
     72          1           0        1.352698    0.203068   -4.650306
     73          1           0        2.357418   -1.189204   -4.244236
     74          1           0        3.053804    0.436951   -4.565331
     75          1           0        1.086227   -1.208492    0.113983
     76          1           0        0.566928   -2.647704   -0.858423
     77          1           0       -0.714293   -1.477530   -2.360952
     78          1           0       -0.473908    0.054322   -1.444982
     79          1           0        2.769101    4.656676   -2.776143
     80          1           0        4.162180    5.504618   -3.598427
     81          1           0        3.462420    6.071744   -2.011643
     82          1           0        6.763274    8.119105   -1.700762
     83          1           0        5.319169    7.552155   -0.729789
     84          1           0        5.529267    7.147585   -2.483657
     85          1           0        9.309346    2.525264    2.405610
     86          1           0       10.801633    0.472270    0.851956
     87          1           0       11.711348    2.493407    0.599813
     88          1           0       10.980250    3.775449    1.557048
     89          1           0       10.436583    3.425027   -0.094447
     90          1           0        9.803487   -0.603202    3.358409
     91          1           0       10.228483    0.977976    3.743140
     92          1           0       11.799070   -1.320463    3.670933
     93          1           0       12.482171    0.337757    3.790484
     94          1           0       12.400917   -0.466529    2.218381
     95          1           0        7.426955   -5.541011    2.052079
     96          1           0        8.377470   -4.220999    2.632234
     97          1           0        8.759664   -4.794253    1.055012
     98          1           0        2.875289   -4.257891   -0.762555
     99          1           0       -0.557642   -5.464781    1.129420
    100          1           0       -0.044528   -4.475048    2.480361
    101          1           0        0.448962   -6.081517    2.429728
    102          1           0       -4.106591   -2.498682    0.504234
    103          1           0       -3.613307   -3.822394   -0.412192
    104          1           0       -4.781076   -1.935291   -2.211952
    105          1           0       -5.869219   -4.828977   -0.208041
    106          1           0       -7.527430   -4.694023   -0.676474
    107          1           0       -6.912463   -3.594456    0.642163
    108          1           0       -7.957245   -3.615536   -2.548954
    109          1           0       -6.866001   -2.298990   -3.182856
    110          1           0       -7.676463   -0.636147   -1.818763
    111          1           0       -8.489727   -1.755449   -0.777451
    112          1           0       -9.454809   -2.296722   -3.402266
    113          1           0       -9.272041   -0.497088   -3.300682
    114          1           0      -10.763609   -1.945518   -1.133248
    115          1           0      -11.661427   -1.711209   -3.880305
    116          1           0      -12.890030   -1.210566   -2.746877
    117          1           0      -12.226369   -2.798195   -2.618999
    118          1           0      -11.728584    0.765085   -1.829427
    119          1           0      -10.017696    0.671440   -1.540620
    120          1           0      -10.935460    1.273839    0.479475
    121          1           0      -10.697055   -0.435555    0.805364
    122          1           0      -12.900099   -0.817001    1.140455
    123          1           0      -13.216590   -0.425475   -0.503946
    124          1           0      -13.137294    2.137142    0.433510
    125          1           0      -15.029080    1.819048   -0.630917
    126          1           0      -15.681759    1.617711    1.015497
    127          1           0      -15.347351    0.297591   -0.120516
    128          1           0      -12.733364    0.813531    2.700018
    129          1           0      -14.492298    1.007769    2.786820
    130          1           0      -14.269810    3.122266    3.477652
    131          1           0      -13.691409    3.653467    1.960124
    132          1           0      -11.504796    2.390085    3.424900
    133          1           0      -12.342810    3.623151    4.403775
    134          1           0      -11.684979    4.434754    1.698996
    135          1           0       -9.768851    2.892537    2.178478
    136          1           0       -9.341874    3.623395    3.667316
    137          1           0       -9.294354    4.617230    2.139909
    138          1           0      -11.859761    5.770397    4.427476
    139          1           0      -11.907606    6.376674    2.765068
    140          1           0      -10.439266    6.251080    3.597856
 ---------------------------------------------------------------------

 SCF Done:  E(RPBE1PBE) =  -3005.34331804     A.U. after   15 cycles

 Excitation energies and oscillator strengths:

 Excited State   1:      Singlet-A      1.8078 eV  685.84 nm  f=0.3657  <S**2>=0.000
     245 -> 248        0.17488
     246 -> 247        0.69348
     246 <- 247       -0.11049
 This state for optimization and/or second-order correction.
 Total Energy, E(TD-HF/TD-DFT) =  -3005.27688385
 Copying the excited state density for this state as the 1-particle RhoCI density.

 Excited State   2:      Singlet-A      2.2469 eV  551.81 nm  f=0.0539  <S**2>=0.000
     245 -> 247        0.62762
     246 -> 248       -0.31536

 Excited State   3:      Singlet-A      3.0423 eV  407.53 nm  f=0.0162  <S**2>=0.000
     241 -> 247        0.12601
     242 -> 247        0.43881
     242 -> 249        0.15167
     243 -> 247        0.44097
     243 -> 249        0.14625
     246 -> 248        0.14765

 Excited State   4:      Singlet-A      3.1349 eV  395.50 nm  f=0.1201  <S**2>=0.000
     241 -> 247       -0.15448
     242 -> 247       -0.27546
     243 -> 247        0.46079
     245 -> 247       -0.15236
     246 -> 248       -0.36966

 Excited State   5:      Singlet-A      3.2122 eV  385.98 nm  f=0.1548  <S**2>=0.000
     240 -> 247        0.19798
     241 -> 247       -0.11084
     242 -> 247        0.39174
     243 -> 247       -0.23521
     245 -> 247       -0.16049
     246 -> 248       -0.35174
     246 -> 249        0.26166

 The electronic state is 1-A.
 Alpha  occ. eigenvalues --  -46.92044 -19.27825 -19.25328 -19.20405 -19.19654
 Alpha  occ. eigenvalues --  -19.19387 -19.18863 -14.41427 -14.40835 -14.38971
 Alpha  occ. eigenvalues --  -14.38951 -10.37703 -10.36237 -10.32793 -10.32231
 Alpha  occ. eigenvalues --  -10.29853 -10.28927 -10.28818 -10.28642 -10.28520
 Alpha  occ. eigenvalues --  -10.28308 -10.27879 -10.27662 -10.27626 -10.27410
 Alpha  occ. eigenvalues --  -10.26408 -10.26372 -10.26316 -10.26227 -10.26076
 Alpha  occ. eigenvalues --  -10.25798 -10.25534 -10.25522 -10.25512 -10.25271
 Alpha  occ. eigenvalues --  -10.25206 -10.24822 -10.24612 -10.24589 -10.24512
 Alpha  occ. eigenvalues --  -10.24033 -10.23876 -10.23688 -10.23661 -10.23598
 Alpha  occ. eigenvalues --  -10.23590 -10.23552 -10.23544 -10.23451 -10.23364
 Alpha  occ. eigenvalues --  -10.22914 -10.22847 -10.22705 -10.22676 -10.22676
 Alpha  occ. eigenvalues --  -10.22642 -10.22636 -10.22458 -10.22129 -10.22121
 Alpha  occ. eigenvalues --  -10.21858 -10.21819 -10.21768 -10.21596 -10.21351
 Alpha  occ. eigenvalues --  -10.21264  -3.14093  -1.86924  -1.86471  -1.86319
 Alpha  occ. eigenvalues --   -1.12841  -1.10190  -1.04620  -1.02991  -1.02420
 Alpha  occ. eigenvalues --   -1.01751  -0.98361  -0.97744  -0.96718  -0.95406
 Alpha  occ. eigenvalues --   -0.86608  -0.84918  -0.84305  -0.83273  -0.82746
 Alpha  occ. eigenvalues --   -0.82708  -0.82208  -0.81589  -0.81107  -0.80230
 Alpha  occ. eigenvalues --   -0.80001  -0.79870  -0.78798  -0.78089  -0.77540
 Alpha  occ. eigenvalues --   -0.76990  -0.76622  -0.75880  -0.75246  -0.75023
 Alpha  occ. eigenvalues --   -0.74280  -0.72470  -0.72230  -0.71405  -0.70429
 Alpha  occ. eigenvalues --   -0.70060  -0.69305  -0.69131  -0.68960  -0.68382
 Alpha  occ. eigenvalues --   -0.67801  -0.66670  -0.66224  -0.64325  -0.63237
 Alpha  occ. eigenvalues --   -0.62855  -0.62576  -0.61450  -0.60920  -0.60395
 Alpha  occ. eigenvalues --   -0.59891  -0.59545  -0.59262  -0.58920  -0.58477
 Alpha  occ. eigenvalues --   -0.57932  -0.57273  -0.56655  -0.56552  -0.54903
 Alpha  occ. eigenvalues --   -0.54233  -0.53774  -0.53479  -0.52890  -0.52280
 Alpha  occ. eigenvalues --   -0.51687  -0.51633  -0.50580  -0.50177  -0.49997
 Alpha  occ. eigenvalues --   -0.49772  -0.49608  -0.49226  -0.48698  -0.48394
 Alpha  occ. eigenvalues --   -0.48242  -0.47828  -0.47594  -0.47290  -0.47187
 Alpha  occ. eigenvalues --   -0.46894  -0.46764  -0.46589  -0.46413  -0.46031
 Alpha  occ. eigenvalues --   -0.45884  -0.45722  -0.45312  -0.44988  -0.44858
 Alpha  occ. eigenvalues --   -0.44805  -0.44704  -0.44352  -0.44197  -0.44098
 Alpha  occ. eigenvalues --   -0.44063  -0.44015  -0.43623  -0.43556  -0.43273
 Alpha  occ. eigenvalues --   -0.43109  -0.42902  -0.42600  -0.42427  -0.42282
 Alpha  occ. eigenvalues --   -0.41935  -0.41788  -0.41635  -0.41286  -0.40980
 Alpha  occ. eigenvalues --   -0.40903  -0.40790  -0.40639  -0.40591  -0.40533
 Alpha  occ. eigenvalues --   -0.40011  -0.39692  -0.39522  -0.39402  -0.39207
 Alpha  occ. eigenvalues --   -0.39085  -0.38788  -0.38635  -0.38535  -0.38485
 Alpha  occ. eigenvalues --   -0.38266  -0.38043  -0.37942  -0.37772  -0.37650
 Alpha  occ. eigenvalues --   -0.37539  -0.37323  -0.37259  -0.37168  -0.37040
 Alpha  occ. eigenvalues --   -0.36883  -0.36562  -0.36371  -0.36353  -0.36057
 Alpha  occ. eigenvalues --   -0.35903  -0.35772  -0.35465  -0.35414  -0.35107
 Alpha  occ. eigenvalues --   -0.34897  -0.34588  -0.33929  -0.33748  -0.33401
 Alpha  occ. eigenvalues --   -0.32898  -0.32753  -0.32610  -0.32425  -0.32176
 Alpha  occ. eigenvalues --   -0.32055  -0.31872  -0.31522  -0.31226  -0.31144
 Alpha  occ. eigenvalues --   -0.30638  -0.30615  -0.29839  -0.29699  -0.29194
 Alpha  occ. eigenvalues --   -0.28830  -0.28606  -0.28550  -0.26960  -0.26140
 Alpha  occ. eigenvalues --   -0.25868  -0.25280  -0.25238  -0.24228  -0.20984
 Alpha  occ. eigenvalues --   -0.18096
 Alpha virt. eigenvalues --   -0.10688  -0.05321  -0.04228  -0.02419  -0.00453
 Alpha virt. eigenvalues --   -0.00029   0.00723   0.00853   0.01178   0.03673
 Alpha virt. eigenvalues --    0.04095   0.04819   0.05259   0.05431   0.05523

 Mulliken charges:
               1
     1  Mg   0.954380
     2  C   -0.011917
     3  C   -0.086906
     4  C   -0.055805
     5  C   -0.029256
     6  N   -0.416106
     7  C    0.005527
     8  C   -0.028803
     9  C   -0.174588
    10  C    0.088954
    11  C    0.026790
    12  C   -0.027755
    13  C   -0.006990
    14  C    0.244689
    15  O   -0.282124
    16  O   -0.323021
    17  N   -0.535572
    18  C    0.217866
    19  C   -0.189266
    20  C   -0.084177
    21  C    0.185709
    22  C    0.039298
    23  C    0.046604
    24  O   -0.245609
    25  C   -0.002317
    26  N   -0.339077
    27  C    0.042886
    28  C   -0.151606
    29  C   -0.058879
    30  C    0.020875
    31  C   -0.000059
    32  C   -0.032024
    33  C   -0.057836
    34  N   -0.467751
    35  C    0.106531
    36  C   -0.180709
    37  C   -0.045502
    38  C    0.187681
    39  C    0.063139
    40  C    0.133963
    41  O   -0.229425
    42  C   -0.157187
    43  C    0.320684
    44  O   -0.249748
    45  O   -0.362010
    46  C    0.120514
    47  C    0.267233
    48  C   -0.151926
    49  C   -0.254861
    50  C    0.036012
    51  C   -0.006637
    52  C   -0.044154
    53  C   -0.006443
    54  C   -0.190456
    55  C   -0.013258
    56  C   -0.014417
    57  C   -0.042644
    58  C    0.005052
    59  C   -0.223001
    60  C   -0.021824
    61  C    0.019249
    62  C   -0.038169
    63  C    0.007521
    64  C   -0.247510
    65  C   -0.042046
    66  C   -0.021841
    67  H   -0.002023
    68  H    0.026415
    69  H    0.006850
    70  H    0.041723
    71  H    0.048742
    72  H    0.038790
    73  H    0.038455
    74  H    0.049200
    75  H    0.087129
    76  H    0.049377
    77  H    0.045076
    78  H    0.064237
    79  H    0.049522
    80  H    0.081108
    81  H    0.056990
    82  H    0.062121
    83  H    0.081889
    84  H    0.051533
    85  H    0.052829
    86  H    0.055799
    87  H    0.039852
    88  H    0.043929
    89  H    0.057269
    90  H    0.032044
    91  H    0.032906
    92  H    0.045799
    93  H    0.048354
    94  H    0.044860
    95  H    0.062979
    96  H    0.038345
    97  H    0.060420
    98  H    0.088830
    99  H    0.056417
   100  H    0.068108
   101  H    0.056834
   102  H    0.066816
   103  H    0.033691
   104  H    0.020039
   105  H    0.043983
   106  H    0.034574
   107  H    0.068725
   108  H    0.038134
   109  H    0.032417
   110  H    0.030104
   111  H    0.026124
   112  H    0.032910
   113  H    0.035990
   114  H    0.027084
   115  H    0.029488
   116  H    0.029435
   117  H    0.033817
   118  H    0.027435
   119  H    0.015198
   120  H    0.049047
   121  H    0.028694
   122  H    0.021034
   123  H    0.026140
   124  H    0.031592
   125  H    0.020880
   126  H    0.031809
   127  H    0.023850
   128  H    0.027280
   129  H    0.028328
   130  H    0.019629
   131  H    0.029289
   132  H    0.017679
   133  H    0.023334
   134  H    0.033368
   135  H    0.031857
   136  H    0.045749
   137  H    0.039951
   138  H    0.037036
   139  H    0.027658
   140  H    0.027180
 Sum of Mulliken charges =  -0.00000

 Dipole moment (field-independent basis, Debye):
    X=             -3.0982    Y=              2.0143    Z=             -2.7676  Tot=              4.6169
 Quadrupole moment (field-independent basis, Debye-Ang):
   XX=           -382.6431   YY=           -406.6116   ZZ=           -394.5581
   XY=             13.0731   XZ=             13.2958   YZ=             -4.5585

 Normal termination of Gaussian 16 at Wed May  4 04:10:27 2022.
