 Gaussian 16, Revision A.03,
 Gaussian 16:  ES64L-G16RevA.03 25-Dec-2016

 --------------------------------
 #p wB97XD/Def2SVP td=(nstates=5)
 --------------------------------

 -----------------------------------------------------
 step_1351_chromophore_22 TDDFT with wB97XD functional
 -----------------------------------------------------
 Symbolic Z-matrix:
 Charge =  0 Multiplicity = 1

                         Standard orientation:
 ---------------------------------------------------------------------
 Center     Atomic      Atomic             Coordinates (Angstroms)
 Number     Number       Type             X           Y           Z
 ---------------------------------------------------------------------
      1         12           0        5.818910    0.527830   -0.166738
      2          6           0        3.878236   -2.271836   -0.127353
      3          6           0        3.593627    2.144004   -2.231791
      4          6           0        7.631515    3.200870    0.180574
      5          6           0        8.515504   -1.498034    1.081658
      6          7           0        3.978375   -0.070630   -1.140019
      7          6           0        3.350064   -1.324925   -0.957908
      8          6           0        2.063992   -1.312430   -1.758884
      9          6           0        2.142224    0.091345   -2.586714
     10          6           0        3.346104    0.763250   -1.978417
     11          6           0        2.237677   -0.114619   -4.099227
     12          6           0        0.787211   -1.580646   -0.866868
     13          6           0       -0.538578   -1.031644   -1.382213
     14          6           0       -1.769207   -1.456529   -0.449516
     15          8           0       -1.876864   -1.031835    0.726880
     16          8           0       -2.601461   -2.312558   -1.106836
     17          7           0        5.656814    2.404032   -0.963295
     18          6           0        4.598956    2.923705   -1.729871
     19          6           0        4.781115    4.394532   -1.847421
     20          6           0        6.071743    4.712410   -1.266350
     21          6           0        6.546567    3.452485   -0.679017
     22          6           0        3.692499    5.223504   -2.655737
     23          6           0        6.738635    6.109416   -1.106834
     24          8           0        7.861411    6.154970   -0.601994
     25          6           0        6.025783    7.334729   -1.530858
     26          7           0        8.007249    0.818075    0.205148
     27          6           0        8.315238    2.057897    0.537697
     28          6           0        9.601200    2.112520    1.439296
     29          6           0       10.003169    0.599567    1.583640
     30          6           0        8.748904   -0.060514    0.970818
     31          6           0       10.765949    2.979874    0.843578
     32          6           0       10.478687    0.187840    3.034085
     33          6           0       11.899977   -0.352757    3.180197
     34          7           0        6.175547   -1.469627    0.403739
     35          6           0        7.281758   -2.175327    0.896445
     36          6           0        6.894776   -3.571994    1.207636
     37          6           0        5.562784   -3.671277    0.793232
     38          6           0        5.141306   -2.339849    0.368045
     39          6           0        7.919328   -4.624216    1.729042
     40          6           0        4.394778   -4.570088    0.635033
     41          8           0        4.284538   -5.763110    0.978764
     42          6           0        3.228528   -3.728503    0.122411
     43          6           0        2.208751   -3.774647    1.184549
     44          8           0        1.871535   -2.861649    1.936040
     45          8           0        1.580389   -4.978944    1.062032
     46          6           0        0.293358   -5.229175    1.769287
     47          6           0       -3.785634   -2.749954   -0.506955
     48          6           0       -4.996274   -2.586848   -1.364671
     49          6           0       -6.269679   -3.119333   -1.299322
     50          6           0       -6.688582   -4.115611   -0.288376
     51          6           0       -7.352172   -2.740006   -2.312421
     52          6           0       -8.242181   -1.567172   -1.822349
     53          6           0       -9.434962   -1.423452   -2.749937
     54          6           0      -10.798432   -1.247871   -1.970038
     55          6           0      -11.954736   -1.763581   -2.831887
     56          6           0      -10.962211    0.167507   -1.337501
     57          6           0      -11.252021    0.271842    0.188722
     58          6           0      -12.750500   -0.031539    0.400088
     59          6           0      -13.522356    1.212172    0.862512
     60          6           0      -14.968275    1.234921    0.286594
     61          6           0      -13.579571    1.398076    2.338141
     62          6           0      -13.503132    2.907791    2.732421
     63          6           0      -12.162656    3.257706    3.391994
     64          6           0      -11.296392    4.335586    2.712019
     65          6           0       -9.811244    3.843110    2.708596
     66          6           0      -11.377716    5.716193    3.451388
     67          1           0        2.764105    2.585307   -2.788294
     68          1           0        8.161228    4.100788    0.500534
     69          1           0        9.257686   -1.985352    1.717852
     70          1           0        2.279352   -2.152904   -2.418340
     71          1           0        1.304026    0.753754   -2.368114
     72          1           0        1.352698    0.203068   -4.650306
     73          1           0        2.357418   -1.189204   -4.244236
     74          1           0        3.053804    0.436951   -4.565331
     75          1           0        1.086227   -1.208492    0.113983
     76          1           0        0.566928   -2.647704   -0.858423
     77          1           0       -0.714293   -1.477530   -2.360952
     78          1           0       -0.473908    0.054322   -1.444982
     79          1           0        2.769101    4.656676   -2.776143
     80          1           0        4.162180    5.504618   -3.598427
     81          1           0        3.462420    6.071744   -2.011643
     82          1           0        6.763274    8.119105   -1.700762
     83          1           0        5.319169    7.552155   -0.729789
     84          1           0        5.529267    7.147585   -2.483657
     85          1           0        9.309346    2.525264    2.405610
     86          1           0       10.801633    0.472270    0.851956
     87          1           0       11.711348    2.493407    0.599813
     88          1           0       10.980250    3.775449    1.557048
     89          1           0       10.436583    3.425027   -0.094447
     90          1           0        9.803487   -0.603202    3.358409
     91          1           0       10.228483    0.977976    3.743140
     92          1           0       11.799070   -1.320463    3.670933
     93          1           0       12.482171    0.337757    3.790484
     94          1           0       12.400917   -0.466529    2.218381
     95          1           0        7.426955   -5.541011    2.052079
     96          1           0        8.377470   -4.220999    2.632234
     97          1           0        8.759664   -4.794253    1.055012
     98          1           0        2.875289   -4.257891   -0.762555
     99          1           0       -0.557642   -5.464781    1.129420
    100          1           0       -0.044528   -4.475048    2.480361
    101          1           0        0.448962   -6.081517    2.429728
    102          1           0       -4.106591   -2.498682    0.504234
    103          1           0       -3.613307   -3.822394   -0.412192
    104          1           0       -4.781076   -1.935291   -2.211952
    105          1           0       -5.869219   -4.828977   -0.208041
    106          1           0       -7.527430   -4.694023   -0.676474
    107          1           0       -6.912463   -3.594456    0.642163
    108          1           0       -7.957245   -3.615536   -2.548954
    109          1           0       -6.866001   -2.298990   -3.182856
    110          1           0       -7.676463   -0.636147   -1.818763
    111          1           0       -8.489727   -1.755449   -0.777451
    112          1           0       -9.454809   -2.296722   -3.402266
    113          1           0       -9.272041   -0.497088   -3.300682
    114          1           0      -10.763609   -1.945518   -1.133248
    115          1           0      -11.661427   -1.711209   -3.880305
    116          1           0      -12.890030   -1.210566   -2.746877
    117          1           0      -12.226369   -2.798195   -2.618999
    118          1           0      -11.728584    0.765085   -1.829427
    119          1           0      -10.017696    0.671440   -1.540620
    120          1           0      -10.935460    1.273839    0.479475
    121          1           0      -10.697055   -0.435555    0.805364
    122          1           0      -12.900099   -0.817001    1.140455
    123          1           0      -13.216590   -0.425475   -0.503946
    124          1           0      -13.137294    2.137142    0.433510
    125          1           0      -15.029080    1.819048   -0.630917
    126          1           0      -15.681759    1.617711    1.015497
    127          1           0      -15.347351    0.297591   -0.120516
    128          1           0      -12.733364    0.813531    2.700018
    129          1           0      -14.492298    1.007769    2.786820
    130          1           0      -14.269810    3.122266    3.477652
    131          1           0      -13.691409    3.653467    1.960124
    132          1           0      -11.504796    2.390085    3.424900
    133          1           0      -12.342810    3.623151    4.403775
    134          1           0      -11.684979    4.434754    1.698996
    135          1           0       -9.768851    2.892537    2.178478
    136          1           0       -9.341874    3.623395    3.667316
    137          1           0       -9.294354    4.617230    2.139909
    138          1           0      -11.859761    5.770397    4.427476
    139          1           0      -11.907606    6.376674    2.765068
    140          1           0      -10.439266    6.251080    3.597856
 ---------------------------------------------------------------------

 SCF Done:  E(RwB97XD) =  -3007.85152698     A.U. after   20 cycles

 Excitation energies and oscillator strengths:

 Excited State   1:      Singlet-A      1.6074 eV  771.31 nm  f=0.3751  <S**2>=0.000
     245 -> 248        0.18771
     246 -> 247        0.68308
     245 <- 248        0.11875
 This state for optimization and/or second-order correction.
 Total Energy, E(TD-HF/TD-DFT) =  -3007.79245460
 Copying the excited state density for this state as the 1-particle RhoCI density.

 Excited State   2:      Singlet-A      2.1953 eV  564.78 nm  f=0.0437  <S**2>=0.000
     245 -> 247        0.60399
     246 -> 248       -0.35438

 Excited State   3:      Singlet-A      3.3286 eV  372.48 nm  f=0.5275  <S**2>=0.000
     241 -> 247        0.24613
     242 -> 247       -0.11717
     243 -> 247       -0.17480
     245 -> 247        0.28909
     246 -> 248        0.55074
     245 <- 247       -0.10565

 Excited State   4:      Singlet-A      3.5063 eV  353.60 nm  f=0.0454  <S**2>=0.000
     241 -> 249        0.21669
     241 -> 250       -0.11079
     242 -> 247        0.43430
     242 -> 249        0.21646
     242 -> 250       -0.13065
     243 -> 247        0.35364
     246 -> 248        0.10814

 Excited State   5:      Singlet-A      3.5745 eV  346.86 nm  f=0.1526  <S**2>=0.000
     241 -> 247       -0.25847
     242 -> 247       -0.17537
     242 -> 249       -0.23695
     242 -> 250        0.13422
     243 -> 247        0.47494
     245 -> 247        0.14116
     246 -> 248        0.19527

 The electronic state is 1-A.
 Alpha  occ. eigenvalues --  -46.94991 -19.32353 -19.29841 -19.25067 -19.24390
 Alpha  occ. eigenvalues --  -19.24312 -19.23536 -14.46532 -14.45862 -14.43968
 Alpha  occ. eigenvalues --  -14.43772 -10.44473 -10.43039 -10.39810 -10.38951
 Alpha  occ. eigenvalues --  -10.36305 -10.35290 -10.35103 -10.34970 -10.34894
 Alpha  occ. eigenvalues --  -10.34627 -10.34302 -10.34231 -10.34177 -10.33662
 Alpha  occ. eigenvalues --  -10.32695 -10.32607 -10.32450 -10.32391 -10.32360
 Alpha  occ. eigenvalues --  -10.32358 -10.32222 -10.31968 -10.31794 -10.31414
 Alpha  occ. eigenvalues --  -10.31385 -10.31158 -10.31037 -10.30950 -10.30859
 Alpha  occ. eigenvalues --  -10.30781 -10.30110 -10.30097 -10.29985 -10.29969
 Alpha  occ. eigenvalues --  -10.29921 -10.29841 -10.29802 -10.29729 -10.29689
 Alpha  occ. eigenvalues --  -10.29325 -10.29177 -10.29069 -10.29057 -10.29052
 Alpha  occ. eigenvalues --  -10.29025 -10.29007 -10.28749 -10.28495 -10.28493
 Alpha  occ. eigenvalues --  -10.28249 -10.28230 -10.28211 -10.28017 -10.27713
 Alpha  occ. eigenvalues --  -10.27694  -3.20903  -1.94481  -1.94029  -1.93876
 Alpha  occ. eigenvalues --   -1.20185  -1.17556  -1.12293  -1.10363  -1.09767
 Alpha  occ. eigenvalues --   -1.09078  -1.05691  -1.05124  -1.03960  -1.02945
 Alpha  occ. eigenvalues --   -0.94123  -0.92592  -0.91972  -0.90919  -0.90398
 Alpha  occ. eigenvalues --   -0.90355  -0.89775  -0.89247  -0.88777  -0.88067
 Alpha  occ. eigenvalues --   -0.87589  -0.87395  -0.86437  -0.85690  -0.85157
 Alpha  occ. eigenvalues --   -0.84674  -0.84419  -0.83531  -0.82852  -0.82577
 Alpha  occ. eigenvalues --   -0.81954  -0.80232  -0.79852  -0.78993  -0.77981
 Alpha  occ. eigenvalues --   -0.77725  -0.77010  -0.76754  -0.76614  -0.76041
 Alpha  occ. eigenvalues --   -0.75385  -0.74165  -0.73758  -0.71935  -0.70757
 Alpha  occ. eigenvalues --   -0.70460  -0.70108  -0.69041  -0.68562  -0.68014
 Alpha  occ. eigenvalues --   -0.67419  -0.67041  -0.66743  -0.66306  -0.65955
 Alpha  occ. eigenvalues --   -0.65625  -0.64944  -0.64296  -0.63875  -0.62403
 Alpha  occ. eigenvalues --   -0.61809  -0.61121  -0.60917  -0.60359  -0.59660
 Alpha  occ. eigenvalues --   -0.59114  -0.59023  -0.58032  -0.57548  -0.57424
 Alpha  occ. eigenvalues --   -0.57162  -0.57052  -0.56603  -0.56112  -0.55876
 Alpha  occ. eigenvalues --   -0.55544  -0.55338  -0.55156  -0.54588  -0.54580
 Alpha  occ. eigenvalues --   -0.54272  -0.54170  -0.53975  -0.53694  -0.53403
 Alpha  occ. eigenvalues --   -0.53191  -0.53013  -0.52912  -0.52336  -0.52170
 Alpha  occ. eigenvalues --   -0.52113  -0.51977  -0.51850  -0.51518  -0.51375
 Alpha  occ. eigenvalues --   -0.51362  -0.51280  -0.50907  -0.50848  -0.50748
 Alpha  occ. eigenvalues --   -0.50373  -0.50137  -0.49886  -0.49716  -0.49559
 Alpha  occ. eigenvalues --   -0.49198  -0.49076  -0.48985  -0.48495  -0.48242
 Alpha  occ. eigenvalues --   -0.48053  -0.47953  -0.47875  -0.47819  -0.47639
 Alpha  occ. eigenvalues --   -0.47183  -0.46900  -0.46720  -0.46543  -0.46358
 Alpha  occ. eigenvalues --   -0.46212  -0.45960  -0.45808  -0.45757  -0.45609
 Alpha  occ. eigenvalues --   -0.45450  -0.45175  -0.45030  -0.44946  -0.44799
 Alpha  occ. eigenvalues --   -0.44610  -0.44483  -0.44454  -0.44299  -0.44127
 Alpha  occ. eigenvalues --   -0.43984  -0.43616  -0.43420  -0.43388  -0.43075
 Alpha  occ. eigenvalues --   -0.42971  -0.42882  -0.42589  -0.42458  -0.42115
 Alpha  occ. eigenvalues --   -0.42008  -0.41484  -0.40852  -0.40798  -0.40438
 Alpha  occ. eigenvalues --   -0.39926  -0.39663  -0.39489  -0.39456  -0.39230
 Alpha  occ. eigenvalues --   -0.39120  -0.38900  -0.38515  -0.38214  -0.38169
 Alpha  occ. eigenvalues --   -0.37596  -0.37493  -0.36786  -0.36622  -0.36006
 Alpha  occ. eigenvalues --   -0.35816  -0.35612  -0.35325  -0.33646  -0.33382
 Alpha  occ. eigenvalues --   -0.32502  -0.32144  -0.31771  -0.30929  -0.26080
 Alpha  occ. eigenvalues --   -0.22150
 Alpha virt. eigenvalues --   -0.06466   0.00058   0.02072   0.04043   0.05938
 Alpha virt. eigenvalues --    0.06430   0.07470   0.07614   0.07970   0.10131
 Alpha virt. eigenvalues --    0.10659   0.11605   0.12004   0.12096   0.12270

 Mulliken charges:
               1
     1  Mg   0.945492
     2  C   -0.010661
     3  C   -0.105447
     4  C   -0.072069
     5  C   -0.041957
     6  N   -0.381310
     7  C   -0.029478
     8  C   -0.001906
     9  C   -0.144761
    10  C    0.073950
    11  C    0.035101
    12  C   -0.013715
    13  C    0.013354
    14  C    0.232912
    15  O   -0.279527
    16  O   -0.320913
    17  N   -0.510257
    18  C    0.216308
    19  C   -0.183780
    20  C   -0.077913
    21  C    0.180180
    22  C    0.054444
    23  C    0.043428
    24  O   -0.238691
    25  C    0.007389
    26  N   -0.311062
    27  C    0.037497
    28  C   -0.128657
    29  C   -0.031867
    30  C    0.009815
    31  C    0.009495
    32  C   -0.017382
    33  C   -0.041690
    34  N   -0.432418
    35  C    0.097660
    36  C   -0.180222
    37  C   -0.041377
    38  C    0.171357
    39  C    0.074153
    40  C    0.113158
    41  O   -0.221593
    42  C   -0.120534
    43  C    0.295230
    44  O   -0.243231
    45  O   -0.361613
    46  C    0.136611
    47  C    0.278414
    48  C   -0.163133
    49  C   -0.238445
    50  C    0.047378
    51  C    0.016727
    52  C   -0.031621
    53  C    0.013512
    54  C   -0.165068
    55  C   -0.002003
    56  C    0.004096
    57  C   -0.022516
    58  C    0.026888
    59  C   -0.191437
    60  C   -0.011919
    61  C    0.036193
    62  C   -0.022576
    63  C    0.021896
    64  C   -0.217514
    65  C   -0.023527
    66  C   -0.012672
    67  H   -0.008947
    68  H    0.019601
    69  H   -0.001843
    70  H    0.028713
    71  H    0.035735
    72  H    0.033991
    73  H    0.032752
    74  H    0.043473
    75  H    0.079900
    76  H    0.037583
    77  H    0.039037
    78  H    0.056866
    79  H    0.046482
    80  H    0.077581
    81  H    0.051610
    82  H    0.061844
    83  H    0.078733
    84  H    0.045191
    85  H    0.042131
    86  H    0.041198
    87  H    0.034992
    88  H    0.038872
    89  H    0.050369
    90  H    0.022102
    91  H    0.025573
    92  H    0.040506
    93  H    0.042390
    94  H    0.038578
    95  H    0.059400
    96  H    0.031253
    97  H    0.055166
    98  H    0.083281
    99  H    0.052389
   100  H    0.064509
   101  H    0.052647
   102  H    0.063283
   103  H    0.027270
   104  H    0.015815
   105  H    0.037836
   106  H    0.029708
   107  H    0.063904
   108  H    0.029290
   109  H    0.023973
   110  H    0.022334
   111  H    0.014181
   112  H    0.023077
   113  H    0.026905
   114  H    0.012469
   115  H    0.023150
   116  H    0.023904
   117  H    0.028972
   118  H    0.016944
   119  H    0.005823
   120  H    0.034719
   121  H    0.021079
   122  H    0.013410
   123  H    0.008648
   124  H    0.014848
   125  H    0.015315
   126  H    0.025545
   127  H    0.018052
   128  H    0.015280
   129  H    0.020960
   130  H    0.013197
   131  H    0.019278
   132  H    0.004523
   133  H    0.014562
   134  H    0.021455
   135  H    0.022142
   136  H    0.040155
   137  H    0.033470
   138  H    0.031689
   139  H    0.021603
   140  H    0.021399
 Sum of Mulliken charges =  -0.00000

 Dipole moment (field-independent basis, Debye):
    X=             -3.2739    Y=              2.5802    Z=             -3.0024  Tot=              5.1371
 Quadrupole moment (field-independent basis, Debye-Ang):
   XX=           -385.0262   YY=           -403.9351   ZZ=           -394.1004
   XY=             16.3722   XZ=             11.8685   YZ=             -5.2343

 Normal termination of Gaussian 16 at Wed May  4 04:36:24 2022.
