 Gaussian 16, Revision A.03,
 Gaussian 16:  ES64L-G16RevA.03 25-Dec-2016

 --------------------
 #p ZINDO=(nstates=5)
 --------------------

 ------------------------------
 step_1351_chromophore_22 ZINDO
 ------------------------------
 Symbolic Z-matrix:
 Charge =  0 Multiplicity = 1

                         Standard orientation:
 ---------------------------------------------------------------------
 Center     Atomic      Atomic             Coordinates (Angstroms)
 Number     Number       Type             X           Y           Z
 ---------------------------------------------------------------------
      1         12           0        5.818910    0.527830   -0.166738
      2          6           0        3.878236   -2.271836   -0.127353
      3          6           0        3.593627    2.144004   -2.231791
      4          6           0        7.631515    3.200870    0.180574
      5          6           0        8.515504   -1.498034    1.081658
      6          7           0        3.978375   -0.070630   -1.140019
      7          6           0        3.350064   -1.324925   -0.957908
      8          6           0        2.063992   -1.312430   -1.758884
      9          6           0        2.142224    0.091345   -2.586714
     10          6           0        3.346104    0.763250   -1.978417
     11          6           0        2.237677   -0.114619   -4.099227
     12          6           0        0.787211   -1.580646   -0.866868
     13          6           0       -0.538578   -1.031644   -1.382213
     14          6           0       -1.769207   -1.456529   -0.449516
     15          8           0       -1.876864   -1.031835    0.726880
     16          8           0       -2.601461   -2.312558   -1.106836
     17          7           0        5.656814    2.404032   -0.963295
     18          6           0        4.598956    2.923705   -1.729871
     19          6           0        4.781115    4.394532   -1.847421
     20          6           0        6.071743    4.712410   -1.266350
     21          6           0        6.546567    3.452485   -0.679017
     22          6           0        3.692499    5.223504   -2.655737
     23          6           0        6.738635    6.109416   -1.106834
     24          8           0        7.861411    6.154970   -0.601994
     25          6           0        6.025783    7.334729   -1.530858
     26          7           0        8.007249    0.818075    0.205148
     27          6           0        8.315238    2.057897    0.537697
     28          6           0        9.601200    2.112520    1.439296
     29          6           0       10.003169    0.599567    1.583640
     30          6           0        8.748904   -0.060514    0.970818
     31          6           0       10.765949    2.979874    0.843578
     32          6           0       10.478687    0.187840    3.034085
     33          6           0       11.899977   -0.352757    3.180197
     34          7           0        6.175547   -1.469627    0.403739
     35          6           0        7.281758   -2.175327    0.896445
     36          6           0        6.894776   -3.571994    1.207636
     37          6           0        5.562784   -3.671277    0.793232
     38          6           0        5.141306   -2.339849    0.368045
     39          6           0        7.919328   -4.624216    1.729042
     40          6           0        4.394778   -4.570088    0.635033
     41          8           0        4.284538   -5.763110    0.978764
     42          6           0        3.228528   -3.728503    0.122411
     43          6           0        2.208751   -3.774647    1.184549
     44          8           0        1.871535   -2.861649    1.936040
     45          8           0        1.580389   -4.978944    1.062032
     46          6           0        0.293358   -5.229175    1.769287
     47          6           0       -3.785634   -2.749954   -0.506955
     48          6           0       -4.996274   -2.586848   -1.364671
     49          6           0       -6.269679   -3.119333   -1.299322
     50          6           0       -6.688582   -4.115611   -0.288376
     51          6           0       -7.352172   -2.740006   -2.312421
     52          6           0       -8.242181   -1.567172   -1.822349
     53          6           0       -9.434962   -1.423452   -2.749937
     54          6           0      -10.798432   -1.247871   -1.970038
     55          6           0      -11.954736   -1.763581   -2.831887
     56          6           0      -10.962211    0.167507   -1.337501
     57          6           0      -11.252021    0.271842    0.188722
     58          6           0      -12.750500   -0.031539    0.400088
     59          6           0      -13.522356    1.212172    0.862512
     60          6           0      -14.968275    1.234921    0.286594
     61          6           0      -13.579571    1.398076    2.338141
     62          6           0      -13.503132    2.907791    2.732421
     63          6           0      -12.162656    3.257706    3.391994
     64          6           0      -11.296392    4.335586    2.712019
     65          6           0       -9.811244    3.843110    2.708596
     66          6           0      -11.377716    5.716193    3.451388
     67          1           0        2.764105    2.585307   -2.788294
     68          1           0        8.161228    4.100788    0.500534
     69          1           0        9.257686   -1.985352    1.717852
     70          1           0        2.279352   -2.152904   -2.418340
     71          1           0        1.304026    0.753754   -2.368114
     72          1           0        1.352698    0.203068   -4.650306
     73          1           0        2.357418   -1.189204   -4.244236
     74          1           0        3.053804    0.436951   -4.565331
     75          1           0        1.086227   -1.208492    0.113983
     76          1           0        0.566928   -2.647704   -0.858423
     77          1           0       -0.714293   -1.477530   -2.360952
     78          1           0       -0.473908    0.054322   -1.444982
     79          1           0        2.769101    4.656676   -2.776143
     80          1           0        4.162180    5.504618   -3.598427
     81          1           0        3.462420    6.071744   -2.011643
     82          1           0        6.763274    8.119105   -1.700762
     83          1           0        5.319169    7.552155   -0.729789
     84          1           0        5.529267    7.147585   -2.483657
     85          1           0        9.309346    2.525264    2.405610
     86          1           0       10.801633    0.472270    0.851956
     87          1           0       11.711348    2.493407    0.599813
     88          1           0       10.980250    3.775449    1.557048
     89          1           0       10.436583    3.425027   -0.094447
     90          1           0        9.803487   -0.603202    3.358409
     91          1           0       10.228483    0.977976    3.743140
     92          1           0       11.799070   -1.320463    3.670933
     93          1           0       12.482171    0.337757    3.790484
     94          1           0       12.400917   -0.466529    2.218381
     95          1           0        7.426955   -5.541011    2.052079
     96          1           0        8.377470   -4.220999    2.632234
     97          1           0        8.759664   -4.794253    1.055012
     98          1           0        2.875289   -4.257891   -0.762555
     99          1           0       -0.557642   -5.464781    1.129420
    100          1           0       -0.044528   -4.475048    2.480361
    101          1           0        0.448962   -6.081517    2.429728
    102          1           0       -4.106591   -2.498682    0.504234
    103          1           0       -3.613307   -3.822394   -0.412192
    104          1           0       -4.781076   -1.935291   -2.211952
    105          1           0       -5.869219   -4.828977   -0.208041
    106          1           0       -7.527430   -4.694023   -0.676474
    107          1           0       -6.912463   -3.594456    0.642163
    108          1           0       -7.957245   -3.615536   -2.548954
    109          1           0       -6.866001   -2.298990   -3.182856
    110          1           0       -7.676463   -0.636147   -1.818763
    111          1           0       -8.489727   -1.755449   -0.777451
    112          1           0       -9.454809   -2.296722   -3.402266
    113          1           0       -9.272041   -0.497088   -3.300682
    114          1           0      -10.763609   -1.945518   -1.133248
    115          1           0      -11.661427   -1.711209   -3.880305
    116          1           0      -12.890030   -1.210566   -2.746877
    117          1           0      -12.226369   -2.798195   -2.618999
    118          1           0      -11.728584    0.765085   -1.829427
    119          1           0      -10.017696    0.671440   -1.540620
    120          1           0      -10.935460    1.273839    0.479475
    121          1           0      -10.697055   -0.435555    0.805364
    122          1           0      -12.900099   -0.817001    1.140455
    123          1           0      -13.216590   -0.425475   -0.503946
    124          1           0      -13.137294    2.137142    0.433510
    125          1           0      -15.029080    1.819048   -0.630917
    126          1           0      -15.681759    1.617711    1.015497
    127          1           0      -15.347351    0.297591   -0.120516
    128          1           0      -12.733364    0.813531    2.700018
    129          1           0      -14.492298    1.007769    2.786820
    130          1           0      -14.269810    3.122266    3.477652
    131          1           0      -13.691409    3.653467    1.960124
    132          1           0      -11.504796    2.390085    3.424900
    133          1           0      -12.342810    3.623151    4.403775
    134          1           0      -11.684979    4.434754    1.698996
    135          1           0       -9.768851    2.892537    2.178478
    136          1           0       -9.341874    3.623395    3.667316
    137          1           0       -9.294354    4.617230    2.139909
    138          1           0      -11.859761    5.770397    4.427476
    139          1           0      -11.907606    6.376674    2.765068
    140          1           0      -10.439266    6.251080    3.597856
 ---------------------------------------------------------------------

 SCF Done:  E(RZINDO/S) =  -474.021207738     A.U. after   20 cycles

 Excitation energies and oscillator strengths:

 Excited State   1:      Singlet-A      1.2066 eV 1027.53 nm  f=0.5808  <S**2>=0.000
     175 ->178        -0.18642
     176 ->177         0.66421
 This state for optimization and/or second-order correction.
 Total Energy, E(CIS/TDA) =  -473.976864996
 Copying the excited state density for this state as the 1-particle RhoCI density.

 Excited State   2:      Singlet-A      1.8887 eV  656.46 nm  f=0.0018  <S**2>=0.000
     175 ->177         0.48658
     176 ->178         0.49050

 Excited State   3:      Singlet-A      2.7745 eV  446.87 nm  f=0.1446  <S**2>=0.000
     175 ->177        -0.18870
     176 ->178         0.24633
     176 ->179         0.57235
     176 ->180        -0.18489
     176 ->184        -0.11086

 Excited State   4:      Singlet-A      2.9225 eV  424.24 nm  f=0.8144  <S**2>=0.000
     168 ->179         0.10604
     169 ->179         0.10349
     170 ->177         0.10604
     170 ->180        -0.10121
     171 ->177         0.10423
     175 ->177         0.37137
     176 ->178        -0.36530
     176 ->179         0.30064

 Excited State   5:      Singlet-A      2.9870 eV  415.08 nm  f=0.0441  <S**2>=0.000
     169 ->177         0.17917
     169 ->178         0.10117
     169 ->179         0.23055
     169 ->180        -0.20567
     170 ->177         0.17760
     170 ->178         0.12263
     170 ->179         0.30099
     170 ->180        -0.20124
     170 ->186         0.12023
     170 ->187        -0.10816
     176 ->179        -0.10150

 The electronic state is 1-A.
 Alpha  occ. eigenvalues --   -1.81985  -1.79283  -1.78057  -1.72552  -1.71182
 Alpha  occ. eigenvalues --   -1.68256  -1.66608  -1.61549  -1.58697  -1.55399
 Alpha  occ. eigenvalues --   -1.55152  -1.51374  -1.49051  -1.47815  -1.46617
 Alpha  occ. eigenvalues --   -1.43023  -1.41770  -1.39309  -1.38433  -1.37817
 Alpha  occ. eigenvalues --   -1.35147  -1.32632  -1.31827  -1.30634  -1.28434
 Alpha  occ. eigenvalues --   -1.27760  -1.24345  -1.23052  -1.21587  -1.18540
 Alpha  occ. eigenvalues --   -1.17687  -1.15782  -1.15356  -1.15208  -1.12762
 Alpha  occ. eigenvalues --   -1.11977  -1.10817  -1.10117  -1.04098  -1.03623
 Alpha  occ. eigenvalues --   -1.01903  -1.01045  -0.98535  -0.96977  -0.95733
 Alpha  occ. eigenvalues --   -0.95433  -0.94316  -0.93663  -0.92633  -0.92120
 Alpha  occ. eigenvalues --   -0.91527  -0.90553  -0.90094  -0.87923  -0.86880
 Alpha  occ. eigenvalues --   -0.85778  -0.84895  -0.83119  -0.81077  -0.80314
 Alpha  occ. eigenvalues --   -0.79929  -0.78872  -0.77393  -0.77326  -0.76011
 Alpha  occ. eigenvalues --   -0.75553  -0.75226  -0.74954  -0.73986  -0.73224
 Alpha  occ. eigenvalues --   -0.72316  -0.72064  -0.71996  -0.70227  -0.70046
 Alpha  occ. eigenvalues --   -0.69723  -0.69314  -0.68682  -0.68095  -0.67389
 Alpha  occ. eigenvalues --   -0.67151  -0.66586  -0.66458  -0.66243  -0.65367
 Alpha  occ. eigenvalues --   -0.64820  -0.64355  -0.64113  -0.63661  -0.63644
 Alpha  occ. eigenvalues --   -0.63217  -0.63123  -0.62875  -0.61950  -0.61895
 Alpha  occ. eigenvalues --   -0.61227  -0.61001  -0.60900  -0.60305  -0.60085
 Alpha  occ. eigenvalues --   -0.59484  -0.59475  -0.59300  -0.59051  -0.58423
 Alpha  occ. eigenvalues --   -0.58190  -0.57755  -0.57675  -0.56448  -0.56340
 Alpha  occ. eigenvalues --   -0.55990  -0.55329  -0.54750  -0.54545  -0.54171
 Alpha  occ. eigenvalues --   -0.53893  -0.53637  -0.53379  -0.53278  -0.52643
 Alpha  occ. eigenvalues --   -0.52359  -0.52210  -0.52065  -0.51697  -0.51545
 Alpha  occ. eigenvalues --   -0.51011  -0.50659  -0.50365  -0.50070  -0.49815
 Alpha  occ. eigenvalues --   -0.49681  -0.49586  -0.49420  -0.49034  -0.48917
 Alpha  occ. eigenvalues --   -0.48485  -0.48283  -0.47979  -0.47902  -0.47550
 Alpha  occ. eigenvalues --   -0.47395  -0.47182  -0.46678  -0.46508  -0.46211
 Alpha  occ. eigenvalues --   -0.45923  -0.45814  -0.45614  -0.45316  -0.45200
 Alpha  occ. eigenvalues --   -0.44933  -0.44758  -0.44233  -0.44100  -0.43859
 Alpha  occ. eigenvalues --   -0.43812  -0.43781  -0.42527  -0.42316  -0.42130
 Alpha  occ. eigenvalues --   -0.41744  -0.41095  -0.40831  -0.39047  -0.38712
 Alpha  occ. eigenvalues --   -0.38016  -0.36854  -0.36085  -0.34832  -0.34711
 Alpha  occ. eigenvalues --   -0.33598  -0.32374  -0.32216  -0.30956  -0.26696
 Alpha  occ. eigenvalues --   -0.20891
 Alpha virt. eigenvalues --   -0.07895  -0.02095  -0.00593   0.00813   0.01480
 Alpha virt. eigenvalues --    0.02249   0.02840   0.03125   0.04658   0.04999
 Alpha virt. eigenvalues --    0.06256   0.06570   0.07409   0.08064   0.08156

 Mulliken charges:
               1
     1  Mg   0.437219
     2  C   -0.023659
     3  C   -0.082130
     4  C   -0.073472
     5  C   -0.083918
     6  N   -0.285043
     7  C    0.097527
     8  C   -0.006968
     9  C    0.003300
    10  C    0.163606
    11  C   -0.048032
    12  C   -0.019379
    13  C    0.006837
    14  C    0.456549
    15  O   -0.519000
    16  O   -0.243300
    17  N   -0.358381
    18  C    0.121144
    19  C    0.001950
    20  C   -0.041179
    21  C    0.157481
    22  C   -0.043475
    23  C    0.334062
    24  O   -0.520501
    25  C   -0.023785
    26  N   -0.265123
    27  C    0.175126
    28  C   -0.000651
    29  C   -0.002367
    30  C    0.108123
    31  C   -0.054810
    32  C   -0.032356
    33  C   -0.052677
    34  N   -0.321757
    35  C    0.081225
    36  C    0.015629
    37  C   -0.054913
    38  C    0.109359
    39  C   -0.039409
    40  C    0.332897
    41  O   -0.533702
    42  C    0.047974
    43  C    0.502171
    44  O   -0.526589
    45  O   -0.261342
    46  C    0.070188
    47  C    0.116449
    48  C   -0.099729
    49  C   -0.018037
    50  C   -0.041809
    51  C   -0.022802
    52  C   -0.030721
    53  C   -0.033683
    54  C   -0.010895
    55  C   -0.056517
    56  C   -0.030792
    57  C   -0.033549
    58  C   -0.029574
    59  C   -0.007501
    60  C   -0.068296
    61  C   -0.023991
    62  C   -0.038412
    63  C   -0.040762
    64  C   -0.012102
    65  C   -0.058031
    66  C   -0.062407
    67  H    0.023713
    68  H    0.031625
    69  H    0.023070
    70  H    0.029537
    71  H    0.032089
    72  H    0.017229
    73  H    0.023193
    74  H    0.024954
    75  H    0.053129
    76  H    0.025312
    77  H    0.028003
    78  H    0.043523
    79  H    0.033474
    80  H    0.039823
    81  H    0.028363
    82  H    0.041756
    83  H    0.051551
    84  H    0.031560
    85  H    0.035106
    86  H    0.036401
    87  H    0.024235
    88  H    0.019220
    89  H    0.025264
    90  H    0.016430
    91  H    0.023080
    92  H    0.023071
    93  H    0.020572
    94  H    0.023275
    95  H    0.033932
    96  H    0.020679
    97  H    0.033501
    98  H    0.062259
    99  H    0.038151
   100  H    0.049996
   101  H    0.033116
   102  H    0.065095
   103  H    0.027249
   104  H    0.019917
   105  H    0.023422
   106  H    0.020867
   107  H    0.039194
   108  H    0.030320
   109  H    0.018946
   110  H    0.019260
   111  H    0.019412
   112  H    0.024279
   113  H    0.020731
   114  H    0.013890
   115  H    0.014098
   116  H    0.015980
   117  H    0.016727
   118  H    0.020948
   119  H    0.007127
   120  H    0.022923
   121  H    0.019231
   122  H    0.015194
   123  H    0.019804
   124  H    0.020972
   125  H    0.008755
   126  H    0.018879
   127  H    0.015157
   128  H    0.018458
   129  H    0.020291
   130  H    0.008746
   131  H    0.026764
   132  H    0.018833
   133  H    0.017184
   134  H    0.026725
   135  H    0.010149
   136  H    0.029534
   137  H    0.014706
   138  H    0.025004
   139  H    0.008207
   140  H    0.015542
 Sum of Mulliken charges =  -0.00000

 Dipole moment (field-independent basis, Debye):
    X=             -4.4981    Y=              4.6262    Z=             -6.1087  Tot=              8.8855
 N-N= 4.211214871479D+03 E-N= 0.000000000000D+00  KE=-9.097062895942D+03
 Leave Link  601 at Wed May  4 04:47:42 2022, MaxMem=  6710886400 cpu:               0.8 elap:               0.0
 (Enter /sw/apps/gaussian-16.0/g16/l9999.exe)
 1\1\GINC-BP1-COMPUTE089\SP\RZINDO CIS\STO-3G\C55H74Mg1N4O6\OF15641\04-
 May-2022\0\\#p ZINDO=(nstates=5)\\step_1351_chromophore_22 ZINDO\\0,1\
 Mg,0,8.805,47.945,24.884\C,0,6.641,47.916,27.515\C,0,11.293,49.297,26.
 836\C,0,10.81,47.591,22.353\C,0,5.959,47.534,22.724\N,0,8.891,48.616,2
 6.942\C,0,7.829,48.49,27.868\C,0,8.32,49.017,29.201\C,0,9.785,49.643,2
 8.849\C,0,10.,49.193,27.427\C,0,9.846,51.159,29.042\C,0,8.228,47.94,30
 .354\C,0,9.185,48.108,31.529\C,0,8.925,47.022,32.677\O,0,9.137,45.8,32

 Normal termination of Gaussian 16 at Wed May  4 04:47:42 2022.
