 Gaussian 16, Revision A.03,
 Gaussian 16:  ES64L-G16RevA.03 25-Dec-2016

 ------------------------------
 #p blyp/Def2SVP td=(nstates=5)
 ------------------------------

 --------------------------------------------------
 step_1601_chromophore_4 TDDFT with blyp functional
 --------------------------------------------------
 Symbolic Z-matrix:
 Charge =  0 Multiplicity = 1

                         Standard orientation:
 ---------------------------------------------------------------------
 Center     Atomic      Atomic             Coordinates (Angstroms)
 Number     Number       Type             X           Y           Z
 ---------------------------------------------------------------------
      1         12           0        5.717325    0.655713    0.353099
      2          6           0        3.387260   -2.109607    0.302133
      3          6           0        3.120599    2.796527   -0.232184
      4          6           0        8.035950    2.932226   -0.447486
      5          6           0        8.346526   -1.832955    0.387433
      6          7           0        3.552289    0.281552   -0.188535
      7          6           0        2.792674   -0.856439   -0.029250
      8          6           0        1.287658   -0.545076   -0.002563
      9          6           0        1.246679    0.981757   -0.487743
     10          6           0        2.729296    1.366058   -0.267625
     11          6           0        0.820794    1.257891   -1.960165
     12          6           0        0.591005   -0.740882    1.430277
     13          6           0       -0.573299   -1.707771    1.370016
     14          6           0       -1.513018   -1.694938    0.149858
     15          8           0       -1.674794   -0.811771   -0.714058
     16          8           0       -2.203218   -2.898139    0.114551
     17          7           0        5.597714    2.565699   -0.168359
     18          6           0        4.461380    3.335999   -0.190717
     19          6           0        4.800732    4.765361   -0.390881
     20          6           0        6.215923    4.794837   -0.539521
     21          6           0        6.686312    3.394061   -0.434574
     22          6           0        3.782800    5.852543   -0.447644
     23          6           0        7.115376    6.012045   -0.849972
     24          8           0        8.326442    5.883990   -1.103467
     25          6           0        6.583036    7.309597   -0.747379
     26          7           0        7.826536    0.558670   -0.100523
     27          6           0        8.578806    1.704569   -0.220128
     28          6           0       10.055818    1.519190   -0.172923
     29          6           0       10.140133   -0.033248    0.244283
     30          6           0        8.685548   -0.495993    0.154160
     31          6           0       10.821114    1.860294   -1.476045
     32          6           0       10.650737   -0.240839    1.746929
     33          6           0        9.596522    0.084776    2.808481
     34          7           0        5.897586   -1.505321    0.549979
     35          6           0        7.021558   -2.393295    0.465300
     36          6           0        6.572137   -3.771423    0.561517
     37          6           0        5.168269   -3.649339    0.607074
     38          6           0        4.809545   -2.297224    0.528564
     39          6           0        7.432145   -4.917340    0.434622
     40          6           0        3.948702   -4.462978    0.625951
     41          8           0        3.674230   -5.661282    0.640566
     42          6           0        2.696495   -3.444103    0.593264
     43          6           0        1.841572   -3.912793   -0.552457
     44          8           0        2.061005   -3.593814   -1.720715
     45          8           0        0.716663   -4.699767   -0.208142
     46          6           0       -0.176988   -5.109775   -1.376104
     47          6           0       -3.289971   -2.991476   -0.857459
     48          6           0       -4.623170   -2.739561   -0.294656
     49          6           0       -5.638108   -3.583195   -0.246639
     50          6           0       -5.622653   -4.953428   -0.770551
     51          6           0       -6.961717   -3.062008    0.265939
     52          6           0       -7.546978   -1.962762   -0.603000
     53          6           0       -7.326260   -0.506177   -0.148018
     54          6           0       -8.676599    0.332591   -0.065043
     55          6           0       -8.823551    1.173976   -1.373052
     56          6           0       -8.654912    1.287379    1.117059
     57          6           0      -10.116003    1.438818    1.738258
     58          6           0      -10.698406    2.866902    1.838812
     59          6           0      -12.239123    2.868116    2.098295
     60          6           0      -12.582802    3.718118    3.287350
     61          6           0      -13.013228    3.274235    0.830340
     62          6           0      -14.216446    2.303696    0.586083
     63          6           0      -14.273726    1.880430   -0.925142
     64          6           0      -13.782997    0.377904   -1.157845
     65          6           0      -12.344470    0.421730   -1.611500
     66          6           0      -14.655606   -0.225293   -2.250699
     67          1           0        2.259964    3.446699   -0.399475
     68          1           0        8.711833    3.788691   -0.390309
     69          1           0        9.230842   -2.472965    0.400783
     70          1           0        0.811903   -1.217964   -0.716635
     71          1           0        0.562514    1.498691    0.185863
     72          1           0        0.230244    2.173115   -2.005559
     73          1           0        0.266176    0.415186   -2.372584
     74          1           0        1.699827    1.406084   -2.587862
     75          1           0        0.286410    0.073405    2.087719
     76          1           0        1.320585   -1.245214    2.063093
     77          1           0       -1.314082   -1.495767    2.141365
     78          1           0       -0.120900   -2.669261    1.615866
     79          1           0        2.775803    5.520844   -0.193529
     80          1           0        3.777030    6.176386   -1.487895
     81          1           0        4.062770    6.652031    0.237491
     82          1           0        6.345883    7.275556    0.316787
     83          1           0        5.732391    7.554331   -1.382674
     84          1           0        7.339305    8.057843   -0.983971
     85          1           0       10.648018    2.060805    0.565253
     86          1           0       10.865792   -0.606157   -0.332235
     87          1           0       10.187246    2.160924   -2.309947
     88          1           0       11.234473    0.928007   -1.858387
     89          1           0       11.577532    2.628792   -1.315588
     90          1           0       11.560571    0.332319    1.927790
     91          1           0       10.802081   -1.320513    1.759418
     92          1           0        8.972966    0.910958    2.465348
     93          1           0       10.059605    0.444118    3.727780
     94          1           0        8.994334   -0.819851    2.894857
     95          1           0        7.735589   -5.312393    1.403569
     96          1           0        8.378871   -4.664166   -0.042318
     97          1           0        6.921729   -5.740273   -0.067431
     98          1           0        2.178684   -3.544294    1.547465
     99          1           0       -0.931309   -5.761610   -0.936995
    100          1           0        0.412821   -5.638596   -2.124232
    101          1           0       -0.649742   -4.223496   -1.800601
    102          1           0       -3.290375   -3.896188   -1.465059
    103          1           0       -3.231734   -2.220280   -1.626377
    104          1           0       -4.826002   -1.726070    0.049511
    105          1           0       -6.403672   -4.993756   -1.530451
    106          1           0       -5.943133   -5.680383   -0.024468
    107          1           0       -4.712729   -5.272035   -1.277072
    108          1           0       -6.680151   -2.573029    1.198457
    109          1           0       -7.604824   -3.869279    0.618256
    110          1           0       -8.607984   -2.200888   -0.680681
    111          1           0       -7.071400   -2.033198   -1.581216
    112          1           0       -6.718727    0.004440   -0.895353
    113          1           0       -6.746265   -0.380526    0.765881
    114          1           0       -9.531178   -0.343799   -0.067119
    115          1           0       -9.585188    0.601694   -1.901830
    116          1           0       -7.919871    1.408310   -1.934952
    117          1           0       -9.365113    2.090456   -1.139342
    118          1           0       -8.204659    2.218379    0.773210
    119          1           0       -8.050001    0.998871    1.976350
    120          1           0      -10.039474    0.940989    2.705440
    121          1           0      -10.822728    0.872071    1.132832
    122          1           0      -10.532394    3.409775    0.908105
    123          1           0      -10.208556    3.357084    2.680563
    124          1           0      -12.532167    1.871125    2.425879
    125          1           0      -12.555659    3.148632    4.216702
    126          1           0      -13.607930    4.052617    3.128654
    127          1           0      -11.888037    4.553204    3.375519
    128          1           0      -12.364930    3.179885   -0.040699
    129          1           0      -13.239481    4.339555    0.883306
    130          1           0      -15.175607    2.672324    0.949630
    131          1           0      -14.060321    1.359445    1.109061
    132          1           0      -13.670570    2.530727   -1.559391
    133          1           0      -15.296207    2.054523   -1.257731
    134          1           0      -13.735785   -0.224840   -0.251013
    135          1           0      -11.648398   -0.115519   -0.967037
    136          1           0      -12.001397    1.442629   -1.776700
    137          1           0      -12.201602   -0.097462   -2.559176
    138          1           0      -14.208024   -0.861061   -3.015409
    139          1           0      -15.216063    0.535639   -2.794349
    140          1           0      -15.397259   -0.883079   -1.797374
 ---------------------------------------------------------------------

 SCF Done:  E(RB-LYP) =  -3007.37244472     A.U. after   21 cycles

 Excitation energies and oscillator strengths:

 Excited State   1:      Singlet-A      1.7628 eV  703.33 nm  f=0.2764  <S**2>=0.000
     245 -> 248       -0.19250
     246 -> 247        0.68532
     246 <- 247       -0.15013
 This state for optimization and/or second-order correction.
 Total Energy, E(TD-HF/TD-DFT) =  -3007.30766217
 Copying the excited state density for this state as the 1-particle RhoCI density.

 Excited State   2:      Singlet-A      1.8651 eV  664.76 nm  f=0.0534  <S**2>=0.000
     243 -> 247       -0.10177
     244 -> 247        0.41900
     245 -> 247        0.53369
     246 -> 248        0.14219

 Excited State   3:      Singlet-A      2.0173 eV  614.60 nm  f=0.0095  <S**2>=0.000
     243 -> 247        0.52644
     244 -> 247        0.41599
     245 -> 247       -0.19327

 Excited State   4:      Singlet-A      2.0791 eV  596.34 nm  f=0.0308  <S**2>=0.000
     243 -> 247        0.45492
     244 -> 247       -0.37422
     245 -> 247        0.32426
     246 -> 248        0.18455

 Excited State   5:      Singlet-A      2.4335 eV  509.50 nm  f=0.0002  <S**2>=0.000
     241 -> 247        0.69966

 The electronic state is 1-A.
 Alpha  occ. eigenvalues --  -46.27466 -18.82217 -18.80673 -18.77605 -18.75692
 Alpha  occ. eigenvalues --  -18.75523 -18.75384 -14.03380 -14.02666 -14.01308
 Alpha  occ. eigenvalues --  -14.00721 -10.05003 -10.03098  -9.99823  -9.99665
 Alpha  occ. eigenvalues --   -9.97086  -9.96993  -9.96881  -9.96356  -9.96200
 Alpha  occ. eigenvalues --   -9.96088  -9.95980  -9.95574  -9.95515  -9.94470
 Alpha  occ. eigenvalues --   -9.94214  -9.93990  -9.93932  -9.93901  -9.93872
 Alpha  occ. eigenvalues --   -9.93715  -9.93495  -9.93461  -9.93401  -9.93375
 Alpha  occ. eigenvalues --   -9.93304  -9.93160  -9.93074  -9.92605  -9.92526
 Alpha  occ. eigenvalues --   -9.92316  -9.92295  -9.92197  -9.92174  -9.91984
 Alpha  occ. eigenvalues --   -9.91827  -9.91737  -9.91621  -9.91509  -9.91346
 Alpha  occ. eigenvalues --   -9.91331  -9.91275  -9.91242  -9.91222  -9.91209
 Alpha  occ. eigenvalues --   -9.91132  -9.91076  -9.91054  -9.90935  -9.90884
 Alpha  occ. eigenvalues --   -9.90821  -9.90684  -9.90678  -9.90613  -9.90480
 Alpha  occ. eigenvalues --   -9.90347  -2.92055  -1.72431  -1.71967  -1.71772
 Alpha  occ. eigenvalues --   -0.97314  -0.94763  -0.90792  -0.90653  -0.89365
 Alpha  occ. eigenvalues --   -0.87293  -0.85515  -0.84963  -0.84586  -0.83972
 Alpha  occ. eigenvalues --   -0.74617  -0.73993  -0.73107  -0.72317  -0.71985
 Alpha  occ. eigenvalues --   -0.71724  -0.71256  -0.71175  -0.70821  -0.70346
 Alpha  occ. eigenvalues --   -0.69513  -0.68812  -0.68078  -0.67476  -0.66785
 Alpha  occ. eigenvalues --   -0.66563  -0.66055  -0.65386  -0.64656  -0.64264
 Alpha  occ. eigenvalues --   -0.63634  -0.62472  -0.61866  -0.61003  -0.60735
 Alpha  occ. eigenvalues --   -0.60438  -0.60117  -0.59417  -0.59351  -0.58736
 Alpha  occ. eigenvalues --   -0.58496  -0.57242  -0.55837  -0.55524  -0.54354
 Alpha  occ. eigenvalues --   -0.53601  -0.53078  -0.52312  -0.52217  -0.50842
 Alpha  occ. eigenvalues --   -0.50641  -0.50325  -0.50079  -0.49903  -0.49712
 Alpha  occ. eigenvalues --   -0.49399  -0.49288  -0.48682  -0.46758  -0.46357
 Alpha  occ. eigenvalues --   -0.46256  -0.45671  -0.45433  -0.44509  -0.44139
 Alpha  occ. eigenvalues --   -0.43723  -0.43436  -0.43163  -0.42693  -0.42236
 Alpha  occ. eigenvalues --   -0.41919  -0.41743  -0.41380  -0.41236  -0.41073
 Alpha  occ. eigenvalues --   -0.40726  -0.40537  -0.40436  -0.40286  -0.40104
 Alpha  occ. eigenvalues --   -0.39923  -0.39678  -0.39295  -0.39141  -0.38806
 Alpha  occ. eigenvalues --   -0.38678  -0.38579  -0.38325  -0.38075  -0.37885
 Alpha  occ. eigenvalues --   -0.37729  -0.37592  -0.37476  -0.37282  -0.37102
 Alpha  occ. eigenvalues --   -0.36864  -0.36827  -0.36634  -0.36284  -0.36077
 Alpha  occ. eigenvalues --   -0.36024  -0.35804  -0.35617  -0.35353  -0.35261
 Alpha  occ. eigenvalues --   -0.35198  -0.35053  -0.34903  -0.34716  -0.34291
 Alpha  occ. eigenvalues --   -0.34179  -0.34051  -0.33946  -0.33794  -0.33726
 Alpha  occ. eigenvalues --   -0.33585  -0.33248  -0.33110  -0.33044  -0.32922
 Alpha  occ. eigenvalues --   -0.32798  -0.32543  -0.32266  -0.32047  -0.31843
 Alpha  occ. eigenvalues --   -0.31728  -0.31677  -0.31523  -0.31392  -0.31219
 Alpha  occ. eigenvalues --   -0.31181  -0.30825  -0.30414  -0.30147  -0.30047
 Alpha  occ. eigenvalues --   -0.29941  -0.29845  -0.29602  -0.29519  -0.29437
 Alpha  occ. eigenvalues --   -0.29369  -0.29156  -0.28980  -0.28881  -0.28700
 Alpha  occ. eigenvalues --   -0.28680  -0.28629  -0.28270  -0.28098  -0.27768
 Alpha  occ. eigenvalues --   -0.27588  -0.27231  -0.27086  -0.26862  -0.26576
 Alpha  occ. eigenvalues --   -0.26180  -0.25725  -0.25481  -0.25449  -0.25334
 Alpha  occ. eigenvalues --   -0.24887  -0.24338  -0.23766  -0.23562  -0.23380
 Alpha  occ. eigenvalues --   -0.23169  -0.22653  -0.21557  -0.20828  -0.20673
 Alpha  occ. eigenvalues --   -0.20230  -0.19986  -0.18687  -0.18403  -0.16768
 Alpha  occ. eigenvalues --   -0.15436
 Alpha virt. eigenvalues --   -0.11286  -0.06674  -0.05904  -0.04653  -0.03559
 Alpha virt. eigenvalues --   -0.03251  -0.02151  -0.01611  -0.01468  -0.00005
 Alpha virt. eigenvalues --    0.01063   0.02168   0.02497   0.02706   0.02827

 Mulliken charges:
               1
     1  Mg   0.704450
     2  C    0.000633
     3  C   -0.046018
     4  C   -0.039200
     5  C   -0.069282
     6  N   -0.195885
     7  C   -0.050644
     8  C    0.014840
     9  C   -0.003923
    10  C   -0.009924
    11  C    0.138679
    12  C    0.159711
    13  C    0.054060
    14  C    0.110033
    15  O   -0.209020
    16  O   -0.268072
    17  N   -0.337233
    18  C    0.154633
    19  C   -0.164704
    20  C    0.010804
    21  C    0.074147
    22  C    0.185702
    23  C   -0.059856
    24  O   -0.182036
    25  C    0.154556
    26  N   -0.227977
    27  C    0.069870
    28  C    0.031673
    29  C   -0.002996
    30  C    0.020967
    31  C    0.130370
    32  C    0.032256
    33  C    0.096889
    34  N   -0.261035
    35  C    0.110307
    36  C   -0.143708
    37  C    0.075199
    38  C    0.086150
    39  C    0.182398
    40  C   -0.057090
    41  O   -0.135115
    42  C    0.065150
    43  C    0.123956
    44  O   -0.199086
    45  O   -0.310433
    46  C    0.220361
    47  C    0.361193
    48  C   -0.123729
    49  C   -0.158833
    50  C    0.174425
    51  C    0.133939
    52  C    0.101142
    53  C    0.097759
    54  C   -0.117631
    55  C    0.100138
    56  C    0.117922
    57  C    0.027474
    58  C    0.133536
    59  C   -0.106831
    60  C    0.120568
    61  C    0.127345
    62  C    0.081255
    63  C    0.069103
    64  C   -0.064781
    65  C    0.074906
    66  C    0.106538
    67  H   -0.059353
    68  H   -0.040105
    69  H   -0.060284
    70  H    0.004518
    71  H   -0.026326
    72  H   -0.010162
    73  H    0.010283
    74  H   -0.007996
    75  H   -0.020777
    76  H   -0.034389
    77  H    0.002835
    78  H    0.020549
    79  H   -0.010793
    80  H    0.012875
    81  H    0.004642
    82  H    0.018087
    83  H    0.010684
    84  H   -0.006945
    85  H   -0.023326
    86  H   -0.027397
    87  H   -0.007355
    88  H   -0.023413
    89  H    0.001757
    90  H   -0.013998
    91  H   -0.023212
    92  H   -0.008741
    93  H   -0.010812
    94  H    0.002210
    95  H   -0.008239
    96  H   -0.013743
    97  H    0.010004
    98  H    0.003559
    99  H    0.016095
   100  H    0.023026
   101  H    0.023971
   102  H   -0.033793
   103  H   -0.013303
   104  H   -0.046575
   105  H   -0.013458
   106  H   -0.005623
   107  H   -0.021074
   108  H   -0.029403
   109  H   -0.044205
   110  H   -0.026369
   111  H   -0.021982
   112  H   -0.036793
   113  H   -0.024562
   114  H   -0.015969
   115  H   -0.014941
   116  H   -0.000969
   117  H   -0.020966
   118  H   -0.034478
   119  H   -0.042418
   120  H   -0.027629
   121  H   -0.027662
   122  H   -0.033523
   123  H   -0.043543
   124  H   -0.040034
   125  H   -0.021973
   126  H   -0.025801
   127  H   -0.017566
   128  H   -0.039216
   129  H   -0.033403
   130  H   -0.026969
   131  H   -0.032142
   132  H   -0.026641
   133  H   -0.034799
   134  H   -0.028749
   135  H   -0.012612
   136  H   -0.007700
   137  H   -0.030604
   138  H   -0.022503
   139  H   -0.014585
   140  H   -0.023187
 Sum of Mulliken charges =  -0.00000

 Dipole moment (field-independent basis, Debye):
    X=             -3.5983    Y=              2.8602    Z=              2.8326  Tot=              5.3993
 Quadrupole moment (field-independent basis, Debye-Ang):
   XX=           -373.7217   YY=           -412.3035   ZZ=           -406.2438
   XY=             11.0864   XZ=             19.6699   YZ=              6.4675

 Normal termination of Gaussian 16 at Thu Apr 28 15:52:18 2022.
