 Gaussian 16, Revision A.03,
 Gaussian 16:  ES64L-G16RevA.03 25-Dec-2016

 -----------------------------------
 #p cam-b3lyp/Def2SVP td=(nstates=5)
 -----------------------------------

 -------------------------------------------------------
 step_1601_chromophore_4 TDDFT with cam-b3lyp functional
 -------------------------------------------------------
 Symbolic Z-matrix:
 Charge =  0 Multiplicity = 1

                         Standard orientation:
 ---------------------------------------------------------------------
 Center     Atomic      Atomic             Coordinates (Angstroms)
 Number     Number       Type             X           Y           Z
 ---------------------------------------------------------------------
      1         12           0        5.717325    0.655713    0.353099
      2          6           0        3.387260   -2.109607    0.302133
      3          6           0        3.120599    2.796527   -0.232184
      4          6           0        8.035950    2.932226   -0.447486
      5          6           0        8.346526   -1.832955    0.387433
      6          7           0        3.552289    0.281552   -0.188535
      7          6           0        2.792674   -0.856439   -0.029250
      8          6           0        1.287658   -0.545076   -0.002563
      9          6           0        1.246679    0.981757   -0.487743
     10          6           0        2.729296    1.366058   -0.267625
     11          6           0        0.820794    1.257891   -1.960165
     12          6           0        0.591005   -0.740882    1.430277
     13          6           0       -0.573299   -1.707771    1.370016
     14          6           0       -1.513018   -1.694938    0.149858
     15          8           0       -1.674794   -0.811771   -0.714058
     16          8           0       -2.203218   -2.898139    0.114551
     17          7           0        5.597714    2.565699   -0.168359
     18          6           0        4.461380    3.335999   -0.190717
     19          6           0        4.800732    4.765361   -0.390881
     20          6           0        6.215923    4.794837   -0.539521
     21          6           0        6.686312    3.394061   -0.434574
     22          6           0        3.782800    5.852543   -0.447644
     23          6           0        7.115376    6.012045   -0.849972
     24          8           0        8.326442    5.883990   -1.103467
     25          6           0        6.583036    7.309597   -0.747379
     26          7           0        7.826536    0.558670   -0.100523
     27          6           0        8.578806    1.704569   -0.220128
     28          6           0       10.055818    1.519190   -0.172923
     29          6           0       10.140133   -0.033248    0.244283
     30          6           0        8.685548   -0.495993    0.154160
     31          6           0       10.821114    1.860294   -1.476045
     32          6           0       10.650737   -0.240839    1.746929
     33          6           0        9.596522    0.084776    2.808481
     34          7           0        5.897586   -1.505321    0.549979
     35          6           0        7.021558   -2.393295    0.465300
     36          6           0        6.572137   -3.771423    0.561517
     37          6           0        5.168269   -3.649339    0.607074
     38          6           0        4.809545   -2.297224    0.528564
     39          6           0        7.432145   -4.917340    0.434622
     40          6           0        3.948702   -4.462978    0.625951
     41          8           0        3.674230   -5.661282    0.640566
     42          6           0        2.696495   -3.444103    0.593264
     43          6           0        1.841572   -3.912793   -0.552457
     44          8           0        2.061005   -3.593814   -1.720715
     45          8           0        0.716663   -4.699767   -0.208142
     46          6           0       -0.176988   -5.109775   -1.376104
     47          6           0       -3.289971   -2.991476   -0.857459
     48          6           0       -4.623170   -2.739561   -0.294656
     49          6           0       -5.638108   -3.583195   -0.246639
     50          6           0       -5.622653   -4.953428   -0.770551
     51          6           0       -6.961717   -3.062008    0.265939
     52          6           0       -7.546978   -1.962762   -0.603000
     53          6           0       -7.326260   -0.506177   -0.148018
     54          6           0       -8.676599    0.332591   -0.065043
     55          6           0       -8.823551    1.173976   -1.373052
     56          6           0       -8.654912    1.287379    1.117059
     57          6           0      -10.116003    1.438818    1.738258
     58          6           0      -10.698406    2.866902    1.838812
     59          6           0      -12.239123    2.868116    2.098295
     60          6           0      -12.582802    3.718118    3.287350
     61          6           0      -13.013228    3.274235    0.830340
     62          6           0      -14.216446    2.303696    0.586083
     63          6           0      -14.273726    1.880430   -0.925142
     64          6           0      -13.782997    0.377904   -1.157845
     65          6           0      -12.344470    0.421730   -1.611500
     66          6           0      -14.655606   -0.225293   -2.250699
     67          1           0        2.259964    3.446699   -0.399475
     68          1           0        8.711833    3.788691   -0.390309
     69          1           0        9.230842   -2.472965    0.400783
     70          1           0        0.811903   -1.217964   -0.716635
     71          1           0        0.562514    1.498691    0.185863
     72          1           0        0.230244    2.173115   -2.005559
     73          1           0        0.266176    0.415186   -2.372584
     74          1           0        1.699827    1.406084   -2.587862
     75          1           0        0.286410    0.073405    2.087719
     76          1           0        1.320585   -1.245214    2.063093
     77          1           0       -1.314082   -1.495767    2.141365
     78          1           0       -0.120900   -2.669261    1.615866
     79          1           0        2.775803    5.520844   -0.193529
     80          1           0        3.777030    6.176386   -1.487895
     81          1           0        4.062770    6.652031    0.237491
     82          1           0        6.345883    7.275556    0.316787
     83          1           0        5.732391    7.554331   -1.382674
     84          1           0        7.339305    8.057843   -0.983971
     85          1           0       10.648018    2.060805    0.565253
     86          1           0       10.865792   -0.606157   -0.332235
     87          1           0       10.187246    2.160924   -2.309947
     88          1           0       11.234473    0.928007   -1.858387
     89          1           0       11.577532    2.628792   -1.315588
     90          1           0       11.560571    0.332319    1.927790
     91          1           0       10.802081   -1.320513    1.759418
     92          1           0        8.972966    0.910958    2.465348
     93          1           0       10.059605    0.444118    3.727780
     94          1           0        8.994334   -0.819851    2.894857
     95          1           0        7.735589   -5.312393    1.403569
     96          1           0        8.378871   -4.664166   -0.042318
     97          1           0        6.921729   -5.740273   -0.067431
     98          1           0        2.178684   -3.544294    1.547465
     99          1           0       -0.931309   -5.761610   -0.936995
    100          1           0        0.412821   -5.638596   -2.124232
    101          1           0       -0.649742   -4.223496   -1.800601
    102          1           0       -3.290375   -3.896188   -1.465059
    103          1           0       -3.231734   -2.220280   -1.626377
    104          1           0       -4.826002   -1.726070    0.049511
    105          1           0       -6.403672   -4.993756   -1.530451
    106          1           0       -5.943133   -5.680383   -0.024468
    107          1           0       -4.712729   -5.272035   -1.277072
    108          1           0       -6.680151   -2.573029    1.198457
    109          1           0       -7.604824   -3.869279    0.618256
    110          1           0       -8.607984   -2.200888   -0.680681
    111          1           0       -7.071400   -2.033198   -1.581216
    112          1           0       -6.718727    0.004440   -0.895353
    113          1           0       -6.746265   -0.380526    0.765881
    114          1           0       -9.531178   -0.343799   -0.067119
    115          1           0       -9.585188    0.601694   -1.901830
    116          1           0       -7.919871    1.408310   -1.934952
    117          1           0       -9.365113    2.090456   -1.139342
    118          1           0       -8.204659    2.218379    0.773210
    119          1           0       -8.050001    0.998871    1.976350
    120          1           0      -10.039474    0.940989    2.705440
    121          1           0      -10.822728    0.872071    1.132832
    122          1           0      -10.532394    3.409775    0.908105
    123          1           0      -10.208556    3.357084    2.680563
    124          1           0      -12.532167    1.871125    2.425879
    125          1           0      -12.555659    3.148632    4.216702
    126          1           0      -13.607930    4.052617    3.128654
    127          1           0      -11.888037    4.553204    3.375519
    128          1           0      -12.364930    3.179885   -0.040699
    129          1           0      -13.239481    4.339555    0.883306
    130          1           0      -15.175607    2.672324    0.949630
    131          1           0      -14.060321    1.359445    1.109061
    132          1           0      -13.670570    2.530727   -1.559391
    133          1           0      -15.296207    2.054523   -1.257731
    134          1           0      -13.735785   -0.224840   -0.251013
    135          1           0      -11.648398   -0.115519   -0.967037
    136          1           0      -12.001397    1.442629   -1.776700
    137          1           0      -12.201602   -0.097462   -2.559176
    138          1           0      -14.208024   -0.861061   -3.015409
    139          1           0      -15.216063    0.535639   -2.794349
    140          1           0      -15.397259   -0.883079   -1.797374
 ---------------------------------------------------------------------

 SCF Done:  E(RCAM-B3LYP) =  -3007.15945666     A.U. after   19 cycles

 Excitation energies and oscillator strengths:

 Excited State   1:      Singlet-A      1.6612 eV  746.34 nm  f=0.3631  <S**2>=0.000
     245 -> 248       -0.18064
     246 -> 247        0.68526
     245 <- 248       -0.10936
 This state for optimization and/or second-order correction.
 Total Energy, E(TD-HF/TD-DFT) =  -3007.09840721
 Copying the excited state density for this state as the 1-particle RhoCI density.

 Excited State   2:      Singlet-A      2.1771 eV  569.48 nm  f=0.1216  <S**2>=0.000
     245 -> 247        0.64082
     246 -> 248        0.28506

 Excited State   3:      Singlet-A      3.3418 eV  371.01 nm  f=0.0317  <S**2>=0.000
     243 -> 247        0.13123
     244 -> 247        0.62910
     246 -> 248       -0.23930

 Excited State   4:      Singlet-A      3.4601 eV  358.33 nm  f=0.5184  <S**2>=0.000
     240 -> 247       -0.13213
     241 -> 247       -0.27791
     244 -> 247        0.21179
     245 -> 247       -0.23409
     246 -> 248        0.53468

 Excited State   5:      Singlet-A      3.5493 eV  349.32 nm  f=0.0046  <S**2>=0.000
     240 -> 247       -0.16160
     241 -> 247        0.13936
     241 -> 249       -0.15264
     241 -> 251       -0.12782
     243 -> 247        0.52916
     243 -> 249       -0.18902
     243 -> 251       -0.16699
     244 -> 247       -0.12996

 The electronic state is 1-A.
 Alpha  occ. eigenvalues --  -46.89036 -19.25104 -19.23501 -19.20583 -19.18837
 Alpha  occ. eigenvalues --  -19.18730 -19.18486 -14.42393 -14.41450 -14.39992
 Alpha  occ. eigenvalues --  -14.38945 -10.40445 -10.38576 -10.35279 -10.34892
 Alpha  occ. eigenvalues --  -10.31733 -10.31091 -10.31063 -10.31037 -10.30974
 Alpha  occ. eigenvalues --  -10.30711 -10.30184 -10.30142 -10.29410 -10.29340
 Alpha  occ. eigenvalues --  -10.28502 -10.28320 -10.28220 -10.28183 -10.28029
 Alpha  occ. eigenvalues --  -10.27924 -10.27872 -10.27675 -10.27610 -10.27293
 Alpha  occ. eigenvalues --  -10.27260 -10.27208 -10.27145 -10.26483 -10.26390
 Alpha  occ. eigenvalues --  -10.26350 -10.26145 -10.25994 -10.25814 -10.25750
 Alpha  occ. eigenvalues --  -10.25373 -10.25295 -10.25198 -10.25151 -10.25123
 Alpha  occ. eigenvalues --  -10.25051 -10.25018 -10.24957 -10.24939 -10.24929
 Alpha  occ. eigenvalues --  -10.24892 -10.24752 -10.24745 -10.24625 -10.24578
 Alpha  occ. eigenvalues --  -10.24506 -10.24473 -10.24306 -10.24253 -10.24100
 Alpha  occ. eigenvalues --  -10.23917  -3.17524  -1.92379  -1.91993  -1.91836
 Alpha  occ. eigenvalues --   -1.15732  -1.13191  -1.09418  -1.08840  -1.07182
 Alpha  occ. eigenvalues --   -1.05022  -1.03280  -1.02634  -1.02183  -1.01357
 Alpha  occ. eigenvalues --   -0.91582  -0.90937  -0.89935  -0.89073  -0.88699
 Alpha  occ. eigenvalues --   -0.88614  -0.87917  -0.87867  -0.87474  -0.86677
 Alpha  occ. eigenvalues --   -0.86097  -0.85196  -0.84477  -0.83962  -0.82860
 Alpha  occ. eigenvalues --   -0.82619  -0.82141  -0.81306  -0.80567  -0.80089
 Alpha  occ. eigenvalues --   -0.79373  -0.78389  -0.77402  -0.76349  -0.76116
 Alpha  occ. eigenvalues --   -0.75812  -0.75442  -0.74719  -0.74585  -0.73950
 Alpha  occ. eigenvalues --   -0.73605  -0.72167  -0.70740  -0.70336  -0.68891
 Alpha  occ. eigenvalues --   -0.68180  -0.67707  -0.66819  -0.66604  -0.65009
 Alpha  occ. eigenvalues --   -0.64808  -0.64412  -0.64108  -0.63947  -0.63604
 Alpha  occ. eigenvalues --   -0.63213  -0.63102  -0.62609  -0.60325  -0.60157
 Alpha  occ. eigenvalues --   -0.59769  -0.59274  -0.58796  -0.58009  -0.57499
 Alpha  occ. eigenvalues --   -0.57054  -0.56843  -0.56340  -0.55928  -0.55310
 Alpha  occ. eigenvalues --   -0.54895  -0.54577  -0.54359  -0.54272  -0.53978
 Alpha  occ. eigenvalues --   -0.53574  -0.53350  -0.53143  -0.52973  -0.52787
 Alpha  occ. eigenvalues --   -0.52673  -0.52374  -0.52212  -0.51820  -0.51635
 Alpha  occ. eigenvalues --   -0.51337  -0.50932  -0.50741  -0.50584  -0.50487
 Alpha  occ. eigenvalues --   -0.50254  -0.50060  -0.49767  -0.49718  -0.49309
 Alpha  occ. eigenvalues --   -0.49179  -0.49083  -0.48928  -0.48631  -0.48550
 Alpha  occ. eigenvalues --   -0.48258  -0.48052  -0.47801  -0.47768  -0.47494
 Alpha  occ. eigenvalues --   -0.47263  -0.47154  -0.46828  -0.46602  -0.46002
 Alpha  occ. eigenvalues --   -0.45935  -0.45874  -0.45844  -0.45581  -0.45356
 Alpha  occ. eigenvalues --   -0.45319  -0.45163  -0.44870  -0.44767  -0.44608
 Alpha  occ. eigenvalues --   -0.44329  -0.44224  -0.43797  -0.43668  -0.43582
 Alpha  occ. eigenvalues --   -0.43319  -0.43273  -0.43243  -0.43057  -0.42879
 Alpha  occ. eigenvalues --   -0.42571  -0.42423  -0.41812  -0.41527  -0.41452
 Alpha  occ. eigenvalues --   -0.41280  -0.41236  -0.41071  -0.40997  -0.40929
 Alpha  occ. eigenvalues --   -0.40611  -0.40464  -0.40290  -0.40182  -0.40000
 Alpha  occ. eigenvalues --   -0.39759  -0.39651  -0.39232  -0.39076  -0.38732
 Alpha  occ. eigenvalues --   -0.38434  -0.38343  -0.37946  -0.37933  -0.37373
 Alpha  occ. eigenvalues --   -0.37245  -0.36561  -0.36372  -0.36114  -0.35957
 Alpha  occ. eigenvalues --   -0.35750  -0.35312  -0.34859  -0.34791  -0.34216
 Alpha  occ. eigenvalues --   -0.33679  -0.33053  -0.32496  -0.31344  -0.31074
 Alpha  occ. eigenvalues --   -0.30343  -0.29916  -0.29787  -0.28974  -0.23590
 Alpha  occ. eigenvalues --   -0.20723
 Alpha virt. eigenvalues --   -0.08473  -0.01509   0.00554   0.01754   0.02321
 Alpha virt. eigenvalues --    0.04292   0.05563   0.05783   0.06034   0.07295
 Alpha virt. eigenvalues --    0.08259   0.08520   0.08529   0.08858   0.09038

 Mulliken charges:
               1
     1  Mg   0.833332
     2  C   -0.021710
     3  C   -0.060877
     4  C   -0.057570
     5  C   -0.077543
     6  N   -0.261123
     7  C   -0.002814
     8  C   -0.041152
     9  C   -0.053947
    10  C    0.007603
    11  C    0.082414
    12  C    0.107322
    13  C   -0.011388
    14  C    0.187911
    15  O   -0.252817
    16  O   -0.330424
    17  N   -0.428592
    18  C    0.167798
    19  C   -0.167726
    20  C   -0.056454
    21  C    0.105478
    22  C    0.125013
    23  C    0.026982
    24  O   -0.222207
    25  C    0.061631
    26  N   -0.295635
    27  C    0.083819
    28  C   -0.026056
    29  C   -0.051525
    30  C    0.032752
    31  C    0.071613
    32  C   -0.014038
    33  C    0.032832
    34  N   -0.344422
    35  C    0.109279
    36  C   -0.136709
    37  C   -0.012010
    38  C    0.121260
    39  C    0.124009
    40  C    0.047741
    41  O   -0.176004
    42  C   -0.014411
    43  C    0.211896
    44  O   -0.234386
    45  O   -0.374826
    46  C    0.187503
    47  C    0.313861
    48  C   -0.135860
    49  C   -0.177630
    50  C    0.108988
    51  C    0.070025
    52  C    0.045118
    53  C    0.045393
    54  C   -0.168520
    55  C    0.048872
    56  C    0.062272
    57  C   -0.016334
    58  C    0.080493
    59  C   -0.164104
    60  C    0.064315
    61  C    0.071182
    62  C    0.028390
    63  C    0.015795
    64  C   -0.126616
    65  C    0.022253
    66  C    0.046135
    67  H   -0.023895
    68  H   -0.000665
    69  H   -0.026047
    70  H    0.035524
    71  H    0.009508
    72  H    0.012980
    73  H    0.036002
    74  H    0.018056
    75  H    0.009752
    76  H   -0.001553
    77  H    0.036183
    78  H    0.051902
    79  H    0.019139
    80  H    0.040598
    81  H    0.031943
    82  H    0.043611
    83  H    0.040370
    84  H    0.031213
    85  H    0.012686
    86  H    0.007569
    87  H    0.019818
    88  H    0.002377
    89  H    0.025387
    90  H    0.012246
    91  H    0.003986
    92  H    0.009734
    93  H    0.014529
    94  H    0.026240
    95  H    0.018433
    96  H    0.010302
    97  H    0.035756
    98  H    0.043527
    99  H    0.038769
   100  H    0.047173
   101  H    0.040739
   102  H   -0.006429
   103  H    0.022764
   104  H   -0.015204
   105  H    0.010725
   106  H    0.020024
   107  H    0.004334
   108  H    0.003035
   109  H   -0.010659
   110  H    0.001887
   111  H    0.007999
   112  H   -0.008480
   113  H    0.001039
   114  H    0.010623
   115  H    0.005529
   116  H    0.023188
   117  H   -0.000462
   118  H   -0.005235
   119  H   -0.011909
   120  H    0.000059
   121  H   -0.007034
   122  H   -0.007156
   123  H   -0.013662
   124  H   -0.007467
   125  H    0.003161
   126  H   -0.001592
   127  H    0.005907
   128  H   -0.013370
   129  H   -0.003111
   130  H    0.001683
   131  H   -0.004969
   132  H    0.001059
   133  H   -0.004559
   134  H    0.002967
   135  H    0.004654
   136  H    0.011294
   137  H   -0.004040
   138  H    0.002682
   139  H    0.009105
   140  H    0.001879
 Sum of Mulliken charges =  -0.00000

 Dipole moment (field-independent basis, Debye):
    X=             -3.8331    Y=              4.0468    Z=              2.8623  Tot=              6.2659
 Quadrupole moment (field-independent basis, Debye-Ang):
   XX=           -374.4169   YY=           -407.2850   ZZ=           -406.2270
   XY=             17.3624   XZ=             19.7283   YZ=              6.5240

 Normal termination of Gaussian 16 at Thu Apr 28 14:50:12 2022.
