 Gaussian 16, Revision A.03,
 Gaussian 16:  ES64L-G16RevA.03 25-Dec-2016

 ---------------------------------
 #p PBE1PBE/Def2SVP td=(nstates=5)
 ---------------------------------

 -----------------------------------------------------
 step_1601_chromophore_4 TDDFT with PBE1PBE functional
 -----------------------------------------------------
 Symbolic Z-matrix:
 Charge =  0 Multiplicity = 1

                         Standard orientation:
 ---------------------------------------------------------------------
 Center     Atomic      Atomic             Coordinates (Angstroms)
 Number     Number       Type             X           Y           Z
 ---------------------------------------------------------------------
      1         12           0        5.717325    0.655713    0.353099
      2          6           0        3.387260   -2.109607    0.302133
      3          6           0        3.120599    2.796527   -0.232184
      4          6           0        8.035950    2.932226   -0.447486
      5          6           0        8.346526   -1.832955    0.387433
      6          7           0        3.552289    0.281552   -0.188535
      7          6           0        2.792674   -0.856439   -0.029250
      8          6           0        1.287658   -0.545076   -0.002563
      9          6           0        1.246679    0.981757   -0.487743
     10          6           0        2.729296    1.366058   -0.267625
     11          6           0        0.820794    1.257891   -1.960165
     12          6           0        0.591005   -0.740882    1.430277
     13          6           0       -0.573299   -1.707771    1.370016
     14          6           0       -1.513018   -1.694938    0.149858
     15          8           0       -1.674794   -0.811771   -0.714058
     16          8           0       -2.203218   -2.898139    0.114551
     17          7           0        5.597714    2.565699   -0.168359
     18          6           0        4.461380    3.335999   -0.190717
     19          6           0        4.800732    4.765361   -0.390881
     20          6           0        6.215923    4.794837   -0.539521
     21          6           0        6.686312    3.394061   -0.434574
     22          6           0        3.782800    5.852543   -0.447644
     23          6           0        7.115376    6.012045   -0.849972
     24          8           0        8.326442    5.883990   -1.103467
     25          6           0        6.583036    7.309597   -0.747379
     26          7           0        7.826536    0.558670   -0.100523
     27          6           0        8.578806    1.704569   -0.220128
     28          6           0       10.055818    1.519190   -0.172923
     29          6           0       10.140133   -0.033248    0.244283
     30          6           0        8.685548   -0.495993    0.154160
     31          6           0       10.821114    1.860294   -1.476045
     32          6           0       10.650737   -0.240839    1.746929
     33          6           0        9.596522    0.084776    2.808481
     34          7           0        5.897586   -1.505321    0.549979
     35          6           0        7.021558   -2.393295    0.465300
     36          6           0        6.572137   -3.771423    0.561517
     37          6           0        5.168269   -3.649339    0.607074
     38          6           0        4.809545   -2.297224    0.528564
     39          6           0        7.432145   -4.917340    0.434622
     40          6           0        3.948702   -4.462978    0.625951
     41          8           0        3.674230   -5.661282    0.640566
     42          6           0        2.696495   -3.444103    0.593264
     43          6           0        1.841572   -3.912793   -0.552457
     44          8           0        2.061005   -3.593814   -1.720715
     45          8           0        0.716663   -4.699767   -0.208142
     46          6           0       -0.176988   -5.109775   -1.376104
     47          6           0       -3.289971   -2.991476   -0.857459
     48          6           0       -4.623170   -2.739561   -0.294656
     49          6           0       -5.638108   -3.583195   -0.246639
     50          6           0       -5.622653   -4.953428   -0.770551
     51          6           0       -6.961717   -3.062008    0.265939
     52          6           0       -7.546978   -1.962762   -0.603000
     53          6           0       -7.326260   -0.506177   -0.148018
     54          6           0       -8.676599    0.332591   -0.065043
     55          6           0       -8.823551    1.173976   -1.373052
     56          6           0       -8.654912    1.287379    1.117059
     57          6           0      -10.116003    1.438818    1.738258
     58          6           0      -10.698406    2.866902    1.838812
     59          6           0      -12.239123    2.868116    2.098295
     60          6           0      -12.582802    3.718118    3.287350
     61          6           0      -13.013228    3.274235    0.830340
     62          6           0      -14.216446    2.303696    0.586083
     63          6           0      -14.273726    1.880430   -0.925142
     64          6           0      -13.782997    0.377904   -1.157845
     65          6           0      -12.344470    0.421730   -1.611500
     66          6           0      -14.655606   -0.225293   -2.250699
     67          1           0        2.259964    3.446699   -0.399475
     68          1           0        8.711833    3.788691   -0.390309
     69          1           0        9.230842   -2.472965    0.400783
     70          1           0        0.811903   -1.217964   -0.716635
     71          1           0        0.562514    1.498691    0.185863
     72          1           0        0.230244    2.173115   -2.005559
     73          1           0        0.266176    0.415186   -2.372584
     74          1           0        1.699827    1.406084   -2.587862
     75          1           0        0.286410    0.073405    2.087719
     76          1           0        1.320585   -1.245214    2.063093
     77          1           0       -1.314082   -1.495767    2.141365
     78          1           0       -0.120900   -2.669261    1.615866
     79          1           0        2.775803    5.520844   -0.193529
     80          1           0        3.777030    6.176386   -1.487895
     81          1           0        4.062770    6.652031    0.237491
     82          1           0        6.345883    7.275556    0.316787
     83          1           0        5.732391    7.554331   -1.382674
     84          1           0        7.339305    8.057843   -0.983971
     85          1           0       10.648018    2.060805    0.565253
     86          1           0       10.865792   -0.606157   -0.332235
     87          1           0       10.187246    2.160924   -2.309947
     88          1           0       11.234473    0.928007   -1.858387
     89          1           0       11.577532    2.628792   -1.315588
     90          1           0       11.560571    0.332319    1.927790
     91          1           0       10.802081   -1.320513    1.759418
     92          1           0        8.972966    0.910958    2.465348
     93          1           0       10.059605    0.444118    3.727780
     94          1           0        8.994334   -0.819851    2.894857
     95          1           0        7.735589   -5.312393    1.403569
     96          1           0        8.378871   -4.664166   -0.042318
     97          1           0        6.921729   -5.740273   -0.067431
     98          1           0        2.178684   -3.544294    1.547465
     99          1           0       -0.931309   -5.761610   -0.936995
    100          1           0        0.412821   -5.638596   -2.124232
    101          1           0       -0.649742   -4.223496   -1.800601
    102          1           0       -3.290375   -3.896188   -1.465059
    103          1           0       -3.231734   -2.220280   -1.626377
    104          1           0       -4.826002   -1.726070    0.049511
    105          1           0       -6.403672   -4.993756   -1.530451
    106          1           0       -5.943133   -5.680383   -0.024468
    107          1           0       -4.712729   -5.272035   -1.277072
    108          1           0       -6.680151   -2.573029    1.198457
    109          1           0       -7.604824   -3.869279    0.618256
    110          1           0       -8.607984   -2.200888   -0.680681
    111          1           0       -7.071400   -2.033198   -1.581216
    112          1           0       -6.718727    0.004440   -0.895353
    113          1           0       -6.746265   -0.380526    0.765881
    114          1           0       -9.531178   -0.343799   -0.067119
    115          1           0       -9.585188    0.601694   -1.901830
    116          1           0       -7.919871    1.408310   -1.934952
    117          1           0       -9.365113    2.090456   -1.139342
    118          1           0       -8.204659    2.218379    0.773210
    119          1           0       -8.050001    0.998871    1.976350
    120          1           0      -10.039474    0.940989    2.705440
    121          1           0      -10.822728    0.872071    1.132832
    122          1           0      -10.532394    3.409775    0.908105
    123          1           0      -10.208556    3.357084    2.680563
    124          1           0      -12.532167    1.871125    2.425879
    125          1           0      -12.555659    3.148632    4.216702
    126          1           0      -13.607930    4.052617    3.128654
    127          1           0      -11.888037    4.553204    3.375519
    128          1           0      -12.364930    3.179885   -0.040699
    129          1           0      -13.239481    4.339555    0.883306
    130          1           0      -15.175607    2.672324    0.949630
    131          1           0      -14.060321    1.359445    1.109061
    132          1           0      -13.670570    2.530727   -1.559391
    133          1           0      -15.296207    2.054523   -1.257731
    134          1           0      -13.735785   -0.224840   -0.251013
    135          1           0      -11.648398   -0.115519   -0.967037
    136          1           0      -12.001397    1.442629   -1.776700
    137          1           0      -12.201602   -0.097462   -2.559176
    138          1           0      -14.208024   -0.861061   -3.015409
    139          1           0      -15.216063    0.535639   -2.794349
    140          1           0      -15.397259   -0.883079   -1.797374
 ---------------------------------------------------------------------

 SCF Done:  E(RPBE1PBE) =  -3005.34874825     A.U. after   16 cycles

 Excitation energies and oscillator strengths:

 Excited State   1:      Singlet-A      1.8118 eV  684.32 nm  f=0.3501  <S**2>=0.000
     245 -> 248       -0.17653
     246 -> 247        0.69224
     246 <- 247       -0.10830
 This state for optimization and/or second-order correction.
 Total Energy, E(TD-HF/TD-DFT) =  -3005.28216587
 Copying the excited state density for this state as the 1-particle RhoCI density.

 Excited State   2:      Singlet-A      2.1803 eV  568.65 nm  f=0.1163  <S**2>=0.000
     245 -> 247        0.65161
     246 -> 248        0.25936

 Excited State   3:      Singlet-A      2.9533 eV  419.81 nm  f=0.0013  <S**2>=0.000
     243 -> 247        0.28349
     244 -> 247        0.60747
     246 -> 248       -0.14838

 Excited State   4:      Singlet-A      3.0591 eV  405.30 nm  f=0.0054  <S**2>=0.000
     241 -> 247       -0.13037
     243 -> 247        0.60026
     244 -> 247       -0.31483

 Excited State   5:      Singlet-A      3.1857 eV  389.19 nm  f=0.0160  <S**2>=0.000
     240 -> 247        0.31941
     240 -> 249       -0.10606
     241 -> 247        0.54613
     246 -> 248        0.20151

 The electronic state is 1-A.
 Alpha  occ. eigenvalues --  -46.92446 -19.25770 -19.24192 -19.20872 -19.18989
 Alpha  occ. eigenvalues --  -19.18907 -19.18889 -14.41822 -14.41026 -14.39533
 Alpha  occ. eigenvalues --  -14.38759 -10.37483 -10.35645 -10.32213 -10.32209
 Alpha  occ. eigenvalues --  -10.29305 -10.28585 -10.28459 -10.28458 -10.28415
 Alpha  occ. eigenvalues --  -10.28338 -10.28088 -10.27720 -10.27465 -10.26694
 Alpha  occ. eigenvalues --  -10.26401 -10.26094 -10.26033 -10.25883 -10.25725
 Alpha  occ. eigenvalues --  -10.25391 -10.25364 -10.25356 -10.25206 -10.25088
 Alpha  occ. eigenvalues --  -10.25020 -10.24942 -10.24890 -10.24285 -10.24006
 Alpha  occ. eigenvalues --  -10.23876 -10.23691 -10.23497 -10.23474 -10.23189
 Alpha  occ. eigenvalues --  -10.22935 -10.22867 -10.22844 -10.22788 -10.22731
 Alpha  occ. eigenvalues --  -10.22679 -10.22628 -10.22591 -10.22550 -10.22511
 Alpha  occ. eigenvalues --  -10.22341 -10.22331 -10.22315 -10.22215 -10.22156
 Alpha  occ. eigenvalues --  -10.22069 -10.22000 -10.21726 -10.21657 -10.21500
 Alpha  occ. eigenvalues --  -10.21285  -3.14516  -1.87309  -1.86903  -1.86750
 Alpha  occ. eigenvalues --   -1.10511  -1.07939  -1.03959  -1.03733  -1.02019
 Alpha  occ. eigenvalues --   -0.99876  -0.97822  -0.97194  -0.96808  -0.96095
 Alpha  occ. eigenvalues --   -0.85736  -0.85358  -0.84020  -0.83257  -0.82827
 Alpha  occ. eigenvalues --   -0.82752  -0.82119  -0.81994  -0.81771  -0.81164
 Alpha  occ. eigenvalues --   -0.80354  -0.79396  -0.78612  -0.78071  -0.77132
 Alpha  occ. eigenvalues --   -0.76887  -0.76399  -0.75517  -0.74899  -0.74241
 Alpha  occ. eigenvalues --   -0.73687  -0.72581  -0.71707  -0.70694  -0.70310
 Alpha  occ. eigenvalues --   -0.69941  -0.69730  -0.68937  -0.68847  -0.68141
 Alpha  occ. eigenvalues --   -0.67896  -0.66658  -0.65120  -0.64644  -0.63273
 Alpha  occ. eigenvalues --   -0.62401  -0.62129  -0.61238  -0.60841  -0.59387
 Alpha  occ. eigenvalues --   -0.59122  -0.58649  -0.58547  -0.58096  -0.58088
 Alpha  occ. eigenvalues --   -0.57817  -0.57621  -0.56808  -0.54935  -0.54546
 Alpha  occ. eigenvalues --   -0.54137  -0.53758  -0.53434  -0.52548  -0.52112
 Alpha  occ. eigenvalues --   -0.51535  -0.51274  -0.50743  -0.50455  -0.49907
 Alpha  occ. eigenvalues --   -0.49373  -0.49165  -0.48733  -0.48574  -0.48396
 Alpha  occ. eigenvalues --   -0.48068  -0.47811  -0.47634  -0.47532  -0.47259
 Alpha  occ. eigenvalues --   -0.47226  -0.46914  -0.46804  -0.46358  -0.46212
 Alpha  occ. eigenvalues --   -0.45702  -0.45481  -0.45308  -0.45265  -0.45080
 Alpha  occ. eigenvalues --   -0.44717  -0.44606  -0.44401  -0.44275  -0.43879
 Alpha  occ. eigenvalues --   -0.43794  -0.43726  -0.43495  -0.43271  -0.43160
 Alpha  occ. eigenvalues --   -0.42848  -0.42728  -0.42425  -0.42411  -0.42014
 Alpha  occ. eigenvalues --   -0.41946  -0.41742  -0.41458  -0.41229  -0.40663
 Alpha  occ. eigenvalues --   -0.40619  -0.40586  -0.40531  -0.40318  -0.40082
 Alpha  occ. eigenvalues --   -0.40010  -0.39929  -0.39630  -0.39582  -0.39476
 Alpha  occ. eigenvalues --   -0.39094  -0.39022  -0.38556  -0.38440  -0.38362
 Alpha  occ. eigenvalues --   -0.38106  -0.38015  -0.37895  -0.37836  -0.37772
 Alpha  occ. eigenvalues --   -0.37304  -0.37244  -0.36620  -0.36321  -0.36202
 Alpha  occ. eigenvalues --   -0.36056  -0.36020  -0.35917  -0.35795  -0.35742
 Alpha  occ. eigenvalues --   -0.35476  -0.35251  -0.35191  -0.34998  -0.34825
 Alpha  occ. eigenvalues --   -0.34695  -0.34408  -0.33990  -0.33808  -0.33538
 Alpha  occ. eigenvalues --   -0.33281  -0.33196  -0.32951  -0.32742  -0.32274
 Alpha  occ. eigenvalues --   -0.32172  -0.31473  -0.31422  -0.30979  -0.30902
 Alpha  occ. eigenvalues --   -0.30852  -0.30248  -0.29806  -0.29780  -0.29299
 Alpha  occ. eigenvalues --   -0.28725  -0.28197  -0.27742  -0.26570  -0.26021
 Alpha  occ. eigenvalues --   -0.25706  -0.25215  -0.25063  -0.24763  -0.20497
 Alpha  occ. eigenvalues --   -0.18352
 Alpha virt. eigenvalues --   -0.10900  -0.05005  -0.03615  -0.02085  -0.01067
 Alpha virt. eigenvalues --   -0.00297   0.00931   0.01242   0.01546   0.03005
 Alpha virt. eigenvalues --    0.04183   0.05051   0.05166   0.05575   0.05695

 Mulliken charges:
               1
     1  Mg   0.977324
     2  C   -0.030415
     3  C   -0.052933
     4  C   -0.042352
     5  C   -0.074794
     6  N   -0.361734
     7  C    0.080570
     8  C   -0.115579
     9  C   -0.125279
    10  C    0.038287
    11  C    0.027654
    12  C    0.057937
    13  C   -0.083546
    14  C    0.246354
    15  O   -0.284931
    16  O   -0.358564
    17  N   -0.543871
    18  C    0.190124
    19  C   -0.196838
    20  C   -0.103860
    21  C    0.137511
    22  C    0.062552
    23  C    0.076975
    24  O   -0.260830
    25  C   -0.011499
    26  N   -0.394151
    27  C    0.096478
    28  C   -0.093935
    29  C   -0.123066
    30  C    0.066904
    31  C    0.017847
    32  C   -0.074295
    33  C   -0.047769
    34  N   -0.461277
    35  C    0.131199
    36  C   -0.151225
    37  C   -0.064013
    38  C    0.175037
    39  C    0.071282
    40  C    0.143870
    41  O   -0.218552
    42  C   -0.136008
    43  C    0.303833
    44  O   -0.266344
    45  O   -0.405884
    46  C    0.130235
    47  C    0.260237
    48  C   -0.142194
    49  C   -0.221919
    50  C    0.045356
    51  C    0.005783
    52  C   -0.018821
    53  C   -0.003374
    54  C   -0.261632
    55  C   -0.012415
    56  C    0.011241
    57  C   -0.083678
    58  C    0.024329
    59  C   -0.248291
    60  C    0.004004
    61  C    0.013377
    62  C   -0.031151
    63  C   -0.039105
    64  C   -0.225076
    65  C   -0.035203
    66  C   -0.012033
    67  H    0.007174
    68  H    0.030766
    69  H    0.005576
    70  H    0.076429
    71  H    0.044929
    72  H    0.039906
    73  H    0.062746
    74  H    0.046145
    75  H    0.040273
    76  H    0.034019
    77  H    0.069568
    78  H    0.084201
    79  H    0.045567
    80  H    0.067716
    81  H    0.058147
    82  H    0.070719
    83  H    0.065798
    84  H    0.057884
    85  H    0.048429
    86  H    0.043060
    87  H    0.047790
    88  H    0.029715
    89  H    0.051530
    90  H    0.045066
    91  H    0.038332
    92  H    0.044372
    93  H    0.044142
    94  H    0.055815
    95  H    0.048380
    96  H    0.038116
    97  H    0.064125
    98  H    0.078913
    99  H    0.059906
   100  H    0.068945
   101  H    0.064491
   102  H    0.021871
   103  H    0.051608
   104  H    0.018106
   105  H    0.039903
   106  H    0.048067
   107  H    0.030808
   108  H    0.038393
   109  H    0.020500
   110  H    0.033541
   111  H    0.041964
   112  H    0.024015
   113  H    0.029717
   114  H    0.049750
   115  H    0.037318
   116  H    0.049186
   117  H    0.029390
   118  H    0.027125
   119  H    0.020278
   120  H    0.032957
   121  H    0.030965
   122  H    0.025525
   123  H    0.020168
   124  H    0.029902
   125  H    0.031417
   126  H    0.027371
   127  H    0.033264
   128  H    0.020761
   129  H    0.029174
   130  H    0.033365
   131  H    0.027714
   132  H    0.032790
   133  H    0.028277
   134  H    0.038271
   135  H    0.033846
   136  H    0.037142
   137  H    0.023207
   138  H    0.029500
   139  H    0.035773
   140  H    0.030524
 Sum of Mulliken charges =  -0.00000

 Dipole moment (field-independent basis, Debye):
    X=             -3.7156    Y=              3.5552    Z=              2.9377  Tot=              5.9224
 Quadrupole moment (field-independent basis, Debye-Ang):
   XX=           -366.7732   YY=           -405.0752   ZZ=           -403.7807
   XY=             14.0666   XZ=             20.5611   YZ=              6.6471

 Normal termination of Gaussian 16 at Thu Apr 28 15:10:02 2022.
