 Gaussian 16, Revision A.03,
 Gaussian 16:  ES64L-G16RevA.03 25-Dec-2016

 --------------------------------
 #p wB97XD/Def2SVP td=(nstates=5)
 --------------------------------

 ----------------------------------------------------
 step_1601_chromophore_4 TDDFT with wB97XD functional
 ----------------------------------------------------
 Symbolic Z-matrix:
 Charge =  0 Multiplicity = 1

                         Standard orientation:
 ---------------------------------------------------------------------
 Center     Atomic      Atomic             Coordinates (Angstroms)
 Number     Number       Type             X           Y           Z
 ---------------------------------------------------------------------
      1         12           0        5.717325    0.655713    0.353099
      2          6           0        3.387260   -2.109607    0.302133
      3          6           0        3.120599    2.796527   -0.232184
      4          6           0        8.035950    2.932226   -0.447486
      5          6           0        8.346526   -1.832955    0.387433
      6          7           0        3.552289    0.281552   -0.188535
      7          6           0        2.792674   -0.856439   -0.029250
      8          6           0        1.287658   -0.545076   -0.002563
      9          6           0        1.246679    0.981757   -0.487743
     10          6           0        2.729296    1.366058   -0.267625
     11          6           0        0.820794    1.257891   -1.960165
     12          6           0        0.591005   -0.740882    1.430277
     13          6           0       -0.573299   -1.707771    1.370016
     14          6           0       -1.513018   -1.694938    0.149858
     15          8           0       -1.674794   -0.811771   -0.714058
     16          8           0       -2.203218   -2.898139    0.114551
     17          7           0        5.597714    2.565699   -0.168359
     18          6           0        4.461380    3.335999   -0.190717
     19          6           0        4.800732    4.765361   -0.390881
     20          6           0        6.215923    4.794837   -0.539521
     21          6           0        6.686312    3.394061   -0.434574
     22          6           0        3.782800    5.852543   -0.447644
     23          6           0        7.115376    6.012045   -0.849972
     24          8           0        8.326442    5.883990   -1.103467
     25          6           0        6.583036    7.309597   -0.747379
     26          7           0        7.826536    0.558670   -0.100523
     27          6           0        8.578806    1.704569   -0.220128
     28          6           0       10.055818    1.519190   -0.172923
     29          6           0       10.140133   -0.033248    0.244283
     30          6           0        8.685548   -0.495993    0.154160
     31          6           0       10.821114    1.860294   -1.476045
     32          6           0       10.650737   -0.240839    1.746929
     33          6           0        9.596522    0.084776    2.808481
     34          7           0        5.897586   -1.505321    0.549979
     35          6           0        7.021558   -2.393295    0.465300
     36          6           0        6.572137   -3.771423    0.561517
     37          6           0        5.168269   -3.649339    0.607074
     38          6           0        4.809545   -2.297224    0.528564
     39          6           0        7.432145   -4.917340    0.434622
     40          6           0        3.948702   -4.462978    0.625951
     41          8           0        3.674230   -5.661282    0.640566
     42          6           0        2.696495   -3.444103    0.593264
     43          6           0        1.841572   -3.912793   -0.552457
     44          8           0        2.061005   -3.593814   -1.720715
     45          8           0        0.716663   -4.699767   -0.208142
     46          6           0       -0.176988   -5.109775   -1.376104
     47          6           0       -3.289971   -2.991476   -0.857459
     48          6           0       -4.623170   -2.739561   -0.294656
     49          6           0       -5.638108   -3.583195   -0.246639
     50          6           0       -5.622653   -4.953428   -0.770551
     51          6           0       -6.961717   -3.062008    0.265939
     52          6           0       -7.546978   -1.962762   -0.603000
     53          6           0       -7.326260   -0.506177   -0.148018
     54          6           0       -8.676599    0.332591   -0.065043
     55          6           0       -8.823551    1.173976   -1.373052
     56          6           0       -8.654912    1.287379    1.117059
     57          6           0      -10.116003    1.438818    1.738258
     58          6           0      -10.698406    2.866902    1.838812
     59          6           0      -12.239123    2.868116    2.098295
     60          6           0      -12.582802    3.718118    3.287350
     61          6           0      -13.013228    3.274235    0.830340
     62          6           0      -14.216446    2.303696    0.586083
     63          6           0      -14.273726    1.880430   -0.925142
     64          6           0      -13.782997    0.377904   -1.157845
     65          6           0      -12.344470    0.421730   -1.611500
     66          6           0      -14.655606   -0.225293   -2.250699
     67          1           0        2.259964    3.446699   -0.399475
     68          1           0        8.711833    3.788691   -0.390309
     69          1           0        9.230842   -2.472965    0.400783
     70          1           0        0.811903   -1.217964   -0.716635
     71          1           0        0.562514    1.498691    0.185863
     72          1           0        0.230244    2.173115   -2.005559
     73          1           0        0.266176    0.415186   -2.372584
     74          1           0        1.699827    1.406084   -2.587862
     75          1           0        0.286410    0.073405    2.087719
     76          1           0        1.320585   -1.245214    2.063093
     77          1           0       -1.314082   -1.495767    2.141365
     78          1           0       -0.120900   -2.669261    1.615866
     79          1           0        2.775803    5.520844   -0.193529
     80          1           0        3.777030    6.176386   -1.487895
     81          1           0        4.062770    6.652031    0.237491
     82          1           0        6.345883    7.275556    0.316787
     83          1           0        5.732391    7.554331   -1.382674
     84          1           0        7.339305    8.057843   -0.983971
     85          1           0       10.648018    2.060805    0.565253
     86          1           0       10.865792   -0.606157   -0.332235
     87          1           0       10.187246    2.160924   -2.309947
     88          1           0       11.234473    0.928007   -1.858387
     89          1           0       11.577532    2.628792   -1.315588
     90          1           0       11.560571    0.332319    1.927790
     91          1           0       10.802081   -1.320513    1.759418
     92          1           0        8.972966    0.910958    2.465348
     93          1           0       10.059605    0.444118    3.727780
     94          1           0        8.994334   -0.819851    2.894857
     95          1           0        7.735589   -5.312393    1.403569
     96          1           0        8.378871   -4.664166   -0.042318
     97          1           0        6.921729   -5.740273   -0.067431
     98          1           0        2.178684   -3.544294    1.547465
     99          1           0       -0.931309   -5.761610   -0.936995
    100          1           0        0.412821   -5.638596   -2.124232
    101          1           0       -0.649742   -4.223496   -1.800601
    102          1           0       -3.290375   -3.896188   -1.465059
    103          1           0       -3.231734   -2.220280   -1.626377
    104          1           0       -4.826002   -1.726070    0.049511
    105          1           0       -6.403672   -4.993756   -1.530451
    106          1           0       -5.943133   -5.680383   -0.024468
    107          1           0       -4.712729   -5.272035   -1.277072
    108          1           0       -6.680151   -2.573029    1.198457
    109          1           0       -7.604824   -3.869279    0.618256
    110          1           0       -8.607984   -2.200888   -0.680681
    111          1           0       -7.071400   -2.033198   -1.581216
    112          1           0       -6.718727    0.004440   -0.895353
    113          1           0       -6.746265   -0.380526    0.765881
    114          1           0       -9.531178   -0.343799   -0.067119
    115          1           0       -9.585188    0.601694   -1.901830
    116          1           0       -7.919871    1.408310   -1.934952
    117          1           0       -9.365113    2.090456   -1.139342
    118          1           0       -8.204659    2.218379    0.773210
    119          1           0       -8.050001    0.998871    1.976350
    120          1           0      -10.039474    0.940989    2.705440
    121          1           0      -10.822728    0.872071    1.132832
    122          1           0      -10.532394    3.409775    0.908105
    123          1           0      -10.208556    3.357084    2.680563
    124          1           0      -12.532167    1.871125    2.425879
    125          1           0      -12.555659    3.148632    4.216702
    126          1           0      -13.607930    4.052617    3.128654
    127          1           0      -11.888037    4.553204    3.375519
    128          1           0      -12.364930    3.179885   -0.040699
    129          1           0      -13.239481    4.339555    0.883306
    130          1           0      -15.175607    2.672324    0.949630
    131          1           0      -14.060321    1.359445    1.109061
    132          1           0      -13.670570    2.530727   -1.559391
    133          1           0      -15.296207    2.054523   -1.257731
    134          1           0      -13.735785   -0.224840   -0.251013
    135          1           0      -11.648398   -0.115519   -0.967037
    136          1           0      -12.001397    1.442629   -1.776700
    137          1           0      -12.201602   -0.097462   -2.559176
    138          1           0      -14.208024   -0.861061   -3.015409
    139          1           0      -15.216063    0.535639   -2.794349
    140          1           0      -15.397259   -0.883079   -1.797374
 ---------------------------------------------------------------------

 SCF Done:  E(RwB97XD) =  -3007.86351680     A.U. after   20 cycles

 Excitation energies and oscillator strengths:

 Excited State   1:      Singlet-A      1.6080 eV  771.06 nm  f=0.3623  <S**2>=0.000
     245 -> 248       -0.18574
     246 -> 247        0.68318
     245 <- 248       -0.11858
 This state for optimization and/or second-order correction.
 Total Energy, E(TD-HF/TD-DFT) =  -3007.80442460
 Copying the excited state density for this state as the 1-particle RhoCI density.

 Excited State   2:      Singlet-A      2.1212 eV  584.49 nm  f=0.1184  <S**2>=0.000
     245 -> 247        0.63886
     246 -> 248        0.28742

 Excited State   3:      Singlet-A      3.3712 eV  367.77 nm  f=0.0456  <S**2>=0.000
     243 -> 247        0.10569
     244 -> 247        0.61487
     246 -> 248       -0.26103

 Excited State   4:      Singlet-A      3.4785 eV  356.43 nm  f=0.5084  <S**2>=0.000
     240 -> 247        0.14959
     241 -> 247       -0.30778
     244 -> 247        0.19820
     245 -> 247       -0.22578
     246 -> 248        0.52201

 Excited State   5:      Singlet-A      3.6017 eV  344.24 nm  f=0.0014  <S**2>=0.000
     240 -> 247        0.13117
     241 -> 249       -0.12547
     241 -> 250       -0.10160
     243 -> 247        0.53147
     243 -> 249       -0.23936
     243 -> 250       -0.20859
     244 -> 247       -0.13854

 The electronic state is 1-A.
 Alpha  occ. eigenvalues --  -46.95359 -19.30316 -19.28698 -19.25508 -19.23916
 Alpha  occ. eigenvalues --  -19.23628 -19.23494 -14.46990 -14.46041 -14.44621
 Alpha  occ. eigenvalues --  -14.43519 -10.44259 -10.42414 -10.39262 -10.38886
 Alpha  occ. eigenvalues --  -10.35820 -10.35171 -10.35104 -10.34957 -10.34845
 Alpha  occ. eigenvalues --  -10.34700 -10.34241 -10.34111 -10.33563 -10.33384
 Alpha  occ. eigenvalues --  -10.32439 -10.32363 -10.32350 -10.32325 -10.32111
 Alpha  occ. eigenvalues --  -10.32091 -10.31773 -10.31670 -10.31658 -10.31306
 Alpha  occ. eigenvalues --  -10.31258 -10.31255 -10.31162 -10.30475 -10.30349
 Alpha  occ. eigenvalues --  -10.30230 -10.30072 -10.29965 -10.29765 -10.29637
 Alpha  occ. eigenvalues --  -10.29296 -10.29208 -10.29164 -10.29013 -10.29000
 Alpha  occ. eigenvalues --  -10.28989 -10.28948 -10.28904 -10.28894 -10.28881
 Alpha  occ. eigenvalues --  -10.28784 -10.28693 -10.28596 -10.28571 -10.28519
 Alpha  occ. eigenvalues --  -10.28441 -10.28377 -10.28167 -10.28082 -10.27962
 Alpha  occ. eigenvalues --  -10.27733  -3.21313  -1.94853  -1.94448  -1.94284
 Alpha  occ. eigenvalues --   -1.17884  -1.15296  -1.11662  -1.11036  -1.09356
 Alpha  occ. eigenvalues --   -1.07192  -1.05287  -1.04640  -1.04213  -1.03359
 Alpha  occ. eigenvalues --   -0.93392  -0.92870  -0.91691  -0.90901  -0.90582
 Alpha  occ. eigenvalues --   -0.90469  -0.89820  -0.89648  -0.89394  -0.88565
 Alpha  occ. eigenvalues --   -0.88031  -0.87076  -0.86368  -0.85887  -0.84728
 Alpha  occ. eigenvalues --   -0.84485  -0.84035  -0.83179  -0.82491  -0.81913
 Alpha  occ. eigenvalues --   -0.81311  -0.80394  -0.79290  -0.78246  -0.77960
 Alpha  occ. eigenvalues --   -0.77625  -0.77346  -0.76545  -0.76510  -0.75800
 Alpha  occ. eigenvalues --   -0.75514  -0.74129  -0.72704  -0.72252  -0.70810
 Alpha  occ. eigenvalues --   -0.70051  -0.69702  -0.68839  -0.68474  -0.66925
 Alpha  occ. eigenvalues --   -0.66717  -0.66222  -0.66126  -0.65769  -0.65534
 Alpha  occ. eigenvalues --   -0.65211  -0.65062  -0.64447  -0.62311  -0.62179
 Alpha  occ. eigenvalues --   -0.61659  -0.61199  -0.60779  -0.60013  -0.59442
 Alpha  occ. eigenvalues --   -0.58992  -0.58738  -0.58222  -0.57927  -0.57270
 Alpha  occ. eigenvalues --   -0.56821  -0.56493  -0.56322  -0.56169  -0.55850
 Alpha  occ. eigenvalues --   -0.55462  -0.55240  -0.55023  -0.54851  -0.54658
 Alpha  occ. eigenvalues --   -0.54555  -0.54289  -0.54163  -0.53712  -0.53568
 Alpha  occ. eigenvalues --   -0.53346  -0.52819  -0.52651  -0.52485  -0.52416
 Alpha  occ. eigenvalues --   -0.52221  -0.51943  -0.51663  -0.51607  -0.51204
 Alpha  occ. eigenvalues --   -0.51108  -0.50986  -0.50799  -0.50543  -0.50462
 Alpha  occ. eigenvalues --   -0.50181  -0.49968  -0.49727  -0.49659  -0.49496
 Alpha  occ. eigenvalues --   -0.49163  -0.49017  -0.48710  -0.48473  -0.47861
 Alpha  occ. eigenvalues --   -0.47842  -0.47782  -0.47751  -0.47474  -0.47241
 Alpha  occ. eigenvalues --   -0.47217  -0.47082  -0.46766  -0.46638  -0.46513
 Alpha  occ. eigenvalues --   -0.46191  -0.46100  -0.45687  -0.45551  -0.45483
 Alpha  occ. eigenvalues --   -0.45248  -0.45171  -0.45148  -0.44999  -0.44792
 Alpha  occ. eigenvalues --   -0.44445  -0.44366  -0.43745  -0.43470  -0.43346
 Alpha  occ. eigenvalues --   -0.43250  -0.43134  -0.42994  -0.42925  -0.42855
 Alpha  occ. eigenvalues --   -0.42521  -0.42332  -0.42204  -0.42060  -0.41894
 Alpha  occ. eigenvalues --   -0.41686  -0.41510  -0.41088  -0.40923  -0.40593
 Alpha  occ. eigenvalues --   -0.40281  -0.40236  -0.39874  -0.39779  -0.39221
 Alpha  occ. eigenvalues --   -0.39171  -0.38469  -0.38296  -0.37963  -0.37898
 Alpha  occ. eigenvalues --   -0.37836  -0.37281  -0.36714  -0.36700  -0.36169
 Alpha  occ. eigenvalues --   -0.35530  -0.34971  -0.34698  -0.33341  -0.33274
 Alpha  occ. eigenvalues --   -0.32489  -0.31930  -0.31820  -0.31081  -0.25499
 Alpha  occ. eigenvalues --   -0.22515
 Alpha virt. eigenvalues --   -0.06822   0.00415   0.02629   0.04438   0.04866
 Alpha virt. eigenvalues --    0.06528   0.07751   0.08021   0.08277   0.09712
 Alpha virt. eigenvalues --    0.11024   0.11419   0.11613   0.12142   0.12355

 Mulliken charges:
               1
     1  Mg   0.966821
     2  C   -0.029415
     3  C   -0.071060
     4  C   -0.063307
     5  C   -0.090004
     6  N   -0.327565
     7  C    0.042874
     8  C   -0.084289
     9  C   -0.102844
    10  C    0.028332
    11  C    0.036031
    12  C    0.067078
    13  C   -0.063944
    14  C    0.233766
    15  O   -0.281812
    16  O   -0.356678
    17  N   -0.515295
    18  C    0.185367
    19  C   -0.184205
    20  C   -0.098602
    21  C    0.131776
    22  C    0.074773
    23  C    0.076486
    24  O   -0.253505
    25  C   -0.003440
    26  N   -0.364276
    27  C    0.096977
    28  C   -0.077995
    29  C   -0.098308
    30  C    0.057652
    31  C    0.026165
    32  C   -0.058784
    33  C   -0.022631
    34  N   -0.427293
    35  C    0.120823
    36  C   -0.148455
    37  C   -0.059840
    38  C    0.155133
    39  C    0.080145
    40  C    0.125204
    41  O   -0.211780
    42  C   -0.093635
    43  C    0.278374
    44  O   -0.261052
    45  O   -0.403850
    46  C    0.146705
    47  C    0.280618
    48  C   -0.152632
    49  C   -0.205590
    50  C    0.057855
    51  C    0.024431
    52  C   -0.000532
    53  C    0.008678
    54  C   -0.221264
    55  C    0.004401
    56  C    0.022874
    57  C   -0.055002
    58  C    0.039768
    59  C   -0.217907
    60  C    0.016025
    61  C    0.032194
    62  C   -0.014757
    63  C   -0.021126
    64  C   -0.193873
    65  C   -0.017313
    66  C   -0.000495
    67  H    0.001743
    68  H    0.025312
    69  H   -0.000952
    70  H    0.057267
    71  H    0.036430
    72  H    0.034724
    73  H    0.059056
    74  H    0.039762
    75  H    0.034613
    76  H    0.023220
    77  H    0.064171
    78  H    0.074577
    79  H    0.042885
    80  H    0.063674
    81  H    0.054001
    82  H    0.064014
    83  H    0.062160
    84  H    0.058206
    85  H    0.039797
    86  H    0.034068
    87  H    0.041878
    88  H    0.023823
    89  H    0.047267
    90  H    0.037274
    91  H    0.028352
    92  H    0.028985
    93  H    0.039181
    94  H    0.047448
    95  H    0.042173
    96  H    0.031297
    97  H    0.059277
    98  H    0.072322
    99  H    0.057513
   100  H    0.066041
   101  H    0.056542
   102  H    0.014764
   103  H    0.045887
   104  H    0.010420
   105  H    0.032712
   106  H    0.043122
   107  H    0.025673
   108  H    0.027042
   109  H    0.015844
   110  H    0.026445
   111  H    0.031671
   112  H    0.014267
   113  H    0.019652
   114  H    0.029243
   115  H    0.026116
   116  H    0.045034
   117  H    0.018691
   118  H    0.017958
   119  H    0.012964
   120  H    0.025822
   121  H    0.008260
   122  H    0.014652
   123  H    0.011511
   124  H    0.015857
   125  H    0.026442
   126  H    0.020181
   127  H    0.026631
   128  H    0.002824
   129  H    0.022583
   130  H    0.027604
   131  H    0.014379
   132  H    0.022334
   133  H    0.020099
   134  H    0.029070
   135  H    0.021585
   136  H    0.026457
   137  H    0.017522
   138  H    0.023815
   139  H    0.029066
   140  H    0.024726
 Sum of Mulliken charges =  -0.00000

 Dipole moment (field-independent basis, Debye):
    X=             -3.8730    Y=              4.2861    Z=              2.8959  Tot=              6.4620
 Quadrupole moment (field-independent basis, Debye-Ang):
   XX=           -369.1379   YY=           -402.4839   ZZ=           -403.3487
   XY=             18.4825   XZ=             20.1289   YZ=              6.6554

 Normal termination of Gaussian 16 at Thu Apr 28 15:40:08 2022.
