 Gaussian 16, Revision A.03,
 Gaussian 16:  ES64L-G16RevA.03 25-Dec-2016

 --------------------
 #p ZINDO=(nstates=5)
 --------------------

 -----------------------------
 step_1601_chromophore_4 ZINDO
 -----------------------------
 Symbolic Z-matrix:
 Charge =  0 Multiplicity = 1

                         Standard orientation:
 ---------------------------------------------------------------------
 Center     Atomic      Atomic             Coordinates (Angstroms)
 Number     Number       Type             X           Y           Z
 ---------------------------------------------------------------------
      1         12           0        5.717325    0.655713    0.353099
      2          6           0        3.387260   -2.109607    0.302133
      3          6           0        3.120599    2.796527   -0.232184
      4          6           0        8.035950    2.932226   -0.447486
      5          6           0        8.346526   -1.832955    0.387433
      6          7           0        3.552289    0.281552   -0.188535
      7          6           0        2.792674   -0.856439   -0.029250
      8          6           0        1.287658   -0.545076   -0.002563
      9          6           0        1.246679    0.981757   -0.487743
     10          6           0        2.729296    1.366058   -0.267625
     11          6           0        0.820794    1.257891   -1.960165
     12          6           0        0.591005   -0.740882    1.430277
     13          6           0       -0.573299   -1.707771    1.370016
     14          6           0       -1.513018   -1.694938    0.149858
     15          8           0       -1.674794   -0.811771   -0.714058
     16          8           0       -2.203218   -2.898139    0.114551
     17          7           0        5.597714    2.565699   -0.168359
     18          6           0        4.461380    3.335999   -0.190717
     19          6           0        4.800732    4.765361   -0.390881
     20          6           0        6.215923    4.794837   -0.539521
     21          6           0        6.686312    3.394061   -0.434574
     22          6           0        3.782800    5.852543   -0.447644
     23          6           0        7.115376    6.012045   -0.849972
     24          8           0        8.326442    5.883990   -1.103467
     25          6           0        6.583036    7.309597   -0.747379
     26          7           0        7.826536    0.558670   -0.100523
     27          6           0        8.578806    1.704569   -0.220128
     28          6           0       10.055818    1.519190   -0.172923
     29          6           0       10.140133   -0.033248    0.244283
     30          6           0        8.685548   -0.495993    0.154160
     31          6           0       10.821114    1.860294   -1.476045
     32          6           0       10.650737   -0.240839    1.746929
     33          6           0        9.596522    0.084776    2.808481
     34          7           0        5.897586   -1.505321    0.549979
     35          6           0        7.021558   -2.393295    0.465300
     36          6           0        6.572137   -3.771423    0.561517
     37          6           0        5.168269   -3.649339    0.607074
     38          6           0        4.809545   -2.297224    0.528564
     39          6           0        7.432145   -4.917340    0.434622
     40          6           0        3.948702   -4.462978    0.625951
     41          8           0        3.674230   -5.661282    0.640566
     42          6           0        2.696495   -3.444103    0.593264
     43          6           0        1.841572   -3.912793   -0.552457
     44          8           0        2.061005   -3.593814   -1.720715
     45          8           0        0.716663   -4.699767   -0.208142
     46          6           0       -0.176988   -5.109775   -1.376104
     47          6           0       -3.289971   -2.991476   -0.857459
     48          6           0       -4.623170   -2.739561   -0.294656
     49          6           0       -5.638108   -3.583195   -0.246639
     50          6           0       -5.622653   -4.953428   -0.770551
     51          6           0       -6.961717   -3.062008    0.265939
     52          6           0       -7.546978   -1.962762   -0.603000
     53          6           0       -7.326260   -0.506177   -0.148018
     54          6           0       -8.676599    0.332591   -0.065043
     55          6           0       -8.823551    1.173976   -1.373052
     56          6           0       -8.654912    1.287379    1.117059
     57          6           0      -10.116003    1.438818    1.738258
     58          6           0      -10.698406    2.866902    1.838812
     59          6           0      -12.239123    2.868116    2.098295
     60          6           0      -12.582802    3.718118    3.287350
     61          6           0      -13.013228    3.274235    0.830340
     62          6           0      -14.216446    2.303696    0.586083
     63          6           0      -14.273726    1.880430   -0.925142
     64          6           0      -13.782997    0.377904   -1.157845
     65          6           0      -12.344470    0.421730   -1.611500
     66          6           0      -14.655606   -0.225293   -2.250699
     67          1           0        2.259964    3.446699   -0.399475
     68          1           0        8.711833    3.788691   -0.390309
     69          1           0        9.230842   -2.472965    0.400783
     70          1           0        0.811903   -1.217964   -0.716635
     71          1           0        0.562514    1.498691    0.185863
     72          1           0        0.230244    2.173115   -2.005559
     73          1           0        0.266176    0.415186   -2.372584
     74          1           0        1.699827    1.406084   -2.587862
     75          1           0        0.286410    0.073405    2.087719
     76          1           0        1.320585   -1.245214    2.063093
     77          1           0       -1.314082   -1.495767    2.141365
     78          1           0       -0.120900   -2.669261    1.615866
     79          1           0        2.775803    5.520844   -0.193529
     80          1           0        3.777030    6.176386   -1.487895
     81          1           0        4.062770    6.652031    0.237491
     82          1           0        6.345883    7.275556    0.316787
     83          1           0        5.732391    7.554331   -1.382674
     84          1           0        7.339305    8.057843   -0.983971
     85          1           0       10.648018    2.060805    0.565253
     86          1           0       10.865792   -0.606157   -0.332235
     87          1           0       10.187246    2.160924   -2.309947
     88          1           0       11.234473    0.928007   -1.858387
     89          1           0       11.577532    2.628792   -1.315588
     90          1           0       11.560571    0.332319    1.927790
     91          1           0       10.802081   -1.320513    1.759418
     92          1           0        8.972966    0.910958    2.465348
     93          1           0       10.059605    0.444118    3.727780
     94          1           0        8.994334   -0.819851    2.894857
     95          1           0        7.735589   -5.312393    1.403569
     96          1           0        8.378871   -4.664166   -0.042318
     97          1           0        6.921729   -5.740273   -0.067431
     98          1           0        2.178684   -3.544294    1.547465
     99          1           0       -0.931309   -5.761610   -0.936995
    100          1           0        0.412821   -5.638596   -2.124232
    101          1           0       -0.649742   -4.223496   -1.800601
    102          1           0       -3.290375   -3.896188   -1.465059
    103          1           0       -3.231734   -2.220280   -1.626377
    104          1           0       -4.826002   -1.726070    0.049511
    105          1           0       -6.403672   -4.993756   -1.530451
    106          1           0       -5.943133   -5.680383   -0.024468
    107          1           0       -4.712729   -5.272035   -1.277072
    108          1           0       -6.680151   -2.573029    1.198457
    109          1           0       -7.604824   -3.869279    0.618256
    110          1           0       -8.607984   -2.200888   -0.680681
    111          1           0       -7.071400   -2.033198   -1.581216
    112          1           0       -6.718727    0.004440   -0.895353
    113          1           0       -6.746265   -0.380526    0.765881
    114          1           0       -9.531178   -0.343799   -0.067119
    115          1           0       -9.585188    0.601694   -1.901830
    116          1           0       -7.919871    1.408310   -1.934952
    117          1           0       -9.365113    2.090456   -1.139342
    118          1           0       -8.204659    2.218379    0.773210
    119          1           0       -8.050001    0.998871    1.976350
    120          1           0      -10.039474    0.940989    2.705440
    121          1           0      -10.822728    0.872071    1.132832
    122          1           0      -10.532394    3.409775    0.908105
    123          1           0      -10.208556    3.357084    2.680563
    124          1           0      -12.532167    1.871125    2.425879
    125          1           0      -12.555659    3.148632    4.216702
    126          1           0      -13.607930    4.052617    3.128654
    127          1           0      -11.888037    4.553204    3.375519
    128          1           0      -12.364930    3.179885   -0.040699
    129          1           0      -13.239481    4.339555    0.883306
    130          1           0      -15.175607    2.672324    0.949630
    131          1           0      -14.060321    1.359445    1.109061
    132          1           0      -13.670570    2.530727   -1.559391
    133          1           0      -15.296207    2.054523   -1.257731
    134          1           0      -13.735785   -0.224840   -0.251013
    135          1           0      -11.648398   -0.115519   -0.967037
    136          1           0      -12.001397    1.442629   -1.776700
    137          1           0      -12.201602   -0.097462   -2.559176
    138          1           0      -14.208024   -0.861061   -3.015409
    139          1           0      -15.216063    0.535639   -2.794349
    140          1           0      -15.397259   -0.883079   -1.797374
 ---------------------------------------------------------------------

 SCF Done:  E(RZINDO/S) =  -474.021397626     A.U. after   20 cycles

 Excitation energies and oscillator strengths:

 Excited State   1:      Singlet-A      1.2223 eV 1014.37 nm  f=0.5665  <S**2>=0.000
     175 ->178         0.18407
     176 ->177         0.66518
 This state for optimization and/or second-order correction.
 Total Energy, E(CIS/TDA) =  -473.976479680
 Copying the excited state density for this state as the 1-particle RhoCI density.

 Excited State   2:      Singlet-A      1.8559 eV  668.06 nm  f=0.0483  <S**2>=0.000
     175 ->177         0.55130
     176 ->178        -0.41328

 Excited State   3:      Singlet-A      2.8911 eV  428.85 nm  f=0.8510  <S**2>=0.000
     175 ->177         0.35220
     176 ->178         0.49836
     176 ->179        -0.18645
     176 ->180        -0.11243
     176 ->182         0.17400

 Excited State   4:      Singlet-A      2.9825 eV  415.71 nm  f=0.0133  <S**2>=0.000
     168 ->177         0.25619
     168 ->179        -0.41417
     168 ->180         0.18909
     168 ->181         0.11781
     168 ->184        -0.10035
     168 ->185        -0.20276
     176 ->179        -0.25392

 Excited State   5:      Singlet-A      3.0118 eV  411.66 nm  f=0.1116  <S**2>=0.000
     168 ->177         0.12006
     168 ->179        -0.16404
     169 ->177         0.10254
     169 ->179         0.13086
     169 ->180         0.13218
     169 ->185         0.10235
     176 ->179         0.42278
     176 ->180         0.13262
     176 ->181         0.22347

 The electronic state is 1-A.
 Alpha  occ. eigenvalues --   -1.80956  -1.79491  -1.77927  -1.72411  -1.69332
 Alpha  occ. eigenvalues --   -1.67671  -1.66045  -1.61977  -1.60540  -1.56181
 Alpha  occ. eigenvalues --   -1.55806  -1.53627  -1.49189  -1.46269  -1.45893
 Alpha  occ. eigenvalues --   -1.41329  -1.41057  -1.39874  -1.39008  -1.38191
 Alpha  occ. eigenvalues --   -1.35062  -1.33505  -1.32918  -1.31270  -1.28136
 Alpha  occ. eigenvalues --   -1.27573  -1.24628  -1.22758  -1.21857  -1.17163
 Alpha  occ. eigenvalues --   -1.16956  -1.15063  -1.14108  -1.12920  -1.12526
 Alpha  occ. eigenvalues --   -1.11514  -1.10826  -1.10041  -1.04668  -1.03740
 Alpha  occ. eigenvalues --   -1.03399  -1.00882  -1.00011  -0.97226  -0.96786
 Alpha  occ. eigenvalues --   -0.96098  -0.94158  -0.93300  -0.92780  -0.92386
 Alpha  occ. eigenvalues --   -0.90716  -0.89010  -0.88741  -0.87374  -0.86251
 Alpha  occ. eigenvalues --   -0.84712  -0.83236  -0.82345  -0.80973  -0.80305
 Alpha  occ. eigenvalues --   -0.79498  -0.77919  -0.77263  -0.76488  -0.76128
 Alpha  occ. eigenvalues --   -0.75923  -0.75118  -0.74413  -0.74212  -0.74088
 Alpha  occ. eigenvalues --   -0.72941  -0.72776  -0.72271  -0.71909  -0.71257
 Alpha  occ. eigenvalues --   -0.70634  -0.69462  -0.68881  -0.68745  -0.68229
 Alpha  occ. eigenvalues --   -0.67897  -0.67400  -0.66346  -0.66141  -0.65649
 Alpha  occ. eigenvalues --   -0.65215  -0.64244  -0.63933  -0.63784  -0.63398
 Alpha  occ. eigenvalues --   -0.62986  -0.62411  -0.61958  -0.61631  -0.60951
 Alpha  occ. eigenvalues --   -0.60881  -0.60700  -0.60561  -0.60231  -0.60079
 Alpha  occ. eigenvalues --   -0.59397  -0.59241  -0.58952  -0.58878  -0.58641
 Alpha  occ. eigenvalues --   -0.57974  -0.57519  -0.57009  -0.56785  -0.56125
 Alpha  occ. eigenvalues --   -0.55782  -0.55718  -0.55360  -0.54729  -0.54248
 Alpha  occ. eigenvalues --   -0.53882  -0.53233  -0.52844  -0.52764  -0.52099
 Alpha  occ. eigenvalues --   -0.51907  -0.51639  -0.51170  -0.50875  -0.50758
 Alpha  occ. eigenvalues --   -0.50650  -0.50503  -0.50290  -0.49617  -0.49445
 Alpha  occ. eigenvalues --   -0.49346  -0.49295  -0.48873  -0.48502  -0.48413
 Alpha  occ. eigenvalues --   -0.48217  -0.47849  -0.47747  -0.47565  -0.47311
 Alpha  occ. eigenvalues --   -0.47188  -0.46963  -0.46776  -0.46497  -0.46273
 Alpha  occ. eigenvalues --   -0.46236  -0.45929  -0.45645  -0.45221  -0.45090
 Alpha  occ. eigenvalues --   -0.44815  -0.44558  -0.44315  -0.43913  -0.43798
 Alpha  occ. eigenvalues --   -0.43642  -0.43408  -0.42791  -0.42285  -0.42215
 Alpha  occ. eigenvalues --   -0.41801  -0.41131  -0.40954  -0.39107  -0.38048
 Alpha  occ. eigenvalues --   -0.37735  -0.37451  -0.35577  -0.34348  -0.34121
 Alpha  occ. eigenvalues --   -0.33685  -0.31869  -0.31739  -0.31505  -0.26189
 Alpha  occ. eigenvalues --   -0.21315
 Alpha virt. eigenvalues --   -0.08293  -0.01835  -0.00291   0.01328   0.01518
 Alpha virt. eigenvalues --    0.01542   0.02782   0.03319   0.04715   0.05620
 Alpha virt. eigenvalues --    0.06184   0.06222   0.07409   0.07715   0.08444

 Mulliken charges:
               1
     1  Mg   0.432396
     2  C   -0.034822
     3  C   -0.102339
     4  C   -0.078609
     5  C   -0.070396
     6  N   -0.266642
     7  C    0.100829
     8  C    0.007441
     9  C    0.006212
    10  C    0.158957
    11  C   -0.042580
    12  C   -0.029491
    13  C    0.008375
    14  C    0.473657
    15  O   -0.529890
    16  O   -0.264844
    17  N   -0.323849
    18  C    0.124391
    19  C    0.022796
    20  C   -0.050866
    21  C    0.147235
    22  C   -0.035346
    23  C    0.342991
    24  O   -0.539804
    25  C   -0.020535
    26  N   -0.288880
    27  C    0.180343
    28  C    0.002090
    29  C   -0.013586
    30  C    0.114417
    31  C   -0.051713
    32  C   -0.035665
    33  C   -0.055809
    34  N   -0.333990
    35  C    0.060310
    36  C    0.024902
    37  C   -0.055019
    38  C    0.113701
    39  C   -0.029300
    40  C    0.325569
    41  O   -0.526267
    42  C    0.054204
    43  C    0.483983
    44  O   -0.525934
    45  O   -0.287742
    46  C    0.077240
    47  C    0.102388
    48  C   -0.089503
    49  C    0.003247
    50  C   -0.039187
    51  C   -0.026662
    52  C   -0.021199
    53  C   -0.040154
    54  C   -0.014609
    55  C   -0.066951
    56  C   -0.036478
    57  C   -0.045128
    58  C   -0.036449
    59  C   -0.016293
    60  C   -0.054641
    61  C   -0.032338
    62  C   -0.042610
    63  C   -0.039921
    64  C   -0.004284
    65  C   -0.060482
    66  C   -0.054554
    67  H    0.033362
    68  H    0.039882
    69  H    0.026213
    70  H    0.052263
    71  H    0.030377
    72  H    0.020686
    73  H    0.037180
    74  H    0.022865
    75  H    0.035021
    76  H    0.010436
    77  H    0.038652
    78  H    0.048484
    79  H    0.027663
    80  H    0.037366
    81  H    0.031828
    82  H    0.049029
    83  H    0.039832
    84  H    0.036574
    85  H    0.036969
    86  H    0.030598
    87  H    0.024198
    88  H    0.018278
    89  H    0.027534
    90  H    0.020972
    91  H    0.018330
    92  H    0.020609
    93  H    0.015971
    94  H    0.030668
    95  H    0.027746
    96  H    0.022541
    97  H    0.034074
    98  H    0.058281
    99  H    0.032279
   100  H    0.053732
   101  H    0.045936
   102  H    0.040320
   103  H    0.046862
   104  H    0.028464
   105  H    0.020832
   106  H    0.027787
   107  H    0.024702
   108  H    0.013243
   109  H    0.021882
   110  H    0.016976
   111  H    0.020654
   112  H    0.016185
   113  H    0.023960
   114  H    0.028790
   115  H    0.015202
   116  H    0.035128
   117  H    0.011379
   118  H    0.020501
   119  H    0.012170
   120  H    0.018395
   121  H    0.017883
   122  H    0.024079
   123  H    0.017056
   124  H    0.019124
   125  H    0.014495
   126  H    0.013588
   127  H    0.019825
   128  H    0.016447
   129  H    0.024308
   130  H    0.022519
   131  H    0.019831
   132  H    0.023950
   133  H    0.012736
   134  H    0.031659
   135  H    0.015683
   136  H    0.020885
   137  H    0.010288
   138  H    0.018189
   139  H    0.018417
   140  H    0.006863
 Sum of Mulliken charges =  -0.00000

 Dipole moment (field-independent basis, Debye):
    X=             -4.5429    Y=              7.2149    Z=              4.8834  Tot=              9.8255
 N-N= 4.342608203937D+03 E-N= 0.000000000000D+00  KE=-9.360248717154D+03
 Leave Link  601 at Thu Apr 28 15:52:25 2022, MaxMem=  6710886400 cpu:               0.8 elap:               0.1
 (Enter /sw/apps/gaussian-16.0/g16/l9999.exe)
 1\1\GINC-BP1-COMPUTE161\SP\RZINDO CIS\STO-3G\C55H74Mg1N4O6\OF15641\28-
 Apr-2022\0\\#p ZINDO=(nstates=5)\\step_1601_chromophore_4 ZINDO\\0,1\M
 g,0,9.07,3.785,27.866\C,0,10.427,2.083,30.754\C,0,7.582,6.044,29.952\C
 ,0,7.207,4.686,25.236\C,0,10.245,0.97,25.916\N,0,8.832,3.825,30.116\C,
 0,9.543,3.152,31.085\C,0,9.452,3.847,32.453\C,0,8.287,4.921,32.213\C,0
 ,8.256,4.932,30.666\C,0,6.877,4.594,32.788\C,0,10.816,4.537,32.943\C,0
 ,11.262,4.02,34.295\C,0,10.213,3.731,35.385\O,0,9.033,4.122,35.47\O,0,

 Normal termination of Gaussian 16 at Thu Apr 28 15:52:25 2022.
