 Gaussian 16, Revision A.03,
 Gaussian 16:  ES64L-G16RevA.03 25-Dec-2016

 ------------------------------
 #p blyp/Def2SVP td=(nstates=5)
 ------------------------------

 --------------------------------------------------
 step_301_chromophore_14 TDDFT with blyp functional
 --------------------------------------------------
 Symbolic Z-matrix:
 Charge =  0 Multiplicity = 1

                         Standard orientation:
 ---------------------------------------------------------------------
 Center     Atomic      Atomic             Coordinates (Angstroms)
 Number     Number       Type             X           Y           Z
 ---------------------------------------------------------------------
      1         12           0        5.132923    0.808179   -0.134872
      2          6           0        4.458171   -2.564961    0.304016
      3          6           0        4.136441    0.534060   -3.388882
      4          6           0        5.053242    4.127872   -0.344547
      5          6           0        5.621293    1.029913    3.337440
      6          7           0        4.311497   -0.843945   -1.359798
      7          6           0        4.087594   -2.117568   -0.979507
      8          6           0        3.564513   -2.999556   -2.180268
      9          6           0        3.568715   -2.012063   -3.384526
     10          6           0        4.023862   -0.678333   -2.695673
     11          6           0        4.381910   -2.451752   -4.593576
     12          6           0        2.211801   -3.775648   -1.925904
     13          6           0        1.196527   -3.053653   -1.012138
     14          6           0       -0.316610   -3.491287   -0.926541
     15          8           0       -0.943753   -4.290983   -1.650099
     16          8           0       -0.862712   -2.795863    0.136188
     17          7           0        4.954875    2.069002   -1.725183
     18          6           0        4.593238    1.835125   -3.004843
     19          6           0        4.614271    3.084168   -3.795453
     20          6           0        4.872522    4.145091   -2.926831
     21          6           0        5.017142    3.467319   -1.600841
     22          6           0        4.361962    3.176326   -5.246666
     23          6           0        5.069943    5.583077   -3.248672
     24          8           0        4.848546    5.947510   -4.378690
     25          6           0        5.421236    6.678093   -2.297425
     26          7           0        5.344290    2.362574    1.251560
     27          6           0        5.341090    3.715571    0.938212
     28          6           0        5.292631    4.619849    2.239439
     29          6           0        5.629654    3.614410    3.374676
     30          6           0        5.560805    2.277581    2.622470
     31          6           0        6.178842    5.934560    2.280988
     32          6           0        4.728279    3.728538    4.597144
     33          6           0        5.493472    4.241999    5.824232
     34          7           0        5.274269   -0.493871    1.504545
     35          6           0        5.503764   -0.281197    2.836196
     36          6           0        5.606000   -1.504995    3.503865
     37          6           0        5.182830   -2.461383    2.566978
     38          6           0        4.924358   -1.760129    1.325836
     39          6           0        5.968502   -1.687596    4.947352
     40          6           0        4.966717   -3.864382    2.323638
     41          8           0        5.208102   -4.890784    2.954182
     42          6           0        4.407224   -3.949890    0.838383
     43          6           0        5.101039   -4.979114    0.011450
     44          8           0        4.531322   -5.919638   -0.472384
     45          8           0        6.438231   -4.744423   -0.042870
     46          6           0        7.281835   -5.660350   -0.885578
     47          6           0       -2.334205   -3.051257    0.318708
     48          6           0       -2.924545   -1.668123    0.160627
     49          6           0       -3.447352   -1.029860   -0.892908
     50          6           0       -3.444492   -1.638750   -2.238319
     51          6           0       -4.158729    0.356127   -0.824248
     52          6           0       -5.644387    0.223615   -0.510802
     53          6           0       -6.037351   -0.128306    1.022322
     54          6           0       -7.454463    0.411941    1.210144
     55          6           0       -7.673209    1.333601    2.382380
     56          6           0       -8.437251   -0.852990    1.289595
     57          6           0       -9.490479   -0.767649    0.167283
     58          6           0      -10.866943   -1.261227    0.642931
     59          6           0      -11.978714   -0.201046    0.793397
     60          6           0      -12.160701    0.277796    2.234508
     61          6           0      -13.267880   -0.735818    0.120497
     62          6           0      -13.833155    0.088892   -1.095037
     63          6           0      -15.304926    0.597510   -0.964887
     64          6           0      -15.474301    2.025791   -0.326434
     65          6           0      -16.130001    1.851774    1.110804
     66          6           0      -16.285467    2.922459   -1.129350
     67          1           0        3.676339    0.585015   -4.378967
     68          1           0        4.825469    5.186711   -0.210539
     69          1           0        5.932295    1.250099    4.361145
     70          1           0        4.276676   -3.802810   -2.368795
     71          1           0        2.517300   -1.946669   -3.664019
     72          1           0        3.607815   -2.405801   -5.360537
     73          1           0        4.659896   -3.503207   -4.516685
     74          1           0        5.281615   -1.855053   -4.741859
     75          1           0        2.432330   -4.771871   -1.543463
     76          1           0        1.589938   -3.823181   -2.819100
     77          1           0        1.098047   -2.035891   -1.387994
     78          1           0        1.651688   -2.792937   -0.056047
     79          1           0        4.574647    2.179874   -5.632696
     80          1           0        4.973761    3.867892   -5.825522
     81          1           0        3.321863    3.454396   -5.417409
     82          1           0        6.108960    6.311923   -1.535543
     83          1           0        4.607534    7.038248   -1.668257
     84          1           0        5.962196    7.494306   -2.776012
     85          1           0        4.224563    4.807021    2.351413
     86          1           0        6.665936    3.755477    3.681828
     87          1           0        6.681072    6.120966    1.332045
     88          1           0        7.031124    5.818452    2.950837
     89          1           0        5.553831    6.811955    2.445713
     90          1           0        4.100034    2.846951    4.726125
     91          1           0        4.054044    4.568366    4.431962
     92          1           0        6.555497    4.017663    5.719692
     93          1           0        5.116544    3.705855    6.695716
     94          1           0        5.334924    5.315533    5.933141
     95          1           0        6.465020   -2.658221    4.968889
     96          1           0        5.113918   -1.658530    5.622806
     97          1           0        6.771971   -1.034512    5.286151
     98          1           0        3.408102   -4.371867    0.944806
     99          1           0        6.892130   -5.795599   -1.894069
    100          1           0        7.226942   -6.634381   -0.401103
    101          1           0        8.330143   -5.372284   -0.801198
    102          1           0       -2.468343   -3.336321    1.362289
    103          1           0       -2.826616   -3.797613   -0.305779
    104          1           0       -3.144514   -1.234758    1.136091
    105          1           0       -2.889095   -0.955982   -2.880912
    106          1           0       -4.475378   -1.578557   -2.586990
    107          1           0       -3.067887   -2.659330   -2.304237
    108          1           0       -3.901195    1.085873   -1.592187
    109          1           0       -3.798927    0.769141    0.117853
    110          1           0       -6.069614   -0.631555   -1.036568
    111          1           0       -6.124156    1.173681   -0.745793
    112          1           0       -5.389306    0.322519    1.774745
    113          1           0       -5.912967   -1.202327    1.160983
    114          1           0       -7.809299    1.029075    0.385112
    115          1           0       -8.727026    1.449595    2.632070
    116          1           0       -7.213660    2.281299    2.098796
    117          1           0       -7.147406    1.003025    3.278291
    118          1           0       -8.880583   -0.863907    2.285465
    119          1           0       -7.810504   -1.722658    1.092943
    120          1           0       -9.244065   -1.422154   -0.669608
    121          1           0       -9.635197    0.279902   -0.095346
    122          1           0      -10.830865   -1.857170    1.554119
    123          1           0      -11.195877   -2.085544    0.010560
    124          1           0      -11.702876    0.728201    0.295966
    125          1           0      -12.532221   -0.569399    2.811748
    126          1           0      -12.986351    0.989222    2.234648
    127          1           0      -11.211540    0.696452    2.568714
    128          1           0      -14.122679   -0.837000    0.789505
    129          1           0      -13.195285   -1.697662   -0.388651
    130          1           0      -13.837696   -0.479001   -2.025619
    131          1           0      -13.220569    0.987372   -1.171260
    132          1           0      -15.960385    0.019641   -0.313025
    133          1           0      -15.735584    0.570778   -1.965501
    134          1           0      -14.513874    2.522825   -0.195754
    135          1           0      -15.746347    1.004553    1.678779
    136          1           0      -17.212080    1.722851    1.118765
    137          1           0      -15.715836    2.642085    1.737417
    138          1           0      -16.837516    3.715199   -0.625421
    139          1           0      -16.995660    2.429297   -1.793255
    140          1           0      -15.620232    3.508388   -1.765385
 ---------------------------------------------------------------------

 SCF Done:  E(RB-LYP) =  -3007.36428426     A.U. after   21 cycles

 Excitation energies and oscillator strengths:

 Excited State   1:      Singlet-A      1.8056 eV  686.67 nm  f=0.1979  <S**2>=0.000
     244 -> 247       -0.39810
     245 -> 248       -0.16477
     246 -> 247        0.56844
     246 <- 247       -0.12034
 This state for optimization and/or second-order correction.
 Total Energy, E(TD-HF/TD-DFT) =  -3007.29793027
 Copying the excited state density for this state as the 1-particle RhoCI density.

 Excited State   2:      Singlet-A      1.8231 eV  680.06 nm  f=0.0955  <S**2>=0.000
     244 -> 247        0.57702
     245 -> 247        0.10381
     245 -> 248       -0.11956
     246 -> 247        0.38136

 Excited State   3:      Singlet-A      1.8810 eV  659.15 nm  f=0.0013  <S**2>=0.000
     243 -> 247        0.70116

 Excited State   4:      Singlet-A      2.0008 eV  619.69 nm  f=0.0773  <S**2>=0.000
     245 -> 247        0.63334
     246 -> 248        0.25743

 Excited State   5:      Singlet-A      2.2841 eV  542.82 nm  f=0.0001  <S**2>=0.000
     242 -> 247        0.70707

 The electronic state is 1-A.
 Alpha  occ. eigenvalues --  -46.27111 -18.81970 -18.81963 -18.77010 -18.76492
 Alpha  occ. eigenvalues --  -18.75389 -18.75275 -14.03939 -14.03589 -14.02016
 Alpha  occ. eigenvalues --  -14.00761 -10.04546 -10.03427  -9.99858  -9.99280
 Alpha  occ. eigenvalues --   -9.98249  -9.97620  -9.97111  -9.97047  -9.97017
 Alpha  occ. eigenvalues --   -9.96909  -9.96740  -9.96237  -9.95273  -9.95243
 Alpha  occ. eigenvalues --   -9.94577  -9.94239  -9.94189  -9.94146  -9.93966
 Alpha  occ. eigenvalues --   -9.93634  -9.93538  -9.93345  -9.93315  -9.93226
 Alpha  occ. eigenvalues --   -9.93036  -9.92941  -9.92888  -9.92835  -9.92827
 Alpha  occ. eigenvalues --   -9.92814  -9.92610  -9.92512  -9.92484  -9.92333
 Alpha  occ. eigenvalues --   -9.92228  -9.92145  -9.92048  -9.91707  -9.91656
 Alpha  occ. eigenvalues --   -9.91653  -9.91430  -9.91320  -9.91270  -9.91225
 Alpha  occ. eigenvalues --   -9.91090  -9.90991  -9.90989  -9.90931  -9.90928
 Alpha  occ. eigenvalues --   -9.90717  -9.90657  -9.90642  -9.90631  -9.90112
 Alpha  occ. eigenvalues --   -9.90093  -2.91839  -1.72266  -1.71722  -1.71552
 Alpha  occ. eigenvalues --   -0.97699  -0.96408  -0.92679  -0.90599  -0.90107
 Alpha  occ. eigenvalues --   -0.88628  -0.87228  -0.86165  -0.85662  -0.84838
 Alpha  occ. eigenvalues --   -0.75841  -0.73578  -0.73509  -0.72781  -0.72494
 Alpha  occ. eigenvalues --   -0.71946  -0.71679  -0.71027  -0.70766  -0.70544
 Alpha  occ. eigenvalues --   -0.70388  -0.68974  -0.67921  -0.67632  -0.67204
 Alpha  occ. eigenvalues --   -0.66537  -0.66106  -0.65233  -0.65023  -0.64755
 Alpha  occ. eigenvalues --   -0.64405  -0.62650  -0.62380  -0.62064  -0.61103
 Alpha  occ. eigenvalues --   -0.60344  -0.60291  -0.60194  -0.59522  -0.58551
 Alpha  occ. eigenvalues --   -0.58221  -0.57884  -0.57053  -0.55592  -0.54969
 Alpha  occ. eigenvalues --   -0.54331  -0.53545  -0.53090  -0.52070  -0.51880
 Alpha  occ. eigenvalues --   -0.51266  -0.51012  -0.50636  -0.50525  -0.49956
 Alpha  occ. eigenvalues --   -0.49275  -0.49231  -0.48822  -0.48659  -0.46415
 Alpha  occ. eigenvalues --   -0.46136  -0.45722  -0.45664  -0.45149  -0.44526
 Alpha  occ. eigenvalues --   -0.44034  -0.43652  -0.43172  -0.42801  -0.42460
 Alpha  occ. eigenvalues --   -0.42064  -0.41738  -0.41641  -0.41505  -0.41003
 Alpha  occ. eigenvalues --   -0.40801  -0.40564  -0.40403  -0.40106  -0.39996
 Alpha  occ. eigenvalues --   -0.39751  -0.39555  -0.39460  -0.39264  -0.39140
 Alpha  occ. eigenvalues --   -0.38970  -0.38722  -0.38657  -0.38477  -0.38387
 Alpha  occ. eigenvalues --   -0.38104  -0.37972  -0.37587  -0.37575  -0.37471
 Alpha  occ. eigenvalues --   -0.37291  -0.37051  -0.36978  -0.36765  -0.36508
 Alpha  occ. eigenvalues --   -0.36311  -0.36264  -0.36157  -0.35658  -0.35451
 Alpha  occ. eigenvalues --   -0.35356  -0.35213  -0.35132  -0.34904  -0.34820
 Alpha  occ. eigenvalues --   -0.34680  -0.34640  -0.34389  -0.34343  -0.34083
 Alpha  occ. eigenvalues --   -0.33912  -0.33767  -0.33531  -0.33447  -0.33257
 Alpha  occ. eigenvalues --   -0.33159  -0.32891  -0.32682  -0.32499  -0.32248
 Alpha  occ. eigenvalues --   -0.32164  -0.32088  -0.31942  -0.31643  -0.31524
 Alpha  occ. eigenvalues --   -0.31266  -0.30790  -0.30707  -0.30592  -0.30482
 Alpha  occ. eigenvalues --   -0.30412  -0.30189  -0.30112  -0.30017  -0.29871
 Alpha  occ. eigenvalues --   -0.29704  -0.29534  -0.29365  -0.29064  -0.29016
 Alpha  occ. eigenvalues --   -0.28861  -0.28424  -0.28291  -0.28121  -0.27754
 Alpha  occ. eigenvalues --   -0.27701  -0.27474  -0.27135  -0.26993  -0.26593
 Alpha  occ. eigenvalues --   -0.26314  -0.26020  -0.25791  -0.25605  -0.25122
 Alpha  occ. eigenvalues --   -0.25110  -0.24693  -0.24491  -0.24147  -0.23846
 Alpha  occ. eigenvalues --   -0.22624  -0.22490  -0.22232  -0.21744  -0.21239
 Alpha  occ. eigenvalues --   -0.20703  -0.20175  -0.18627  -0.18352  -0.17501
 Alpha  occ. eigenvalues --   -0.16100
 Alpha virt. eigenvalues --   -0.11783  -0.07439  -0.06363  -0.04890  -0.02859
 Alpha virt. eigenvalues --   -0.02460  -0.01915  -0.01724  -0.01650  -0.00323
 Alpha virt. eigenvalues --    0.00648   0.01234   0.02080   0.02259   0.02855

 Mulliken charges:
               1
     1  Mg   0.714516
     2  C    0.040227
     3  C   -0.061904
     4  C   -0.048146
     5  C   -0.088956
     6  N   -0.201536
     7  C   -0.106319
     8  C    0.008578
     9  C    0.017146
    10  C    0.028080
    11  C    0.150442
    12  C    0.121806
    13  C    0.033968
    14  C    0.143544
    15  O   -0.208084
    16  O   -0.279829
    17  N   -0.297968
    18  C    0.090584
    19  C   -0.138584
    20  C    0.083164
    21  C    0.155981
    22  C    0.180878
    23  C   -0.094679
    24  O   -0.163205
    25  C    0.135755
    26  N   -0.259231
    27  C   -0.031133
    28  C    0.014570
    29  C    0.033880
    30  C   -0.033078
    31  C    0.134830
    32  C    0.103976
    33  C    0.054238
    34  N   -0.238569
    35  C    0.168120
    36  C   -0.184100
    37  C    0.078850
    38  C    0.079515
    39  C    0.175101
    40  C   -0.040106
    41  O   -0.130719
    42  C    0.072093
    43  C    0.056242
    44  O   -0.158726
    45  O   -0.283227
    46  C    0.226092
    47  C    0.340942
    48  C   -0.103054
    49  C   -0.180909
    50  C    0.165517
    51  C    0.170334
    52  C    0.039047
    53  C    0.098904
    54  C   -0.103627
    55  C    0.114671
    56  C    0.107699
    57  C    0.091102
    58  C    0.086388
    59  C   -0.052409
    60  C    0.103403
    61  C    0.115339
    62  C    0.046203
    63  C    0.092638
    64  C   -0.075754
    65  C    0.081947
    66  C    0.119477
    67  H   -0.056618
    68  H   -0.073637
    69  H   -0.062510
    70  H   -0.011818
    71  H   -0.023399
    72  H   -0.004294
    73  H   -0.010080
    74  H    0.005019
    75  H    0.013001
    76  H   -0.017928
    77  H   -0.008292
    78  H   -0.001960
    79  H   -0.020471
    80  H    0.008791
    81  H    0.006066
    82  H   -0.024186
    83  H    0.020891
    84  H   -0.001182
    85  H   -0.012163
    86  H   -0.021287
    87  H   -0.010955
    88  H   -0.008401
    89  H    0.001547
    90  H   -0.007951
    91  H   -0.028963
    92  H   -0.009088
    93  H   -0.004791
    94  H    0.001819
    95  H    0.003019
    96  H    0.016289
    97  H   -0.017528
    98  H   -0.005447
    99  H    0.020094
   100  H    0.013769
   101  H    0.022271
   102  H   -0.019606
   103  H    0.016730
   104  H   -0.046537
   105  H   -0.014984
   106  H   -0.019022
   107  H    0.007761
   108  H   -0.021983
   109  H   -0.042376
   110  H   -0.020128
   111  H   -0.018180
   112  H   -0.041258
   113  H   -0.020671
   114  H   -0.025890
   115  H   -0.012833
   116  H   -0.021626
   117  H   -0.022613
   118  H   -0.027563
   119  H   -0.039039
   120  H   -0.024027
   121  H   -0.026361
   122  H   -0.049749
   123  H   -0.055600
   124  H   -0.035003
   125  H   -0.017710
   126  H   -0.016543
   127  H   -0.002284
   128  H   -0.041610
   129  H   -0.031116
   130  H   -0.028286
   131  H   -0.031457
   132  H   -0.035888
   133  H   -0.042771
   134  H   -0.038789
   135  H   -0.028404
   136  H   -0.005405
   137  H   -0.022245
   138  H   -0.027665
   139  H   -0.019444
   140  H   -0.031389
 Sum of Mulliken charges =  -0.00000

 Dipole moment (field-independent basis, Debye):
    X=              1.1846    Y=              5.4199    Z=              1.4768  Tot=              5.7410
 Quadrupole moment (field-independent basis, Debye-Ang):
   XX=           -377.6995   YY=           -436.7794   ZZ=           -407.8066
   XY=             12.7239   XZ=              5.5251   YZ=             38.2737

 Normal termination of Gaussian 16 at Fri Apr 29 12:47:36 2022.
