 Gaussian 16, Revision A.03,
 Gaussian 16:  ES64L-G16RevA.03 25-Dec-2016

 -----------------------------------
 #p cam-b3lyp/Def2SVP td=(nstates=5)
 -----------------------------------

 -------------------------------------------------------
 step_301_chromophore_14 TDDFT with cam-b3lyp functional
 -------------------------------------------------------
 Symbolic Z-matrix:
 Charge =  0 Multiplicity = 1

                         Standard orientation:
 ---------------------------------------------------------------------
 Center     Atomic      Atomic             Coordinates (Angstroms)
 Number     Number       Type             X           Y           Z
 ---------------------------------------------------------------------
      1         12           0        5.132923    0.808179   -0.134872
      2          6           0        4.458171   -2.564961    0.304016
      3          6           0        4.136441    0.534060   -3.388882
      4          6           0        5.053242    4.127872   -0.344547
      5          6           0        5.621293    1.029913    3.337440
      6          7           0        4.311497   -0.843945   -1.359798
      7          6           0        4.087594   -2.117568   -0.979507
      8          6           0        3.564513   -2.999556   -2.180268
      9          6           0        3.568715   -2.012063   -3.384526
     10          6           0        4.023862   -0.678333   -2.695673
     11          6           0        4.381910   -2.451752   -4.593576
     12          6           0        2.211801   -3.775648   -1.925904
     13          6           0        1.196527   -3.053653   -1.012138
     14          6           0       -0.316610   -3.491287   -0.926541
     15          8           0       -0.943753   -4.290983   -1.650099
     16          8           0       -0.862712   -2.795863    0.136188
     17          7           0        4.954875    2.069002   -1.725183
     18          6           0        4.593238    1.835125   -3.004843
     19          6           0        4.614271    3.084168   -3.795453
     20          6           0        4.872522    4.145091   -2.926831
     21          6           0        5.017142    3.467319   -1.600841
     22          6           0        4.361962    3.176326   -5.246666
     23          6           0        5.069943    5.583077   -3.248672
     24          8           0        4.848546    5.947510   -4.378690
     25          6           0        5.421236    6.678093   -2.297425
     26          7           0        5.344290    2.362574    1.251560
     27          6           0        5.341090    3.715571    0.938212
     28          6           0        5.292631    4.619849    2.239439
     29          6           0        5.629654    3.614410    3.374676
     30          6           0        5.560805    2.277581    2.622470
     31          6           0        6.178842    5.934560    2.280988
     32          6           0        4.728279    3.728538    4.597144
     33          6           0        5.493472    4.241999    5.824232
     34          7           0        5.274269   -0.493871    1.504545
     35          6           0        5.503764   -0.281197    2.836196
     36          6           0        5.606000   -1.504995    3.503865
     37          6           0        5.182830   -2.461383    2.566978
     38          6           0        4.924358   -1.760129    1.325836
     39          6           0        5.968502   -1.687596    4.947352
     40          6           0        4.966717   -3.864382    2.323638
     41          8           0        5.208102   -4.890784    2.954182
     42          6           0        4.407224   -3.949890    0.838383
     43          6           0        5.101039   -4.979114    0.011450
     44          8           0        4.531322   -5.919638   -0.472384
     45          8           0        6.438231   -4.744423   -0.042870
     46          6           0        7.281835   -5.660350   -0.885578
     47          6           0       -2.334205   -3.051257    0.318708
     48          6           0       -2.924545   -1.668123    0.160627
     49          6           0       -3.447352   -1.029860   -0.892908
     50          6           0       -3.444492   -1.638750   -2.238319
     51          6           0       -4.158729    0.356127   -0.824248
     52          6           0       -5.644387    0.223615   -0.510802
     53          6           0       -6.037351   -0.128306    1.022322
     54          6           0       -7.454463    0.411941    1.210144
     55          6           0       -7.673209    1.333601    2.382380
     56          6           0       -8.437251   -0.852990    1.289595
     57          6           0       -9.490479   -0.767649    0.167283
     58          6           0      -10.866943   -1.261227    0.642931
     59          6           0      -11.978714   -0.201046    0.793397
     60          6           0      -12.160701    0.277796    2.234508
     61          6           0      -13.267880   -0.735818    0.120497
     62          6           0      -13.833155    0.088892   -1.095037
     63          6           0      -15.304926    0.597510   -0.964887
     64          6           0      -15.474301    2.025791   -0.326434
     65          6           0      -16.130001    1.851774    1.110804
     66          6           0      -16.285467    2.922459   -1.129350
     67          1           0        3.676339    0.585015   -4.378967
     68          1           0        4.825469    5.186711   -0.210539
     69          1           0        5.932295    1.250099    4.361145
     70          1           0        4.276676   -3.802810   -2.368795
     71          1           0        2.517300   -1.946669   -3.664019
     72          1           0        3.607815   -2.405801   -5.360537
     73          1           0        4.659896   -3.503207   -4.516685
     74          1           0        5.281615   -1.855053   -4.741859
     75          1           0        2.432330   -4.771871   -1.543463
     76          1           0        1.589938   -3.823181   -2.819100
     77          1           0        1.098047   -2.035891   -1.387994
     78          1           0        1.651688   -2.792937   -0.056047
     79          1           0        4.574647    2.179874   -5.632696
     80          1           0        4.973761    3.867892   -5.825522
     81          1           0        3.321863    3.454396   -5.417409
     82          1           0        6.108960    6.311923   -1.535543
     83          1           0        4.607534    7.038248   -1.668257
     84          1           0        5.962196    7.494306   -2.776012
     85          1           0        4.224563    4.807021    2.351413
     86          1           0        6.665936    3.755477    3.681828
     87          1           0        6.681072    6.120966    1.332045
     88          1           0        7.031124    5.818452    2.950837
     89          1           0        5.553831    6.811955    2.445713
     90          1           0        4.100034    2.846951    4.726125
     91          1           0        4.054044    4.568366    4.431962
     92          1           0        6.555497    4.017663    5.719692
     93          1           0        5.116544    3.705855    6.695716
     94          1           0        5.334924    5.315533    5.933141
     95          1           0        6.465020   -2.658221    4.968889
     96          1           0        5.113918   -1.658530    5.622806
     97          1           0        6.771971   -1.034512    5.286151
     98          1           0        3.408102   -4.371867    0.944806
     99          1           0        6.892130   -5.795599   -1.894069
    100          1           0        7.226942   -6.634381   -0.401103
    101          1           0        8.330143   -5.372284   -0.801198
    102          1           0       -2.468343   -3.336321    1.362289
    103          1           0       -2.826616   -3.797613   -0.305779
    104          1           0       -3.144514   -1.234758    1.136091
    105          1           0       -2.889095   -0.955982   -2.880912
    106          1           0       -4.475378   -1.578557   -2.586990
    107          1           0       -3.067887   -2.659330   -2.304237
    108          1           0       -3.901195    1.085873   -1.592187
    109          1           0       -3.798927    0.769141    0.117853
    110          1           0       -6.069614   -0.631555   -1.036568
    111          1           0       -6.124156    1.173681   -0.745793
    112          1           0       -5.389306    0.322519    1.774745
    113          1           0       -5.912967   -1.202327    1.160983
    114          1           0       -7.809299    1.029075    0.385112
    115          1           0       -8.727026    1.449595    2.632070
    116          1           0       -7.213660    2.281299    2.098796
    117          1           0       -7.147406    1.003025    3.278291
    118          1           0       -8.880583   -0.863907    2.285465
    119          1           0       -7.810504   -1.722658    1.092943
    120          1           0       -9.244065   -1.422154   -0.669608
    121          1           0       -9.635197    0.279902   -0.095346
    122          1           0      -10.830865   -1.857170    1.554119
    123          1           0      -11.195877   -2.085544    0.010560
    124          1           0      -11.702876    0.728201    0.295966
    125          1           0      -12.532221   -0.569399    2.811748
    126          1           0      -12.986351    0.989222    2.234648
    127          1           0      -11.211540    0.696452    2.568714
    128          1           0      -14.122679   -0.837000    0.789505
    129          1           0      -13.195285   -1.697662   -0.388651
    130          1           0      -13.837696   -0.479001   -2.025619
    131          1           0      -13.220569    0.987372   -1.171260
    132          1           0      -15.960385    0.019641   -0.313025
    133          1           0      -15.735584    0.570778   -1.965501
    134          1           0      -14.513874    2.522825   -0.195754
    135          1           0      -15.746347    1.004553    1.678779
    136          1           0      -17.212080    1.722851    1.118765
    137          1           0      -15.715836    2.642085    1.737417
    138          1           0      -16.837516    3.715199   -0.625421
    139          1           0      -16.995660    2.429297   -1.793255
    140          1           0      -15.620232    3.508388   -1.765385
 ---------------------------------------------------------------------

 SCF Done:  E(RCAM-B3LYP) =  -3007.15722899     A.U. after   17 cycles

 Excitation energies and oscillator strengths:

 Excited State   1:      Singlet-A      1.6984 eV  730.00 nm  f=0.3631  <S**2>=0.000
     245 -> 248       -0.18912
     246 -> 247        0.68315
     245 <- 248       -0.11002
 This state for optimization and/or second-order correction.
 Total Energy, E(TD-HF/TD-DFT) =  -3007.09481358
 Copying the excited state density for this state as the 1-particle RhoCI density.

 Excited State   2:      Singlet-A      2.2093 eV  561.20 nm  f=0.0895  <S**2>=0.000
     245 -> 247        0.62874
     246 -> 248        0.31346

 Excited State   3:      Singlet-A      3.3614 eV  368.85 nm  f=0.0032  <S**2>=0.000
     242 -> 247        0.57226
     242 -> 249       -0.25341
     242 -> 250       -0.20795
     243 -> 247        0.17782

 Excited State   4:      Singlet-A      3.4099 eV  363.60 nm  f=0.2694  <S**2>=0.000
     242 -> 247        0.15074
     243 -> 247       -0.44523
     245 -> 247       -0.20026
     246 -> 248        0.46364

 Excited State   5:      Singlet-A      3.5021 eV  354.03 nm  f=0.2672  <S**2>=0.000
     241 -> 247       -0.30260
     242 -> 247       -0.10276
     243 -> 247        0.45333
     245 -> 247       -0.18604
     246 -> 248        0.35447

 The electronic state is 1-A.
 Alpha  occ. eigenvalues --  -46.88627 -19.24849 -19.24809 -19.19930 -19.19608
 Alpha  occ. eigenvalues --  -19.18602 -19.18525 -14.42874 -14.42527 -14.40624
 Alpha  occ. eigenvalues --  -14.39127 -10.39981 -10.38778 -10.34942 -10.34675
 Alpha  occ. eigenvalues --  -10.32289 -10.31753 -10.31631 -10.31600 -10.31514
 Alpha  occ. eigenvalues --  -10.31471 -10.31278 -10.30576 -10.29444 -10.29310
 Alpha  occ. eigenvalues --  -10.28896 -10.28536 -10.28374 -10.28149 -10.28130
 Alpha  occ. eigenvalues --  -10.27792 -10.27776 -10.27458 -10.27364 -10.27330
 Alpha  occ. eigenvalues --  -10.27255 -10.27192 -10.27143 -10.26936 -10.26908
 Alpha  occ. eigenvalues --  -10.26658 -10.26545 -10.26187 -10.26141 -10.26091
 Alpha  occ. eigenvalues --  -10.26076 -10.25920 -10.25835 -10.25453 -10.25420
 Alpha  occ. eigenvalues --  -10.25348 -10.25345 -10.25136 -10.25025 -10.24838
 Alpha  occ. eigenvalues --  -10.24770 -10.24764 -10.24578 -10.24545 -10.24491
 Alpha  occ. eigenvalues --  -10.24403 -10.24316 -10.24302 -10.24287 -10.23739
 Alpha  occ. eigenvalues --  -10.23620  -3.17264  -1.92168  -1.91723  -1.91576
 Alpha  occ. eigenvalues --   -1.16265  -1.14770  -1.11153  -1.09006  -1.08030
 Alpha  occ. eigenvalues --   -1.06406  -1.04948  -1.03825  -1.03310  -1.02389
 Alpha  occ. eigenvalues --   -0.93023  -0.90431  -0.90255  -0.89567  -0.89254
 Alpha  occ. eigenvalues --   -0.88642  -0.88365  -0.87616  -0.87430  -0.87188
 Alpha  occ. eigenvalues --   -0.86915  -0.85338  -0.84135  -0.83799  -0.83381
 Alpha  occ. eigenvalues --   -0.82593  -0.82309  -0.81170  -0.80781  -0.80637
 Alpha  occ. eigenvalues --   -0.80194  -0.78308  -0.77981  -0.77671  -0.76591
 Alpha  occ. eigenvalues --   -0.75668  -0.75619  -0.75562  -0.74824  -0.73721
 Alpha  occ. eigenvalues --   -0.73325  -0.72926  -0.71973  -0.70426  -0.69583
 Alpha  occ. eigenvalues --   -0.69001  -0.68126  -0.67600  -0.66226  -0.66163
 Alpha  occ. eigenvalues --   -0.65393  -0.65135  -0.64722  -0.64453  -0.64008
 Alpha  occ. eigenvalues --   -0.63199  -0.62936  -0.62734  -0.62386  -0.60070
 Alpha  occ. eigenvalues --   -0.59702  -0.59213  -0.59149  -0.58507  -0.58096
 Alpha  occ. eigenvalues --   -0.57380  -0.56946  -0.56524  -0.55921  -0.55634
 Alpha  occ. eigenvalues --   -0.55181  -0.54851  -0.54443  -0.54342  -0.54082
 Alpha  occ. eigenvalues --   -0.53529  -0.53279  -0.53020  -0.52914  -0.52816
 Alpha  occ. eigenvalues --   -0.52605  -0.52354  -0.52213  -0.52173  -0.51785
 Alpha  occ. eigenvalues --   -0.51687  -0.51321  -0.51113  -0.50921  -0.50771
 Alpha  occ. eigenvalues --   -0.50411  -0.50226  -0.49898  -0.49816  -0.49787
 Alpha  occ. eigenvalues --   -0.49664  -0.49434  -0.49138  -0.49091  -0.48981
 Alpha  occ. eigenvalues --   -0.48931  -0.48640  -0.48292  -0.48158  -0.47523
 Alpha  occ. eigenvalues --   -0.47354  -0.47276  -0.47153  -0.46902  -0.46681
 Alpha  occ. eigenvalues --   -0.46562  -0.46400  -0.46332  -0.46185  -0.45886
 Alpha  occ. eigenvalues --   -0.45659  -0.45502  -0.45371  -0.45197  -0.45110
 Alpha  occ. eigenvalues --   -0.44762  -0.44656  -0.44504  -0.44188  -0.43915
 Alpha  occ. eigenvalues --   -0.43787  -0.43684  -0.43489  -0.43324  -0.43165
 Alpha  occ. eigenvalues --   -0.42812  -0.42432  -0.42236  -0.42057  -0.41915
 Alpha  occ. eigenvalues --   -0.41864  -0.41709  -0.41532  -0.41371  -0.41229
 Alpha  occ. eigenvalues --   -0.41002  -0.40722  -0.40635  -0.40222  -0.40106
 Alpha  occ. eigenvalues --   -0.39899  -0.39503  -0.39396  -0.39074  -0.38769
 Alpha  occ. eigenvalues --   -0.38623  -0.38384  -0.38148  -0.37934  -0.37414
 Alpha  occ. eigenvalues --   -0.37023  -0.36953  -0.36497  -0.36427  -0.36232
 Alpha  occ. eigenvalues --   -0.35993  -0.35612  -0.35143  -0.35016  -0.34369
 Alpha  occ. eigenvalues --   -0.34169  -0.33207  -0.32767  -0.31653  -0.31209
 Alpha  occ. eigenvalues --   -0.30557  -0.30372  -0.30071  -0.29895  -0.24288
 Alpha  occ. eigenvalues --   -0.21360
 Alpha virt. eigenvalues --   -0.08851  -0.02348   0.00121   0.02052   0.03048
 Alpha virt. eigenvalues --    0.04400   0.04936   0.05880   0.06105   0.06224
 Alpha virt. eigenvalues --    0.07479   0.08254   0.08377   0.08633   0.09171

 Mulliken charges:
               1
     1  Mg   0.848973
     2  C    0.005138
     3  C   -0.073296
     4  C   -0.077907
     5  C   -0.094782
     6  N   -0.272188
     7  C   -0.063274
     8  C   -0.030836
     9  C   -0.030616
    10  C    0.042211
    11  C    0.087493
    12  C    0.070936
    13  C   -0.032438
    14  C    0.226261
    15  O   -0.252957
    16  O   -0.343409
    17  N   -0.383939
    18  C    0.095849
    19  C   -0.141164
    20  C    0.014290
    21  C    0.183446
    22  C    0.123369
    23  C   -0.022349
    24  O   -0.201332
    25  C    0.058352
    26  N   -0.330691
    27  C   -0.001259
    28  C   -0.044465
    29  C   -0.020843
    30  C   -0.005821
    31  C    0.076484
    32  C    0.037965
    33  C   -0.003652
    34  N   -0.329215
    35  C    0.165419
    36  C   -0.175876
    37  C   -0.003599
    38  C    0.114788
    39  C    0.124616
    40  C    0.065852
    41  O   -0.169871
    42  C   -0.006272
    43  C    0.147161
    44  O   -0.198257
    45  O   -0.345695
    46  C    0.186643
    47  C    0.301816
    48  C   -0.126006
    49  C   -0.197101
    50  C    0.102026
    51  C    0.107979
    52  C   -0.007336
    53  C    0.046127
    54  C   -0.161500
    55  C    0.062058
    56  C    0.055152
    57  C    0.037280
    58  C    0.030645
    59  C   -0.110797
    60  C    0.059136
    61  C    0.057504
    62  C   -0.003138
    63  C    0.038003
    64  C   -0.133964
    65  C    0.022087
    66  C    0.055480
    67  H   -0.021189
    68  H   -0.039140
    69  H   -0.027521
    70  H    0.021117
    71  H    0.010849
    72  H    0.019693
    73  H    0.014967
    74  H    0.031264
    75  H    0.042712
    76  H    0.013906
    77  H    0.022387
    78  H    0.030018
    79  H    0.004221
    80  H    0.038881
    81  H    0.033921
    82  H    0.003543
    83  H    0.047565
    84  H    0.032986
    85  H    0.022724
    86  H    0.012652
    87  H    0.012558
    88  H    0.016735
    89  H    0.026017
    90  H    0.024099
    91  H    0.001237
    92  H    0.012424
    93  H    0.019786
    94  H    0.024272
    95  H    0.030251
    96  H    0.042411
    97  H    0.008905
    98  H    0.034640
    99  H    0.041967
   100  H    0.037705
   101  H    0.046559
   102  H    0.011759
   103  H    0.049843
   104  H   -0.016133
   105  H    0.009836
   106  H    0.004003
   107  H    0.032180
   108  H    0.009582
   109  H   -0.010139
   110  H    0.003752
   111  H    0.009973
   112  H   -0.013449
   113  H    0.006894
   114  H    0.003813
   115  H    0.007727
   116  H    0.002451
   117  H    0.001330
   118  H   -0.000085
   119  H   -0.009423
   120  H    0.004750
   121  H   -0.000314
   122  H   -0.019814
   123  H   -0.022866
   124  H   -0.005470
   125  H    0.005087
   126  H    0.003951
   127  H    0.015337
   128  H   -0.014261
   129  H   -0.000913
   130  H    0.000779
   131  H   -0.005529
   132  H   -0.007059
   133  H   -0.012153
   134  H   -0.008487
   135  H   -0.006727
   136  H    0.019004
   137  H    0.002615
   138  H   -0.000606
   139  H    0.004668
   140  H   -0.005719
 Sum of Mulliken charges =  -0.00000

 Dipole moment (field-independent basis, Debye):
    X=              1.2883    Y=              5.8066    Z=              1.4815  Tot=              6.1295
 Quadrupole moment (field-independent basis, Debye-Ang):
   XX=           -375.3387   YY=           -433.9161   ZZ=           -405.8812
   XY=             14.4407   XZ=              5.2925   YZ=             39.2266

 Normal termination of Gaussian 16 at Fri Apr 29 11:51:17 2022.
