 Gaussian 16, Revision A.03,
 Gaussian 16:  ES64L-G16RevA.03 25-Dec-2016

 ---------------------------------
 #p PBE1PBE/Def2SVP td=(nstates=5)
 ---------------------------------

 -----------------------------------------------------
 step_301_chromophore_14 TDDFT with PBE1PBE functional
 -----------------------------------------------------
 Symbolic Z-matrix:
 Charge =  0 Multiplicity = 1

                         Standard orientation:
 ---------------------------------------------------------------------
 Center     Atomic      Atomic             Coordinates (Angstroms)
 Number     Number       Type             X           Y           Z
 ---------------------------------------------------------------------
      1         12           0        5.132923    0.808179   -0.134872
      2          6           0        4.458171   -2.564961    0.304016
      3          6           0        4.136441    0.534060   -3.388882
      4          6           0        5.053242    4.127872   -0.344547
      5          6           0        5.621293    1.029913    3.337440
      6          7           0        4.311497   -0.843945   -1.359798
      7          6           0        4.087594   -2.117568   -0.979507
      8          6           0        3.564513   -2.999556   -2.180268
      9          6           0        3.568715   -2.012063   -3.384526
     10          6           0        4.023862   -0.678333   -2.695673
     11          6           0        4.381910   -2.451752   -4.593576
     12          6           0        2.211801   -3.775648   -1.925904
     13          6           0        1.196527   -3.053653   -1.012138
     14          6           0       -0.316610   -3.491287   -0.926541
     15          8           0       -0.943753   -4.290983   -1.650099
     16          8           0       -0.862712   -2.795863    0.136188
     17          7           0        4.954875    2.069002   -1.725183
     18          6           0        4.593238    1.835125   -3.004843
     19          6           0        4.614271    3.084168   -3.795453
     20          6           0        4.872522    4.145091   -2.926831
     21          6           0        5.017142    3.467319   -1.600841
     22          6           0        4.361962    3.176326   -5.246666
     23          6           0        5.069943    5.583077   -3.248672
     24          8           0        4.848546    5.947510   -4.378690
     25          6           0        5.421236    6.678093   -2.297425
     26          7           0        5.344290    2.362574    1.251560
     27          6           0        5.341090    3.715571    0.938212
     28          6           0        5.292631    4.619849    2.239439
     29          6           0        5.629654    3.614410    3.374676
     30          6           0        5.560805    2.277581    2.622470
     31          6           0        6.178842    5.934560    2.280988
     32          6           0        4.728279    3.728538    4.597144
     33          6           0        5.493472    4.241999    5.824232
     34          7           0        5.274269   -0.493871    1.504545
     35          6           0        5.503764   -0.281197    2.836196
     36          6           0        5.606000   -1.504995    3.503865
     37          6           0        5.182830   -2.461383    2.566978
     38          6           0        4.924358   -1.760129    1.325836
     39          6           0        5.968502   -1.687596    4.947352
     40          6           0        4.966717   -3.864382    2.323638
     41          8           0        5.208102   -4.890784    2.954182
     42          6           0        4.407224   -3.949890    0.838383
     43          6           0        5.101039   -4.979114    0.011450
     44          8           0        4.531322   -5.919638   -0.472384
     45          8           0        6.438231   -4.744423   -0.042870
     46          6           0        7.281835   -5.660350   -0.885578
     47          6           0       -2.334205   -3.051257    0.318708
     48          6           0       -2.924545   -1.668123    0.160627
     49          6           0       -3.447352   -1.029860   -0.892908
     50          6           0       -3.444492   -1.638750   -2.238319
     51          6           0       -4.158729    0.356127   -0.824248
     52          6           0       -5.644387    0.223615   -0.510802
     53          6           0       -6.037351   -0.128306    1.022322
     54          6           0       -7.454463    0.411941    1.210144
     55          6           0       -7.673209    1.333601    2.382380
     56          6           0       -8.437251   -0.852990    1.289595
     57          6           0       -9.490479   -0.767649    0.167283
     58          6           0      -10.866943   -1.261227    0.642931
     59          6           0      -11.978714   -0.201046    0.793397
     60          6           0      -12.160701    0.277796    2.234508
     61          6           0      -13.267880   -0.735818    0.120497
     62          6           0      -13.833155    0.088892   -1.095037
     63          6           0      -15.304926    0.597510   -0.964887
     64          6           0      -15.474301    2.025791   -0.326434
     65          6           0      -16.130001    1.851774    1.110804
     66          6           0      -16.285467    2.922459   -1.129350
     67          1           0        3.676339    0.585015   -4.378967
     68          1           0        4.825469    5.186711   -0.210539
     69          1           0        5.932295    1.250099    4.361145
     70          1           0        4.276676   -3.802810   -2.368795
     71          1           0        2.517300   -1.946669   -3.664019
     72          1           0        3.607815   -2.405801   -5.360537
     73          1           0        4.659896   -3.503207   -4.516685
     74          1           0        5.281615   -1.855053   -4.741859
     75          1           0        2.432330   -4.771871   -1.543463
     76          1           0        1.589938   -3.823181   -2.819100
     77          1           0        1.098047   -2.035891   -1.387994
     78          1           0        1.651688   -2.792937   -0.056047
     79          1           0        4.574647    2.179874   -5.632696
     80          1           0        4.973761    3.867892   -5.825522
     81          1           0        3.321863    3.454396   -5.417409
     82          1           0        6.108960    6.311923   -1.535543
     83          1           0        4.607534    7.038248   -1.668257
     84          1           0        5.962196    7.494306   -2.776012
     85          1           0        4.224563    4.807021    2.351413
     86          1           0        6.665936    3.755477    3.681828
     87          1           0        6.681072    6.120966    1.332045
     88          1           0        7.031124    5.818452    2.950837
     89          1           0        5.553831    6.811955    2.445713
     90          1           0        4.100034    2.846951    4.726125
     91          1           0        4.054044    4.568366    4.431962
     92          1           0        6.555497    4.017663    5.719692
     93          1           0        5.116544    3.705855    6.695716
     94          1           0        5.334924    5.315533    5.933141
     95          1           0        6.465020   -2.658221    4.968889
     96          1           0        5.113918   -1.658530    5.622806
     97          1           0        6.771971   -1.034512    5.286151
     98          1           0        3.408102   -4.371867    0.944806
     99          1           0        6.892130   -5.795599   -1.894069
    100          1           0        7.226942   -6.634381   -0.401103
    101          1           0        8.330143   -5.372284   -0.801198
    102          1           0       -2.468343   -3.336321    1.362289
    103          1           0       -2.826616   -3.797613   -0.305779
    104          1           0       -3.144514   -1.234758    1.136091
    105          1           0       -2.889095   -0.955982   -2.880912
    106          1           0       -4.475378   -1.578557   -2.586990
    107          1           0       -3.067887   -2.659330   -2.304237
    108          1           0       -3.901195    1.085873   -1.592187
    109          1           0       -3.798927    0.769141    0.117853
    110          1           0       -6.069614   -0.631555   -1.036568
    111          1           0       -6.124156    1.173681   -0.745793
    112          1           0       -5.389306    0.322519    1.774745
    113          1           0       -5.912967   -1.202327    1.160983
    114          1           0       -7.809299    1.029075    0.385112
    115          1           0       -8.727026    1.449595    2.632070
    116          1           0       -7.213660    2.281299    2.098796
    117          1           0       -7.147406    1.003025    3.278291
    118          1           0       -8.880583   -0.863907    2.285465
    119          1           0       -7.810504   -1.722658    1.092943
    120          1           0       -9.244065   -1.422154   -0.669608
    121          1           0       -9.635197    0.279902   -0.095346
    122          1           0      -10.830865   -1.857170    1.554119
    123          1           0      -11.195877   -2.085544    0.010560
    124          1           0      -11.702876    0.728201    0.295966
    125          1           0      -12.532221   -0.569399    2.811748
    126          1           0      -12.986351    0.989222    2.234648
    127          1           0      -11.211540    0.696452    2.568714
    128          1           0      -14.122679   -0.837000    0.789505
    129          1           0      -13.195285   -1.697662   -0.388651
    130          1           0      -13.837696   -0.479001   -2.025619
    131          1           0      -13.220569    0.987372   -1.171260
    132          1           0      -15.960385    0.019641   -0.313025
    133          1           0      -15.735584    0.570778   -1.965501
    134          1           0      -14.513874    2.522825   -0.195754
    135          1           0      -15.746347    1.004553    1.678779
    136          1           0      -17.212080    1.722851    1.118765
    137          1           0      -15.715836    2.642085    1.737417
    138          1           0      -16.837516    3.715199   -0.625421
    139          1           0      -16.995660    2.429297   -1.793255
    140          1           0      -15.620232    3.508388   -1.765385
 ---------------------------------------------------------------------

 SCF Done:  E(RPBE1PBE) =  -3005.34629527     A.U. after   15 cycles

 Excitation energies and oscillator strengths:

 Excited State   1:      Singlet-A      1.8583 eV  667.20 nm  f=0.3520  <S**2>=0.000
     245 -> 248       -0.18218
     246 -> 247        0.69000
     246 <- 247       -0.10441
 This state for optimization and/or second-order correction.
 Total Energy, E(TD-HF/TD-DFT) =  -3005.27800518
 Copying the excited state density for this state as the 1-particle RhoCI density.

 Excited State   2:      Singlet-A      2.2175 eV  559.11 nm  f=0.0934  <S**2>=0.000
     245 -> 247        0.64292
     246 -> 248        0.28313

 Excited State   3:      Singlet-A      2.8421 eV  436.23 nm  f=0.0001  <S**2>=0.000
     243 -> 247        0.65270
     243 -> 249       -0.13962
     243 -> 250       -0.10420
     244 -> 247        0.19118

 Excited State   4:      Singlet-A      3.0653 eV  404.48 nm  f=0.0000  <S**2>=0.000
     241 -> 247        0.37657
     241 -> 249        0.12325
     242 -> 247        0.54980
     242 -> 249        0.10636

 Excited State   5:      Singlet-A      3.1213 eV  397.23 nm  f=0.0087  <S**2>=0.000
     241 -> 247        0.52604
     242 -> 247       -0.39774
     246 -> 248        0.21076

 The electronic state is 1-A.
 Alpha  occ. eigenvalues --  -46.92033 -19.25517 -19.25456 -19.20228 -19.19811
 Alpha  occ. eigenvalues --  -19.18813 -19.18728 -14.42364 -14.42063 -14.40241
 Alpha  occ. eigenvalues --  -14.38769 -10.37011 -10.35770 -10.32071 -10.31789
 Alpha  occ. eigenvalues --  -10.29471 -10.29367 -10.29347 -10.29291 -10.29179
 Alpha  occ. eigenvalues --  -10.29143 -10.29015 -10.28284 -10.27150 -10.27124
 Alpha  occ. eigenvalues --  -10.26544 -10.26195 -10.26193 -10.25970 -10.25935
 Alpha  occ. eigenvalues --  -10.25547 -10.25408 -10.24999 -10.24936 -10.24900
 Alpha  occ. eigenvalues --  -10.24841 -10.24813 -10.24793 -10.24575 -10.24554
 Alpha  occ. eigenvalues --  -10.24301 -10.24162 -10.23655 -10.23584 -10.23505
 Alpha  occ. eigenvalues --  -10.23466 -10.23384 -10.23383 -10.23139 -10.23042
 Alpha  occ. eigenvalues --  -10.22993 -10.22889 -10.22764 -10.22738 -10.22380
 Alpha  occ. eigenvalues --  -10.22322 -10.22138 -10.22084 -10.21974 -10.21952
 Alpha  occ. eigenvalues --  -10.21894 -10.21890 -10.21880 -10.21707 -10.21309
 Alpha  occ. eigenvalues --  -10.20963  -3.14247  -1.87092  -1.86625  -1.86480
 Alpha  occ. eigenvalues --   -1.10997  -1.09553  -1.05901  -1.03722  -1.02847
 Alpha  occ. eigenvalues --   -1.01254  -0.99609  -0.98456  -0.97920  -0.97016
 Alpha  occ. eigenvalues --   -0.87359  -0.84541  -0.84537  -0.83675  -0.83467
 Alpha  occ. eigenvalues --   -0.82758  -0.82675  -0.81772  -0.81719  -0.81504
 Alpha  occ. eigenvalues --   -0.81230  -0.79552  -0.78332  -0.78065  -0.77612
 Alpha  occ. eigenvalues --   -0.76784  -0.76486  -0.75382  -0.75047  -0.74889
 Alpha  occ. eigenvalues --   -0.74395  -0.72602  -0.72256  -0.71931  -0.70865
 Alpha  occ. eigenvalues --   -0.70014  -0.69779  -0.69652  -0.68960  -0.67952
 Alpha  occ. eigenvalues --   -0.67691  -0.67231  -0.66408  -0.64725  -0.63936
 Alpha  occ. eigenvalues --   -0.63466  -0.62613  -0.61834  -0.60624  -0.60423
 Alpha  occ. eigenvalues --   -0.59857  -0.59605  -0.59068  -0.58924  -0.58123
 Alpha  occ. eigenvalues --   -0.57462  -0.57338  -0.56942  -0.56917  -0.54598
 Alpha  occ. eigenvalues --   -0.54271  -0.53832  -0.53536  -0.53070  -0.52703
 Alpha  occ. eigenvalues --   -0.51761  -0.51473  -0.50995  -0.50444  -0.50108
 Alpha  occ. eigenvalues --   -0.49670  -0.49277  -0.49027  -0.48715  -0.48621
 Alpha  occ. eigenvalues --   -0.48069  -0.47796  -0.47524  -0.47484  -0.47281
 Alpha  occ. eigenvalues --   -0.47220  -0.46806  -0.46692  -0.46610  -0.46340
 Alpha  occ. eigenvalues --   -0.46252  -0.45910  -0.45614  -0.45515  -0.45279
 Alpha  occ. eigenvalues --   -0.45061  -0.44793  -0.44496  -0.44384  -0.44305
 Alpha  occ. eigenvalues --   -0.44248  -0.44007  -0.43746  -0.43683  -0.43588
 Alpha  occ. eigenvalues --   -0.43539  -0.43220  -0.42890  -0.42792  -0.42173
 Alpha  occ. eigenvalues --   -0.41981  -0.41863  -0.41818  -0.41566  -0.41343
 Alpha  occ. eigenvalues --   -0.41215  -0.40964  -0.40955  -0.40928  -0.40456
 Alpha  occ. eigenvalues --   -0.40366  -0.40273  -0.40137  -0.39900  -0.39801
 Alpha  occ. eigenvalues --   -0.39490  -0.39393  -0.39266  -0.38977  -0.38655
 Alpha  occ. eigenvalues --   -0.38576  -0.38396  -0.38307  -0.38156  -0.38001
 Alpha  occ. eigenvalues --   -0.37671  -0.37234  -0.37029  -0.36803  -0.36681
 Alpha  occ. eigenvalues --   -0.36594  -0.36579  -0.36444  -0.36254  -0.35975
 Alpha  occ. eigenvalues --   -0.35888  -0.35574  -0.35392  -0.35118  -0.34878
 Alpha  occ. eigenvalues --   -0.34680  -0.34408  -0.34154  -0.33901  -0.33663
 Alpha  occ. eigenvalues --   -0.33405  -0.33249  -0.33142  -0.32723  -0.32450
 Alpha  occ. eigenvalues --   -0.31935  -0.31808  -0.31475  -0.31293  -0.31081
 Alpha  occ. eigenvalues --   -0.30933  -0.30486  -0.30280  -0.29938  -0.29278
 Alpha  occ. eigenvalues --   -0.29013  -0.28721  -0.27764  -0.27289  -0.26353
 Alpha  occ. eigenvalues --   -0.25752  -0.25666  -0.25214  -0.25192  -0.21203
 Alpha  occ. eigenvalues --   -0.19014
 Alpha virt. eigenvalues --   -0.11347  -0.05801  -0.04098  -0.02350   0.00225
 Alpha virt. eigenvalues --    0.00334   0.00583   0.01305   0.01539   0.02409
 Alpha virt. eigenvalues --    0.03512   0.04255   0.05009   0.05130   0.05738

 Mulliken charges:
               1
     1  Mg   1.001505
     2  C   -0.010953
     3  C   -0.069061
     4  C   -0.086049
     5  C   -0.083761
     6  N   -0.378751
     7  C    0.018720
     8  C   -0.088988
     9  C   -0.105440
    10  C    0.075438
    11  C    0.029205
    12  C    0.015884
    13  C   -0.107130
    14  C    0.290621
    15  O   -0.287138
    16  O   -0.369364
    17  N   -0.498097
    18  C    0.122640
    19  C   -0.171094
    20  C   -0.030766
    21  C    0.204929
    22  C    0.067594
    23  C    0.026934
    24  O   -0.234442
    25  C   -0.015988
    26  N   -0.431307
    27  C    0.046898
    28  C   -0.130379
    29  C   -0.096397
    30  C    0.039800
    31  C    0.018312
    32  C   -0.023098
    33  C   -0.074452
    34  N   -0.458315
    35  C    0.174940
    36  C   -0.187026
    37  C   -0.058521
    38  C    0.162509
    39  C    0.073331
    40  C    0.164112
    41  O   -0.217001
    42  C   -0.116879
    43  C    0.242965
    44  O   -0.237484
    45  O   -0.375668
    46  C    0.130305
    47  C    0.252160
    48  C   -0.138251
    49  C   -0.236030
    50  C    0.041368
    51  C    0.039114
    52  C   -0.072695
    53  C   -0.003190
    54  C   -0.245819
    55  C   -0.004246
    56  C    0.002566
    57  C   -0.031627
    58  C   -0.014952
    59  C   -0.198682
    60  C   -0.011614
    61  C    0.007036
    62  C   -0.068152
    63  C   -0.015699
    64  C   -0.226406
    65  C   -0.043734
    66  C   -0.001124
    67  H    0.010916
    68  H   -0.002815
    69  H    0.006021
    70  H    0.060989
    71  H    0.048425
    72  H    0.046446
    73  H    0.042476
    74  H    0.058378
    75  H    0.074409
    76  H    0.046765
    77  H    0.057474
    78  H    0.065065
    79  H    0.031480
    80  H    0.065930
    81  H    0.062290
    82  H    0.033001
    83  H    0.073257
    84  H    0.060176
    85  H    0.060749
    86  H    0.050338
    87  H    0.040613
    88  H    0.043142
    89  H    0.052673
    90  H    0.055228
    91  H    0.035585
    92  H    0.039273
    93  H    0.047812
    94  H    0.051509
    95  H    0.058093
    96  H    0.069269
    97  H    0.035738
    98  H    0.072849
    99  H    0.062782
   100  H    0.059499
   101  H    0.067896
   102  H    0.039605
   103  H    0.075071
   104  H    0.013838
   105  H    0.039132
   106  H    0.032913
   107  H    0.059217
   108  H    0.039764
   109  H    0.025602
   110  H    0.038853
   111  H    0.042564
   112  H    0.017509
   113  H    0.038009
   114  H    0.039512
   115  H    0.039667
   116  H    0.031664
   117  H    0.029534
   118  H    0.031662
   119  H    0.024605
   120  H    0.037223
   121  H    0.032604
   122  H    0.012125
   123  H    0.009420
   124  H    0.031474
   125  H    0.032981
   126  H    0.035423
   127  H    0.048038
   128  H    0.018799
   129  H    0.030846
   130  H    0.032860
   131  H    0.027536
   132  H    0.026040
   133  H    0.020163
   134  H    0.028089
   135  H    0.022171
   136  H    0.046195
   137  H    0.031010
   138  H    0.027063
   139  H    0.031438
   140  H    0.022933
 Sum of Mulliken charges =  -0.00000

 Dipole moment (field-independent basis, Debye):
    X=              1.2037    Y=              5.8981    Z=              1.5038  Tot=              6.2047
 Quadrupole moment (field-independent basis, Debye-Ang):
   XX=           -372.4943   YY=           -430.7008   ZZ=           -401.3852
   XY=             14.8057   XZ=              5.9197   YZ=             40.3081

 Normal termination of Gaussian 16 at Fri Apr 29 12:09:16 2022.
