 Gaussian 16, Revision A.03,
 Gaussian 16:  ES64L-G16RevA.03 25-Dec-2016

 --------------------------------
 #p wB97XD/Def2SVP td=(nstates=5)
 --------------------------------

 ----------------------------------------------------
 step_301_chromophore_14 TDDFT with wB97XD functional
 ----------------------------------------------------
 Symbolic Z-matrix:
 Charge =  0 Multiplicity = 1

                         Standard orientation:
 ---------------------------------------------------------------------
 Center     Atomic      Atomic             Coordinates (Angstroms)
 Number     Number       Type             X           Y           Z
 ---------------------------------------------------------------------
      1         12           0        5.132923    0.808179   -0.134872
      2          6           0        4.458171   -2.564961    0.304016
      3          6           0        4.136441    0.534060   -3.388882
      4          6           0        5.053242    4.127872   -0.344547
      5          6           0        5.621293    1.029913    3.337440
      6          7           0        4.311497   -0.843945   -1.359798
      7          6           0        4.087594   -2.117568   -0.979507
      8          6           0        3.564513   -2.999556   -2.180268
      9          6           0        3.568715   -2.012063   -3.384526
     10          6           0        4.023862   -0.678333   -2.695673
     11          6           0        4.381910   -2.451752   -4.593576
     12          6           0        2.211801   -3.775648   -1.925904
     13          6           0        1.196527   -3.053653   -1.012138
     14          6           0       -0.316610   -3.491287   -0.926541
     15          8           0       -0.943753   -4.290983   -1.650099
     16          8           0       -0.862712   -2.795863    0.136188
     17          7           0        4.954875    2.069002   -1.725183
     18          6           0        4.593238    1.835125   -3.004843
     19          6           0        4.614271    3.084168   -3.795453
     20          6           0        4.872522    4.145091   -2.926831
     21          6           0        5.017142    3.467319   -1.600841
     22          6           0        4.361962    3.176326   -5.246666
     23          6           0        5.069943    5.583077   -3.248672
     24          8           0        4.848546    5.947510   -4.378690
     25          6           0        5.421236    6.678093   -2.297425
     26          7           0        5.344290    2.362574    1.251560
     27          6           0        5.341090    3.715571    0.938212
     28          6           0        5.292631    4.619849    2.239439
     29          6           0        5.629654    3.614410    3.374676
     30          6           0        5.560805    2.277581    2.622470
     31          6           0        6.178842    5.934560    2.280988
     32          6           0        4.728279    3.728538    4.597144
     33          6           0        5.493472    4.241999    5.824232
     34          7           0        5.274269   -0.493871    1.504545
     35          6           0        5.503764   -0.281197    2.836196
     36          6           0        5.606000   -1.504995    3.503865
     37          6           0        5.182830   -2.461383    2.566978
     38          6           0        4.924358   -1.760129    1.325836
     39          6           0        5.968502   -1.687596    4.947352
     40          6           0        4.966717   -3.864382    2.323638
     41          8           0        5.208102   -4.890784    2.954182
     42          6           0        4.407224   -3.949890    0.838383
     43          6           0        5.101039   -4.979114    0.011450
     44          8           0        4.531322   -5.919638   -0.472384
     45          8           0        6.438231   -4.744423   -0.042870
     46          6           0        7.281835   -5.660350   -0.885578
     47          6           0       -2.334205   -3.051257    0.318708
     48          6           0       -2.924545   -1.668123    0.160627
     49          6           0       -3.447352   -1.029860   -0.892908
     50          6           0       -3.444492   -1.638750   -2.238319
     51          6           0       -4.158729    0.356127   -0.824248
     52          6           0       -5.644387    0.223615   -0.510802
     53          6           0       -6.037351   -0.128306    1.022322
     54          6           0       -7.454463    0.411941    1.210144
     55          6           0       -7.673209    1.333601    2.382380
     56          6           0       -8.437251   -0.852990    1.289595
     57          6           0       -9.490479   -0.767649    0.167283
     58          6           0      -10.866943   -1.261227    0.642931
     59          6           0      -11.978714   -0.201046    0.793397
     60          6           0      -12.160701    0.277796    2.234508
     61          6           0      -13.267880   -0.735818    0.120497
     62          6           0      -13.833155    0.088892   -1.095037
     63          6           0      -15.304926    0.597510   -0.964887
     64          6           0      -15.474301    2.025791   -0.326434
     65          6           0      -16.130001    1.851774    1.110804
     66          6           0      -16.285467    2.922459   -1.129350
     67          1           0        3.676339    0.585015   -4.378967
     68          1           0        4.825469    5.186711   -0.210539
     69          1           0        5.932295    1.250099    4.361145
     70          1           0        4.276676   -3.802810   -2.368795
     71          1           0        2.517300   -1.946669   -3.664019
     72          1           0        3.607815   -2.405801   -5.360537
     73          1           0        4.659896   -3.503207   -4.516685
     74          1           0        5.281615   -1.855053   -4.741859
     75          1           0        2.432330   -4.771871   -1.543463
     76          1           0        1.589938   -3.823181   -2.819100
     77          1           0        1.098047   -2.035891   -1.387994
     78          1           0        1.651688   -2.792937   -0.056047
     79          1           0        4.574647    2.179874   -5.632696
     80          1           0        4.973761    3.867892   -5.825522
     81          1           0        3.321863    3.454396   -5.417409
     82          1           0        6.108960    6.311923   -1.535543
     83          1           0        4.607534    7.038248   -1.668257
     84          1           0        5.962196    7.494306   -2.776012
     85          1           0        4.224563    4.807021    2.351413
     86          1           0        6.665936    3.755477    3.681828
     87          1           0        6.681072    6.120966    1.332045
     88          1           0        7.031124    5.818452    2.950837
     89          1           0        5.553831    6.811955    2.445713
     90          1           0        4.100034    2.846951    4.726125
     91          1           0        4.054044    4.568366    4.431962
     92          1           0        6.555497    4.017663    5.719692
     93          1           0        5.116544    3.705855    6.695716
     94          1           0        5.334924    5.315533    5.933141
     95          1           0        6.465020   -2.658221    4.968889
     96          1           0        5.113918   -1.658530    5.622806
     97          1           0        6.771971   -1.034512    5.286151
     98          1           0        3.408102   -4.371867    0.944806
     99          1           0        6.892130   -5.795599   -1.894069
    100          1           0        7.226942   -6.634381   -0.401103
    101          1           0        8.330143   -5.372284   -0.801198
    102          1           0       -2.468343   -3.336321    1.362289
    103          1           0       -2.826616   -3.797613   -0.305779
    104          1           0       -3.144514   -1.234758    1.136091
    105          1           0       -2.889095   -0.955982   -2.880912
    106          1           0       -4.475378   -1.578557   -2.586990
    107          1           0       -3.067887   -2.659330   -2.304237
    108          1           0       -3.901195    1.085873   -1.592187
    109          1           0       -3.798927    0.769141    0.117853
    110          1           0       -6.069614   -0.631555   -1.036568
    111          1           0       -6.124156    1.173681   -0.745793
    112          1           0       -5.389306    0.322519    1.774745
    113          1           0       -5.912967   -1.202327    1.160983
    114          1           0       -7.809299    1.029075    0.385112
    115          1           0       -8.727026    1.449595    2.632070
    116          1           0       -7.213660    2.281299    2.098796
    117          1           0       -7.147406    1.003025    3.278291
    118          1           0       -8.880583   -0.863907    2.285465
    119          1           0       -7.810504   -1.722658    1.092943
    120          1           0       -9.244065   -1.422154   -0.669608
    121          1           0       -9.635197    0.279902   -0.095346
    122          1           0      -10.830865   -1.857170    1.554119
    123          1           0      -11.195877   -2.085544    0.010560
    124          1           0      -11.702876    0.728201    0.295966
    125          1           0      -12.532221   -0.569399    2.811748
    126          1           0      -12.986351    0.989222    2.234648
    127          1           0      -11.211540    0.696452    2.568714
    128          1           0      -14.122679   -0.837000    0.789505
    129          1           0      -13.195285   -1.697662   -0.388651
    130          1           0      -13.837696   -0.479001   -2.025619
    131          1           0      -13.220569    0.987372   -1.171260
    132          1           0      -15.960385    0.019641   -0.313025
    133          1           0      -15.735584    0.570778   -1.965501
    134          1           0      -14.513874    2.522825   -0.195754
    135          1           0      -15.746347    1.004553    1.678779
    136          1           0      -17.212080    1.722851    1.118765
    137          1           0      -15.715836    2.642085    1.737417
    138          1           0      -16.837516    3.715199   -0.625421
    139          1           0      -16.995660    2.429297   -1.793255
    140          1           0      -15.620232    3.508388   -1.765385
 ---------------------------------------------------------------------

 SCF Done:  E(RwB97XD) =  -3007.85592113     A.U. after   20 cycles

 Excitation energies and oscillator strengths:

 Excited State   1:      Singlet-A      1.6389 eV  756.51 nm  f=0.3615  <S**2>=0.000
     245 -> 248       -0.19477
     246 -> 247        0.68101
     245 <- 248       -0.11974
 This state for optimization and/or second-order correction.
 Total Energy, E(TD-HF/TD-DFT) =  -3007.79569284
 Copying the excited state density for this state as the 1-particle RhoCI density.

 Excited State   2:      Singlet-A      2.1534 eV  575.76 nm  f=0.0873  <S**2>=0.000
     245 -> 247        0.62738
     246 -> 248        0.31496

 Excited State   3:      Singlet-A      3.3920 eV  365.52 nm  f=0.0345  <S**2>=0.000
     242 -> 247        0.44222
     242 -> 249       -0.23261
     242 -> 250       -0.19285
     243 -> 247        0.37151
     246 -> 248       -0.19314

 Excited State   4:      Singlet-A      3.4236 eV  362.14 nm  f=0.2437  <S**2>=0.000
     242 -> 247        0.35309
     242 -> 249       -0.15116
     242 -> 250       -0.11145
     243 -> 247       -0.32051
     245 -> 247       -0.18632
     246 -> 248        0.42938

 Excited State   5:      Singlet-A      3.5265 eV  351.58 nm  f=0.2687  <S**2>=0.000
     241 -> 247        0.31312
     241 -> 249        0.12789
     242 -> 247       -0.15743
     243 -> 247        0.42555
     245 -> 247       -0.18377
     246 -> 248        0.34542

 The electronic state is 1-A.
 Alpha  occ. eigenvalues --  -46.94973 -19.30062 -19.30048 -19.24875 -19.24540
 Alpha  occ. eigenvalues --  -19.23667 -19.23540 -14.47472 -14.47146 -14.45246
 Alpha  occ. eigenvalues --  -14.43715 -10.43806 -10.42623 -10.38892 -10.38705
 Alpha  occ. eigenvalues --  -10.36022 -10.35657 -10.35643 -10.35641 -10.35548
 Alpha  occ. eigenvalues --  -10.35536 -10.35318 -10.34619 -10.33441 -10.33372
 Alpha  occ. eigenvalues --  -10.32887 -10.32671 -10.32450 -10.32186 -10.32169
 Alpha  occ. eigenvalues --  -10.31901 -10.31891 -10.31426 -10.31338 -10.31296
 Alpha  occ. eigenvalues --  -10.31282 -10.31240 -10.31183 -10.30979 -10.30884
 Alpha  occ. eigenvalues --  -10.30592 -10.30531 -10.30045 -10.29966 -10.29956
 Alpha  occ. eigenvalues --  -10.29950 -10.29855 -10.29752 -10.29478 -10.29371
 Alpha  occ. eigenvalues --  -10.29323 -10.29272 -10.29092 -10.29020 -10.28744
 Alpha  occ. eigenvalues --  -10.28668 -10.28579 -10.28451 -10.28397 -10.28315
 Alpha  occ. eigenvalues --  -10.28313 -10.28251 -10.28238 -10.28126 -10.27660
 Alpha  occ. eigenvalues --  -10.27401  -3.21033  -1.94630  -1.94162  -1.94017
 Alpha  occ. eigenvalues --   -1.18422  -1.16936  -1.13367  -1.11249  -1.10230
 Alpha  occ. eigenvalues --   -1.08597  -1.06972  -1.05849  -1.05326  -1.04414
 Alpha  occ. eigenvalues --   -0.95004  -0.92206  -0.92110  -0.91334  -0.91094
 Alpha  occ. eigenvalues --   -0.90410  -0.90295  -0.89414  -0.89365  -0.89141
 Alpha  occ. eigenvalues --   -0.88849  -0.87210  -0.85985  -0.85688  -0.85266
 Alpha  occ. eigenvalues --   -0.84436  -0.84214  -0.83051  -0.82690  -0.82537
 Alpha  occ. eigenvalues --   -0.82052  -0.80250  -0.79890  -0.79576  -0.78524
 Alpha  occ. eigenvalues --   -0.77605  -0.77450  -0.77341  -0.76637  -0.75581
 Alpha  occ. eigenvalues --   -0.75272  -0.74844  -0.73949  -0.72347  -0.71498
 Alpha  occ. eigenvalues --   -0.71009  -0.70147  -0.69466  -0.68145  -0.68038
 Alpha  occ. eigenvalues --   -0.67353  -0.67107  -0.66587  -0.66447  -0.65803
 Alpha  occ. eigenvalues --   -0.65000  -0.64921  -0.64561  -0.64370  -0.62052
 Alpha  occ. eigenvalues --   -0.61688  -0.61218  -0.61034  -0.60475  -0.60118
 Alpha  occ. eigenvalues --   -0.59270  -0.58899  -0.58454  -0.57858  -0.57562
 Alpha  occ. eigenvalues --   -0.57105  -0.56753  -0.56377  -0.56188  -0.56013
 Alpha  occ. eigenvalues --   -0.55419  -0.55182  -0.54907  -0.54837  -0.54703
 Alpha  occ. eigenvalues --   -0.54556  -0.54274  -0.54124  -0.54063  -0.53690
 Alpha  occ. eigenvalues --   -0.53649  -0.53228  -0.52979  -0.52836  -0.52636
 Alpha  occ. eigenvalues --   -0.52333  -0.52109  -0.51847  -0.51749  -0.51671
 Alpha  occ. eigenvalues --   -0.51603  -0.51347  -0.51048  -0.50999  -0.50885
 Alpha  occ. eigenvalues --   -0.50841  -0.50535  -0.50154  -0.50060  -0.49448
 Alpha  occ. eigenvalues --   -0.49270  -0.49146  -0.49090  -0.48858  -0.48631
 Alpha  occ. eigenvalues --   -0.48451  -0.48226  -0.48195  -0.48100  -0.47737
 Alpha  occ. eigenvalues --   -0.47564  -0.47406  -0.47295  -0.47110  -0.46995
 Alpha  occ. eigenvalues --   -0.46658  -0.46568  -0.46420  -0.46112  -0.45837
 Alpha  occ. eigenvalues --   -0.45721  -0.45553  -0.45428  -0.45234  -0.45114
 Alpha  occ. eigenvalues --   -0.44786  -0.44381  -0.44238  -0.44000  -0.43808
 Alpha  occ. eigenvalues --   -0.43723  -0.43649  -0.43454  -0.43286  -0.43085
 Alpha  occ. eigenvalues --   -0.42909  -0.42570  -0.42486  -0.42119  -0.41955
 Alpha  occ. eigenvalues --   -0.41742  -0.41394  -0.41232  -0.40936  -0.40665
 Alpha  occ. eigenvalues --   -0.40467  -0.40262  -0.40117  -0.39777  -0.39394
 Alpha  occ. eigenvalues --   -0.38950  -0.38847  -0.38554  -0.38282  -0.38068
 Alpha  occ. eigenvalues --   -0.37940  -0.37453  -0.37134  -0.36860  -0.36322
 Alpha  occ. eigenvalues --   -0.36085  -0.35453  -0.34608  -0.33868  -0.33204
 Alpha  occ. eigenvalues --   -0.32694  -0.32357  -0.32234  -0.31905  -0.26211
 Alpha  occ. eigenvalues --   -0.23162
 Alpha virt. eigenvalues --   -0.07196  -0.00427   0.02183   0.04157   0.06175
 Alpha virt. eigenvalues --    0.06942   0.07192   0.08082   0.08354   0.08796
 Alpha virt. eigenvalues --    0.10172   0.11065   0.11664   0.11893   0.12464

 Mulliken charges:
               1
     1  Mg   0.990594
     2  C   -0.012317
     3  C   -0.083264
     4  C   -0.092444
     5  C   -0.101668
     6  N   -0.342918
     7  C   -0.017418
     8  C   -0.067983
     9  C   -0.079324
    10  C    0.061470
    11  C    0.038488
    12  C    0.029557
    13  C   -0.084742
    14  C    0.280115
    15  O   -0.283710
    16  O   -0.370191
    17  N   -0.467742
    18  C    0.113553
    19  C   -0.159937
    20  C   -0.026256
    21  C    0.202598
    22  C    0.076973
    23  C    0.022305
    24  O   -0.230493
    25  C   -0.001709
    26  N   -0.402283
    27  C    0.029380
    28  C   -0.099881
    29  C   -0.067930
    30  C    0.025248
    31  C    0.029290
    32  C   -0.010865
    33  C   -0.057622
    34  N   -0.419118
    35  C    0.172112
    36  C   -0.184761
    37  C   -0.053735
    38  C    0.146091
    39  C    0.082688
    40  C    0.145724
    41  O   -0.206971
    42  C   -0.075117
    43  C    0.215267
    44  O   -0.229654
    45  O   -0.375200
    46  C    0.145518
    47  C    0.267754
    48  C   -0.145977
    49  C   -0.223945
    50  C    0.055051
    51  C    0.061267
    52  C   -0.051802
    53  C    0.008583
    54  C   -0.212979
    55  C    0.011105
    56  C    0.015343
    57  C   -0.009291
    58  C   -0.003555
    59  C   -0.167280
    60  C    0.009746
    61  C    0.018323
    62  C   -0.046716
    63  C   -0.001419
    64  C   -0.197619
    65  C   -0.027773
    66  C    0.006809
    67  H    0.004653
    68  H   -0.015987
    69  H   -0.001452
    70  H    0.046949
    71  H    0.037165
    72  H    0.041466
    73  H    0.036979
    74  H    0.053045
    75  H    0.066797
    76  H    0.038886
    77  H    0.047320
    78  H    0.053286
    79  H    0.024903
    80  H    0.062925
    81  H    0.058511
    82  H    0.023370
    83  H    0.069753
    84  H    0.059228
    85  H    0.048903
    86  H    0.035688
    87  H    0.033500
    88  H    0.037823
    89  H    0.048099
    90  H    0.048331
    91  H    0.025927
    92  H    0.032025
    93  H    0.042540
    94  H    0.045945
    95  H    0.053651
    96  H    0.065764
    97  H    0.030818
    98  H    0.064573
    99  H    0.059251
   100  H    0.055296
   101  H    0.065388
   102  H    0.036675
   103  H    0.070632
   104  H    0.008337
   105  H    0.032957
   106  H    0.025536
   107  H    0.052349
   108  H    0.035845
   109  H    0.014035
   110  H    0.025800
   111  H    0.034615
   112  H    0.008464
   113  H    0.027500
   114  H    0.023378
   115  H    0.030813
   116  H    0.025401
   117  H    0.023187
   118  H    0.021044
   119  H    0.015549
   120  H    0.031117
   121  H    0.019404
   122  H    0.002376
   123  H    0.001008
   124  H    0.016386
   125  H    0.026036
   126  H    0.026640
   127  H    0.037548
   128  H    0.006837
   129  H    0.022876
   130  H    0.026777
   131  H    0.015055
   132  H    0.015473
   133  H    0.012576
   134  H    0.016736
   135  H    0.012169
   136  H    0.041182
   137  H    0.025057
   138  H    0.021716
   139  H    0.025195
   140  H    0.017059
 Sum of Mulliken charges =  -0.00000

 Dipole moment (field-independent basis, Debye):
    X=              1.2941    Y=              5.9162    Z=              1.4835  Tot=              6.2351
 Quadrupole moment (field-independent basis, Debye-Ang):
   XX=           -371.5084   YY=           -429.9167   ZZ=           -401.1340
   XY=             14.6364   XZ=              5.3807   YZ=             39.6587

 Normal termination of Gaussian 16 at Fri Apr 29 12:34:31 2022.
