 Gaussian 16, Revision A.03,
 Gaussian 16:  ES64L-G16RevA.03 25-Dec-2016

 --------------------
 #p ZINDO=(nstates=5)
 --------------------

 -----------------------------
 step_301_chromophore_14 ZINDO
 -----------------------------
 Symbolic Z-matrix:
 Charge =  0 Multiplicity = 1

                         Standard orientation:
 ---------------------------------------------------------------------
 Center     Atomic      Atomic             Coordinates (Angstroms)
 Number     Number       Type             X           Y           Z
 ---------------------------------------------------------------------
      1         12           0        5.132923    0.808179   -0.134872
      2          6           0        4.458171   -2.564961    0.304016
      3          6           0        4.136441    0.534060   -3.388882
      4          6           0        5.053242    4.127872   -0.344547
      5          6           0        5.621293    1.029913    3.337440
      6          7           0        4.311497   -0.843945   -1.359798
      7          6           0        4.087594   -2.117568   -0.979507
      8          6           0        3.564513   -2.999556   -2.180268
      9          6           0        3.568715   -2.012063   -3.384526
     10          6           0        4.023862   -0.678333   -2.695673
     11          6           0        4.381910   -2.451752   -4.593576
     12          6           0        2.211801   -3.775648   -1.925904
     13          6           0        1.196527   -3.053653   -1.012138
     14          6           0       -0.316610   -3.491287   -0.926541
     15          8           0       -0.943753   -4.290983   -1.650099
     16          8           0       -0.862712   -2.795863    0.136188
     17          7           0        4.954875    2.069002   -1.725183
     18          6           0        4.593238    1.835125   -3.004843
     19          6           0        4.614271    3.084168   -3.795453
     20          6           0        4.872522    4.145091   -2.926831
     21          6           0        5.017142    3.467319   -1.600841
     22          6           0        4.361962    3.176326   -5.246666
     23          6           0        5.069943    5.583077   -3.248672
     24          8           0        4.848546    5.947510   -4.378690
     25          6           0        5.421236    6.678093   -2.297425
     26          7           0        5.344290    2.362574    1.251560
     27          6           0        5.341090    3.715571    0.938212
     28          6           0        5.292631    4.619849    2.239439
     29          6           0        5.629654    3.614410    3.374676
     30          6           0        5.560805    2.277581    2.622470
     31          6           0        6.178842    5.934560    2.280988
     32          6           0        4.728279    3.728538    4.597144
     33          6           0        5.493472    4.241999    5.824232
     34          7           0        5.274269   -0.493871    1.504545
     35          6           0        5.503764   -0.281197    2.836196
     36          6           0        5.606000   -1.504995    3.503865
     37          6           0        5.182830   -2.461383    2.566978
     38          6           0        4.924358   -1.760129    1.325836
     39          6           0        5.968502   -1.687596    4.947352
     40          6           0        4.966717   -3.864382    2.323638
     41          8           0        5.208102   -4.890784    2.954182
     42          6           0        4.407224   -3.949890    0.838383
     43          6           0        5.101039   -4.979114    0.011450
     44          8           0        4.531322   -5.919638   -0.472384
     45          8           0        6.438231   -4.744423   -0.042870
     46          6           0        7.281835   -5.660350   -0.885578
     47          6           0       -2.334205   -3.051257    0.318708
     48          6           0       -2.924545   -1.668123    0.160627
     49          6           0       -3.447352   -1.029860   -0.892908
     50          6           0       -3.444492   -1.638750   -2.238319
     51          6           0       -4.158729    0.356127   -0.824248
     52          6           0       -5.644387    0.223615   -0.510802
     53          6           0       -6.037351   -0.128306    1.022322
     54          6           0       -7.454463    0.411941    1.210144
     55          6           0       -7.673209    1.333601    2.382380
     56          6           0       -8.437251   -0.852990    1.289595
     57          6           0       -9.490479   -0.767649    0.167283
     58          6           0      -10.866943   -1.261227    0.642931
     59          6           0      -11.978714   -0.201046    0.793397
     60          6           0      -12.160701    0.277796    2.234508
     61          6           0      -13.267880   -0.735818    0.120497
     62          6           0      -13.833155    0.088892   -1.095037
     63          6           0      -15.304926    0.597510   -0.964887
     64          6           0      -15.474301    2.025791   -0.326434
     65          6           0      -16.130001    1.851774    1.110804
     66          6           0      -16.285467    2.922459   -1.129350
     67          1           0        3.676339    0.585015   -4.378967
     68          1           0        4.825469    5.186711   -0.210539
     69          1           0        5.932295    1.250099    4.361145
     70          1           0        4.276676   -3.802810   -2.368795
     71          1           0        2.517300   -1.946669   -3.664019
     72          1           0        3.607815   -2.405801   -5.360537
     73          1           0        4.659896   -3.503207   -4.516685
     74          1           0        5.281615   -1.855053   -4.741859
     75          1           0        2.432330   -4.771871   -1.543463
     76          1           0        1.589938   -3.823181   -2.819100
     77          1           0        1.098047   -2.035891   -1.387994
     78          1           0        1.651688   -2.792937   -0.056047
     79          1           0        4.574647    2.179874   -5.632696
     80          1           0        4.973761    3.867892   -5.825522
     81          1           0        3.321863    3.454396   -5.417409
     82          1           0        6.108960    6.311923   -1.535543
     83          1           0        4.607534    7.038248   -1.668257
     84          1           0        5.962196    7.494306   -2.776012
     85          1           0        4.224563    4.807021    2.351413
     86          1           0        6.665936    3.755477    3.681828
     87          1           0        6.681072    6.120966    1.332045
     88          1           0        7.031124    5.818452    2.950837
     89          1           0        5.553831    6.811955    2.445713
     90          1           0        4.100034    2.846951    4.726125
     91          1           0        4.054044    4.568366    4.431962
     92          1           0        6.555497    4.017663    5.719692
     93          1           0        5.116544    3.705855    6.695716
     94          1           0        5.334924    5.315533    5.933141
     95          1           0        6.465020   -2.658221    4.968889
     96          1           0        5.113918   -1.658530    5.622806
     97          1           0        6.771971   -1.034512    5.286151
     98          1           0        3.408102   -4.371867    0.944806
     99          1           0        6.892130   -5.795599   -1.894069
    100          1           0        7.226942   -6.634381   -0.401103
    101          1           0        8.330143   -5.372284   -0.801198
    102          1           0       -2.468343   -3.336321    1.362289
    103          1           0       -2.826616   -3.797613   -0.305779
    104          1           0       -3.144514   -1.234758    1.136091
    105          1           0       -2.889095   -0.955982   -2.880912
    106          1           0       -4.475378   -1.578557   -2.586990
    107          1           0       -3.067887   -2.659330   -2.304237
    108          1           0       -3.901195    1.085873   -1.592187
    109          1           0       -3.798927    0.769141    0.117853
    110          1           0       -6.069614   -0.631555   -1.036568
    111          1           0       -6.124156    1.173681   -0.745793
    112          1           0       -5.389306    0.322519    1.774745
    113          1           0       -5.912967   -1.202327    1.160983
    114          1           0       -7.809299    1.029075    0.385112
    115          1           0       -8.727026    1.449595    2.632070
    116          1           0       -7.213660    2.281299    2.098796
    117          1           0       -7.147406    1.003025    3.278291
    118          1           0       -8.880583   -0.863907    2.285465
    119          1           0       -7.810504   -1.722658    1.092943
    120          1           0       -9.244065   -1.422154   -0.669608
    121          1           0       -9.635197    0.279902   -0.095346
    122          1           0      -10.830865   -1.857170    1.554119
    123          1           0      -11.195877   -2.085544    0.010560
    124          1           0      -11.702876    0.728201    0.295966
    125          1           0      -12.532221   -0.569399    2.811748
    126          1           0      -12.986351    0.989222    2.234648
    127          1           0      -11.211540    0.696452    2.568714
    128          1           0      -14.122679   -0.837000    0.789505
    129          1           0      -13.195285   -1.697662   -0.388651
    130          1           0      -13.837696   -0.479001   -2.025619
    131          1           0      -13.220569    0.987372   -1.171260
    132          1           0      -15.960385    0.019641   -0.313025
    133          1           0      -15.735584    0.570778   -1.965501
    134          1           0      -14.513874    2.522825   -0.195754
    135          1           0      -15.746347    1.004553    1.678779
    136          1           0      -17.212080    1.722851    1.118765
    137          1           0      -15.715836    2.642085    1.737417
    138          1           0      -16.837516    3.715199   -0.625421
    139          1           0      -16.995660    2.429297   -1.793255
    140          1           0      -15.620232    3.508388   -1.765385
 ---------------------------------------------------------------------

 SCF Done:  E(RZINDO/S) =  -474.283479293     A.U. after   20 cycles

 Excitation energies and oscillator strengths:

 Excited State   1:      Singlet-A      1.2368 eV 1002.46 nm  f=0.5881  <S**2>=0.000
     175 ->178        -0.20089
     176 ->177         0.65993
 This state for optimization and/or second-order correction.
 Total Energy, E(CIS/TDA) =  -474.238027630
 Copying the excited state density for this state as the 1-particle RhoCI density.

 Excited State   2:      Singlet-A      1.8682 eV  663.67 nm  f=0.0125  <S**2>=0.000
     175 ->177         0.51365
     176 ->178         0.46450

 Excited State   3:      Singlet-A      2.8850 eV  429.75 nm  f=0.0004  <S**2>=0.000
     168 ->177         0.25046
     168 ->178        -0.16999
     168 ->179        -0.38721
     168 ->180        -0.31873
     168 ->182         0.10328
     168 ->185        -0.21980
     168 ->187         0.10295
     168 ->188        -0.10836
     168 ->195         0.13760

 Excited State   4:      Singlet-A      2.9355 eV  422.36 nm  f=0.3432  <S**2>=0.000
     169 ->177         0.12912
     169 ->179         0.15738
     169 ->180        -0.11309
     170 ->177         0.24987
     170 ->179         0.20022
     170 ->180        -0.22036
     170 ->185         0.12325
     175 ->177         0.23314
     176 ->178        -0.28204
     176 ->179        -0.24952

 Excited State   5:      Singlet-A      2.9444 eV  421.08 nm  f=0.6616  <S**2>=0.000
     169 ->177         0.13660
     169 ->180        -0.12020
     170 ->177         0.19270
     170 ->179         0.19736
     170 ->180        -0.16947
     170 ->185         0.10723
     175 ->177        -0.32987
     176 ->178         0.38331
     176 ->180         0.12908

 The electronic state is 1-A.
 Alpha  occ. eigenvalues --   -1.86105  -1.80555  -1.79058  -1.72340  -1.71367
 Alpha  occ. eigenvalues --   -1.69945  -1.65421  -1.62092  -1.61017  -1.57708
 Alpha  occ. eigenvalues --   -1.55454  -1.51214  -1.50462  -1.48222  -1.47385
 Alpha  occ. eigenvalues --   -1.46222  -1.43263  -1.39751  -1.38454  -1.37852
 Alpha  occ. eigenvalues --   -1.35936  -1.34720  -1.32614  -1.31415  -1.28769
 Alpha  occ. eigenvalues --   -1.28360  -1.26725  -1.22593  -1.21913  -1.18846
 Alpha  occ. eigenvalues --   -1.16387  -1.16267  -1.14875  -1.14149  -1.13427
 Alpha  occ. eigenvalues --   -1.13322  -1.10635  -1.08637  -1.06398  -1.04321
 Alpha  occ. eigenvalues --   -1.03469  -1.02016  -1.00048  -0.97747  -0.96736
 Alpha  occ. eigenvalues --   -0.96628  -0.94246  -0.93812  -0.93205  -0.92315
 Alpha  occ. eigenvalues --   -0.91280  -0.89795  -0.89411  -0.89076  -0.86928
 Alpha  occ. eigenvalues --   -0.86428  -0.83737  -0.83576  -0.82187  -0.80282
 Alpha  occ. eigenvalues --   -0.79559  -0.79155  -0.78688  -0.77918  -0.77193
 Alpha  occ. eigenvalues --   -0.77023  -0.74916  -0.74492  -0.73882  -0.73291
 Alpha  occ. eigenvalues --   -0.72574  -0.71778  -0.71571  -0.71180  -0.70518
 Alpha  occ. eigenvalues --   -0.70003  -0.69540  -0.69008  -0.68630  -0.67727
 Alpha  occ. eigenvalues --   -0.67557  -0.67096  -0.66555  -0.65478  -0.65046
 Alpha  occ. eigenvalues --   -0.64965  -0.64737  -0.64606  -0.64254  -0.64221
 Alpha  occ. eigenvalues --   -0.63841  -0.63160  -0.62548  -0.62273  -0.61794
 Alpha  occ. eigenvalues --   -0.61287  -0.61149  -0.60682  -0.60186  -0.59915
 Alpha  occ. eigenvalues --   -0.59844  -0.59511  -0.59298  -0.58700  -0.58419
 Alpha  occ. eigenvalues --   -0.58157  -0.57785  -0.57572  -0.57064  -0.56801
 Alpha  occ. eigenvalues --   -0.56559  -0.56389  -0.55926  -0.55846  -0.55104
 Alpha  occ. eigenvalues --   -0.54511  -0.54192  -0.53682  -0.52756  -0.52681
 Alpha  occ. eigenvalues --   -0.52233  -0.51947  -0.51803  -0.51735  -0.51461
 Alpha  occ. eigenvalues --   -0.51312  -0.51022  -0.50947  -0.50307  -0.50101
 Alpha  occ. eigenvalues --   -0.49881  -0.49529  -0.49187  -0.49046  -0.48792
 Alpha  occ. eigenvalues --   -0.48482  -0.48382  -0.48177  -0.47893  -0.47636
 Alpha  occ. eigenvalues --   -0.47492  -0.47262  -0.47004  -0.46868  -0.46761
 Alpha  occ. eigenvalues --   -0.46547  -0.46349  -0.45891  -0.45776  -0.45384
 Alpha  occ. eigenvalues --   -0.45077  -0.44931  -0.44780  -0.44279  -0.44072
 Alpha  occ. eigenvalues --   -0.43995  -0.43541  -0.43247  -0.42943  -0.42818
 Alpha  occ. eigenvalues --   -0.42011  -0.41806  -0.39976  -0.39167  -0.39065
 Alpha  occ. eigenvalues --   -0.38462  -0.37753  -0.35692  -0.35235  -0.34765
 Alpha  occ. eigenvalues --   -0.33699  -0.33054  -0.32962  -0.32112  -0.27153
 Alpha  occ. eigenvalues --   -0.22081
 Alpha virt. eigenvalues --   -0.08803  -0.02993  -0.00856   0.01020   0.01624
 Alpha virt. eigenvalues --    0.02023   0.02415   0.03047   0.04521   0.05256
 Alpha virt. eigenvalues --    0.05640   0.06463   0.06803   0.07294   0.07853

 Mulliken charges:
               1
     1  Mg   0.425068
     2  C   -0.037103
     3  C   -0.075610
     4  C   -0.076292
     5  C   -0.079099
     6  N   -0.273545
     7  C    0.119504
     8  C   -0.002236
     9  C    0.004569
    10  C    0.121502
    11  C   -0.049119
    12  C   -0.025384
    13  C   -0.002174
    14  C    0.465476
    15  O   -0.518401
    16  O   -0.260488
    17  N   -0.305647
    18  C    0.114804
    19  C    0.051139
    20  C   -0.045404
    21  C    0.113502
    22  C   -0.033517
    23  C    0.337932
    24  O   -0.518227
    25  C   -0.025474
    26  N   -0.275334
    27  C    0.110510
    28  C   -0.000072
    29  C    0.007464
    30  C    0.108186
    31  C   -0.054473
    32  C   -0.030979
    33  C   -0.056032
    34  N   -0.320167
    35  C    0.105500
    36  C    0.040408
    37  C   -0.061015
    38  C    0.117427
    39  C   -0.041635
    40  C    0.325855
    41  O   -0.519300
    42  C    0.049366
    43  C    0.495701
    44  O   -0.519384
    45  O   -0.272618
    46  C    0.071487
    47  C    0.105586
    48  C   -0.095692
    49  C    0.006419
    50  C   -0.043950
    51  C   -0.026276
    52  C   -0.033390
    53  C   -0.035048
    54  C   -0.020637
    55  C   -0.053156
    56  C   -0.046274
    57  C   -0.036720
    58  C   -0.042247
    59  C   -0.003934
    60  C   -0.055441
    61  C   -0.041697
    62  C   -0.043725
    63  C   -0.041622
    64  C   -0.003917
    65  C   -0.066727
    66  C   -0.045742
    67  H    0.020160
    68  H    0.020989
    69  H    0.023955
    70  H    0.035784
    71  H    0.031769
    72  H    0.024290
    73  H    0.022721
    74  H    0.033639
    75  H    0.043247
    76  H    0.031299
    77  H    0.032457
    78  H    0.041196
    79  H    0.014142
    80  H    0.043968
    81  H    0.040338
    82  H    0.013720
    83  H    0.045581
    84  H    0.041151
    85  H    0.036915
    86  H    0.034733
    87  H    0.016458
    88  H    0.028560
    89  H    0.027256
    90  H    0.033955
    91  H    0.012168
    92  H    0.020586
    93  H    0.018061
    94  H    0.024201
    95  H    0.028326
    96  H    0.041130
    97  H    0.023506
    98  H    0.054153
    99  H    0.050062
   100  H    0.040810
   101  H    0.040641
   102  H    0.032425
   103  H    0.065707
   104  H    0.013713
   105  H    0.023528
   106  H    0.023158
   107  H    0.036865
   108  H    0.033341
   109  H    0.010855
   110  H    0.022883
   111  H    0.022417
   112  H    0.017459
   113  H    0.026304
   114  H    0.023204
   115  H    0.020303
   116  H    0.010582
   117  H    0.014706
   118  H    0.027627
   119  H    0.022358
   120  H    0.025491
   121  H    0.026238
   122  H    0.013123
   123  H    0.009266
   124  H    0.018291
   125  H    0.019389
   126  H    0.016251
   127  H    0.026775
   128  H    0.019090
   129  H    0.019714
   130  H    0.020291
   131  H    0.019595
   132  H    0.023565
   133  H    0.014007
   134  H    0.021842
   135  H    0.007514
   136  H    0.030369
   137  H    0.013923
   138  H    0.012854
   139  H    0.016803
   140  H    0.003767
 Sum of Mulliken charges =  -0.00000

 Dipole moment (field-independent basis, Debye):
    X=              0.7059    Y=              8.2415    Z=              1.9363  Tot=              8.4953
 N-N= 4.316664320272D+03 E-N= 0.000000000000D+00  KE=-9.307139778071D+03
 Leave Link  601 at Fri Apr 29 12:47:42 2022, MaxMem=  6710886400 cpu:               0.8 elap:               0.1
 (Enter /sw/apps/gaussian-16.0/g16/l9999.exe)
 1\1\GINC-BP1-COMPUTE162\SP\RZINDO CIS\STO-3G\C55H74Mg1N4O6\OF15641\29-
 Apr-2022\0\\#p ZINDO=(nstates=5)\\step_301_chromophore_14 ZINDO\\0,1\M
 g,0,46.594,44.933,43.745\C,0,43.33,43.796,43.463\C,0,47.7,41.762,43.13
 \C,0,49.657,46.141,43.266\C,0,45.31,48.202,43.843\N,0,45.59,43.017,43.
 27\C,0,44.266,42.784,43.172\C,0,43.963,41.26,42.891\C,0,45.375,40.603,
 42.893\C,0,46.302,41.851,43.102\C,0,45.566,39.456,43.875\C,0,43.061,40
 .959,41.629\C,0,43.238,41.932,40.442\C,0,42.702,41.6,38.996\O,0,42.257

 Normal termination of Gaussian 16 at Fri Apr 29 12:47:43 2022.
