 Gaussian 16, Revision A.03,
 Gaussian 16:  ES64L-G16RevA.03 25-Dec-2016

 ------------------------------
 #p blyp/Def2SVP td=(nstates=5)
 ------------------------------

 ---------------------------------------------------
 step_1351_chromophore_10 TDDFT with blyp functional
 ---------------------------------------------------
 Symbolic Z-matrix:
 Charge =  0 Multiplicity = 1

                         Standard orientation:
 ---------------------------------------------------------------------
 Center     Atomic      Atomic             Coordinates (Angstroms)
 Number     Number       Type             X           Y           Z
 ---------------------------------------------------------------------
      1         12           0        5.779285    0.494205    0.108234
      2          6           0        3.675899   -2.259132    0.523425
      3          6           0        3.526873    1.810847   -2.075477
      4          6           0        7.995964    3.018351   -0.510781
      5          6           0        8.071306   -1.046189    2.201726
      6          7           0        3.922236   -0.246185   -0.801234
      7          6           0        3.121185   -1.295558   -0.363270
      8          6           0        1.753023   -1.355253   -1.053666
      9          6           0        1.879115   -0.084830   -2.040537
     10          6           0        3.204162    0.514877   -1.665672
     11          6           0        1.870895   -0.406983   -3.569530
     12          6           0        0.573710   -1.220022   -0.008226
     13          6           0       -0.443395   -2.416627    0.033904
     14          6           0       -1.952726   -2.116884    0.048786
     15          8           0       -2.544196   -1.551280    0.964819
     16          8           0       -2.586442   -2.884859   -0.880394
     17          7           0        5.747130    2.228588   -1.078818
     18          6           0        4.756801    2.577355   -1.864900
     19          6           0        5.069405    3.908193   -2.432633
     20          6           0        6.311411    4.335532   -1.888385
     21          6           0        6.772906    3.161573   -1.193491
     22          6           0        4.116042    4.639242   -3.462378
     23          6           0        7.074140    5.684712   -2.004422
     24          8           0        8.197274    5.908445   -1.514243
     25          6           0        6.500584    6.746292   -2.864853
     26          7           0        7.742587    0.961053    0.863721
     27          6           0        8.507407    1.978380    0.298894
     28          6           0        9.831344    2.107896    1.099280
     29          6           0        9.696414    0.971031    2.166830
     30          6           0        8.423543    0.257773    1.753006
     31          6           0       11.014559    1.978646    0.154830
     32          6           0        9.699877    1.434420    3.626656
     33          6           0        8.445165    2.069637    4.188632
     34          7           0        5.975606   -1.336582    1.087257
     35          6           0        6.965923   -1.824202    1.839003
     36          6           0        6.598814   -3.178600    2.293731
     37          6           0        5.219735   -3.322845    1.905684
     38          6           0        4.963279   -2.250813    1.091714
     39          6           0        7.471149   -4.089290    3.006470
     40          6           0        4.113363   -4.190886    1.904475
     41          8           0        4.047816   -5.158205    2.639083
     42          6           0        3.020638   -3.529189    0.982529
     43          6           0        2.844392   -4.337918   -0.260072
     44          8           0        3.666772   -4.380801   -1.140857
     45          8           0        1.662102   -5.060329   -0.239504
     46          6           0        1.150755   -5.704874   -1.450491
     47          6           0       -4.025908   -3.265577   -0.740211
     48          6           0       -4.912158   -2.459589   -1.688097
     49          6           0       -6.204684   -2.839608   -2.066505
     50          6           0       -6.976699   -3.954140   -1.437856
     51          6           0       -6.939016   -2.034448   -3.067564
     52          6           0       -8.091374   -1.168896   -2.403004
     53          6           0       -9.457986   -1.311211   -3.111044
     54          6           0      -10.765164   -1.230893   -2.220279
     55          6           0      -11.708296   -2.457413   -2.554124
     56          6           0      -11.656624    0.060409   -2.305638
     57          6           0      -11.928270    0.665994   -0.902529
     58          6           0      -10.928685    1.915606   -0.613593
     59          6           0      -11.567883    3.011120    0.268218
     60          6           0      -11.578222    4.415202   -0.505236
     61          6           0      -10.737625    3.180201    1.573711
     62          6           0      -11.603466    3.878442    2.608779
     63          6           0      -11.624422    3.171638    3.976508
     64          6           0      -13.059642    2.671617    4.357417
     65          6           0      -13.707913    3.272972    5.664526
     66          6           0      -13.113283    1.028404    4.447833
     67          1           0        2.660233    2.281023   -2.544139
     68          1           0        8.718944    3.752492   -0.874163
     69          1           0        8.806641   -1.463306    2.893163
     70          1           0        1.721517   -2.202636   -1.737109
     71          1           0        1.163998    0.720690   -1.872037
     72          1           0        2.721313    0.097058   -4.028774
     73          1           0        0.937215    0.073978   -3.862095
     74          1           0        1.898850   -1.463465   -3.834590
     75          1           0        0.006512   -0.297134   -0.135796
     76          1           0        0.957341   -1.167190    1.010874
     77          1           0       -0.274361   -3.088691    0.875233
     78          1           0       -0.267170   -3.133842   -0.767136
     79          1           0        3.949604    3.752841   -4.075508
     80          1           0        4.415158    5.458662   -4.115858
     81          1           0        3.187644    4.871542   -2.939560
     82          1           0        6.488660    6.445916   -3.912727
     83          1           0        7.226305    7.559164   -2.914853
     84          1           0        5.566713    7.166587   -2.492159
     85          1           0        9.794496    3.111397    1.524253
     86          1           0       10.478523    0.277006    1.859928
     87          1           0       10.784932    1.220427   -0.593779
     88          1           0       11.872481    1.497515    0.623468
     89          1           0       11.107791    2.976379   -0.273044
     90          1           0       10.502114    2.168592    3.702293
     91          1           0        9.915207    0.556963    4.237515
     92          1           0        7.656543    2.156838    3.440270
     93          1           0        8.689036    3.093975    4.471085
     94          1           0        7.982284    1.579462    5.044537
     95          1           0        7.246821   -5.120257    2.734220
     96          1           0        7.327348   -3.882277    4.067525
     97          1           0        8.522353   -3.974052    2.742106
     98          1           0        2.103035   -3.348829    1.541286
     99          1           0        0.805100   -6.715418   -1.232235
    100          1           0        1.962458   -5.788358   -2.173721
    101          1           0        0.274965   -5.339550   -1.985637
    102          1           0       -4.443496   -3.065994    0.246013
    103          1           0       -4.178371   -4.330206   -0.920393
    104          1           0       -4.510454   -1.594653   -2.215848
    105          1           0       -6.500944   -4.698226   -0.798419
    106          1           0       -7.285461   -4.549452   -2.296768
    107          1           0       -7.852841   -3.505145   -0.969597
    108          1           0       -7.237346   -2.695857   -3.880615
    109          1           0       -6.287729   -1.270680   -3.494699
    110          1           0       -7.785013   -0.125576   -2.476669
    111          1           0       -8.084238   -1.267915   -1.317320
    112          1           0       -9.513804   -2.183319   -3.762120
    113          1           0       -9.487466   -0.467191   -3.800200
    114          1           0      -10.443816   -1.349262   -1.185177
    115          1           0      -12.119539   -2.277272   -3.548020
    116          1           0      -12.538450   -2.578272   -1.857954
    117          1           0      -11.129615   -3.377477   -2.632937
    118          1           0      -12.523640   -0.122356   -2.941251
    119          1           0      -11.134495    0.779530   -2.935634
    120          1           0      -11.922727   -0.038615   -0.070175
    121          1           0      -12.947978    1.021189   -1.044694
    122          1           0      -10.517102    2.318045   -1.538901
    123          1           0      -10.036335    1.553772   -0.103197
    124          1           0      -12.561589    2.618366    0.483721
    125          1           0      -12.604402    4.722916   -0.707316
    126          1           0      -11.068766    4.317718   -1.463874
    127          1           0      -11.002493    5.144132    0.064283
    128          1           0       -9.844351    3.777324    1.390129
    129          1           0      -10.391217    2.215217    1.943853
    130          1           0      -12.633886    4.007058    2.280021
    131          1           0      -11.246164    4.880165    2.845680
    132          1           0      -11.329006    3.846708    4.779515
    133          1           0      -10.805290    2.453924    4.027484
    134          1           0      -13.817338    3.063961    3.678797
    135          1           0      -13.097258    3.903647    6.310105
    136          1           0      -14.181643    2.472933    6.232547
    137          1           0      -14.560178    3.857956    5.319571
    138          1           0      -12.213787    0.529544    4.088170
    139          1           0      -13.977456    0.736483    3.851498
    140          1           0      -13.243867    0.594081    5.438407
 ---------------------------------------------------------------------

 SCF Done:  E(RB-LYP) =  -3007.34547368     A.U. after   22 cycles

 Excitation energies and oscillator strengths:

 Excited State   1:      Singlet-A      1.7814 eV  695.99 nm  f=0.2940  <S**2>=0.000
     245 -> 248        0.16683
     245 -> 249       -0.10858
     246 -> 247        0.68210
     246 <- 247       -0.15093
 This state for optimization and/or second-order correction.
 Total Energy, E(TD-HF/TD-DFT) =  -3007.28000822
 Copying the excited state density for this state as the 1-particle RhoCI density.

 Excited State   2:      Singlet-A      1.9585 eV  633.04 nm  f=0.0684  <S**2>=0.000
     243 -> 247        0.10422
     245 -> 247        0.64148
     246 -> 248       -0.19561
     246 -> 249        0.13960

 Excited State   3:      Singlet-A      2.0781 eV  596.61 nm  f=0.0003  <S**2>=0.000
     244 -> 247        0.70615

 Excited State   4:      Singlet-A      2.1664 eV  572.32 nm  f=0.0023  <S**2>=0.000
     243 -> 247        0.69659

 Excited State   5:      Singlet-A      2.1902 eV  566.08 nm  f=0.0000  <S**2>=0.000
     242 -> 247        0.70706

 The electronic state is 1-A.
 Alpha  occ. eigenvalues --  -46.27088 -18.82495 -18.82126 -18.77355 -18.76368
 Alpha  occ. eigenvalues --  -18.76222 -18.75681 -14.03211 -14.02660 -14.01119
 Alpha  occ. eigenvalues --  -14.00346 -10.04601 -10.04164 -10.00655  -9.99423
 Alpha  occ. eigenvalues --   -9.98655  -9.98093  -9.96838  -9.96018  -9.95960
 Alpha  occ. eigenvalues --   -9.95938  -9.95934  -9.95274  -9.95222  -9.95133
 Alpha  occ. eigenvalues --   -9.94385  -9.94359  -9.94145  -9.94140  -9.93987
 Alpha  occ. eigenvalues --   -9.93647  -9.93609  -9.93372  -9.93191  -9.93101
 Alpha  occ. eigenvalues --   -9.93056  -9.93033  -9.92783  -9.92774  -9.92636
 Alpha  occ. eigenvalues --   -9.92622  -9.92597  -9.92527  -9.92518  -9.92229
 Alpha  occ. eigenvalues --   -9.92176  -9.92165  -9.92111  -9.91958  -9.91877
 Alpha  occ. eigenvalues --   -9.91874  -9.91871  -9.91861  -9.91765  -9.91501
 Alpha  occ. eigenvalues --   -9.91433  -9.91136  -9.91076  -9.91002  -9.90980
 Alpha  occ. eigenvalues --   -9.90959  -9.90779  -9.90726  -9.90585  -9.90405
 Alpha  occ. eigenvalues --   -9.90341  -2.91649  -1.72096  -1.71495  -1.71382
 Alpha  occ. eigenvalues --   -0.97976  -0.97233  -0.91788  -0.90957  -0.90858
 Alpha  occ. eigenvalues --   -0.89067  -0.86742  -0.86236  -0.85664  -0.85117
 Alpha  occ. eigenvalues --   -0.76501  -0.73629  -0.72447  -0.72183  -0.72109
 Alpha  occ. eigenvalues --   -0.71473  -0.71222  -0.70924  -0.69916  -0.69701
 Alpha  occ. eigenvalues --   -0.69622  -0.68977  -0.67956  -0.67900  -0.67087
 Alpha  occ. eigenvalues --   -0.66235  -0.65801  -0.65530  -0.65042  -0.64516
 Alpha  occ. eigenvalues --   -0.63589  -0.62767  -0.62379  -0.61917  -0.60994
 Alpha  occ. eigenvalues --   -0.60857  -0.59530  -0.59383  -0.59165  -0.58546
 Alpha  occ. eigenvalues --   -0.58142  -0.57237  -0.56498  -0.55725  -0.54749
 Alpha  occ. eigenvalues --   -0.54057  -0.53823  -0.52882  -0.52520  -0.51659
 Alpha  occ. eigenvalues --   -0.51208  -0.51155  -0.50790  -0.50191  -0.49952
 Alpha  occ. eigenvalues --   -0.49743  -0.49444  -0.48914  -0.48785  -0.46392
 Alpha  occ. eigenvalues --   -0.46256  -0.46094  -0.45631  -0.45338  -0.44814
 Alpha  occ. eigenvalues --   -0.43992  -0.43715  -0.42681  -0.42438  -0.42275
 Alpha  occ. eigenvalues --   -0.41990  -0.41602  -0.41383  -0.41236  -0.40944
 Alpha  occ. eigenvalues --   -0.40798  -0.40581  -0.40097  -0.39976  -0.39820
 Alpha  occ. eigenvalues --   -0.39598  -0.39341  -0.39206  -0.39080  -0.38985
 Alpha  occ. eigenvalues --   -0.38785  -0.38554  -0.38427  -0.38054  -0.37960
 Alpha  occ. eigenvalues --   -0.37880  -0.37852  -0.37624  -0.37469  -0.37341
 Alpha  occ. eigenvalues --   -0.37285  -0.36960  -0.36873  -0.36820  -0.36553
 Alpha  occ. eigenvalues --   -0.36288  -0.36116  -0.35890  -0.35820  -0.35441
 Alpha  occ. eigenvalues --   -0.35155  -0.35091  -0.35062  -0.34778  -0.34655
 Alpha  occ. eigenvalues --   -0.34441  -0.34296  -0.34150  -0.33979  -0.33939
 Alpha  occ. eigenvalues --   -0.33835  -0.33635  -0.33264  -0.33065  -0.33016
 Alpha  occ. eigenvalues --   -0.32921  -0.32578  -0.32387  -0.32330  -0.32161
 Alpha  occ. eigenvalues --   -0.31975  -0.31871  -0.31752  -0.31596  -0.31514
 Alpha  occ. eigenvalues --   -0.31489  -0.31260  -0.31215  -0.30955  -0.30773
 Alpha  occ. eigenvalues --   -0.30423  -0.30280  -0.30167  -0.30015  -0.29794
 Alpha  occ. eigenvalues --   -0.29698  -0.29520  -0.29372  -0.29033  -0.28869
 Alpha  occ. eigenvalues --   -0.28720  -0.28388  -0.28283  -0.27944  -0.27526
 Alpha  occ. eigenvalues --   -0.27430  -0.27277  -0.26944  -0.26523  -0.26316
 Alpha  occ. eigenvalues --   -0.26193  -0.26133  -0.25626  -0.25410  -0.25357
 Alpha  occ. eigenvalues --   -0.24974  -0.24599  -0.24449  -0.23708  -0.23427
 Alpha  occ. eigenvalues --   -0.23100  -0.22934  -0.21829  -0.21389  -0.20792
 Alpha  occ. eigenvalues --   -0.19900  -0.19351  -0.19158  -0.18836  -0.16850
 Alpha  occ. eigenvalues --   -0.15476
 Alpha virt. eigenvalues --   -0.11302  -0.07189  -0.06355  -0.04955  -0.03629
 Alpha virt. eigenvalues --   -0.02963  -0.02218  -0.02147  -0.01040  -0.00238
 Alpha virt. eigenvalues --    0.01012   0.01574   0.02093   0.02660   0.03029

 Mulliken charges:
               1
     1  Mg   0.685519
     2  C   -0.056586
     3  C   -0.082606
     4  C   -0.031387
     5  C   -0.079365
     6  N   -0.221440
     7  C   -0.098037
     8  C    0.082066
     9  C   -0.060960
    10  C    0.018385
    11  C    0.129340
    12  C    0.145582
    13  C    0.079709
    14  C    0.076616
    15  O   -0.198478
    16  O   -0.270175
    17  N   -0.255858
    18  C    0.132836
    19  C   -0.149475
    20  C    0.028028
    21  C    0.043486
    22  C    0.138914
    23  C   -0.043426
    24  O   -0.174628
    25  C    0.130269
    26  N   -0.212850
    27  C    0.031734
    28  C   -0.053603
    29  C    0.101099
    30  C   -0.049191
    31  C    0.156546
    32  C    0.122612
    33  C    0.060470
    34  N   -0.231337
    35  C    0.144338
    36  C   -0.176134
    37  C    0.103535
    38  C    0.126312
    39  C    0.183859
    40  C   -0.093775
    41  O   -0.121853
    42  C    0.095723
    43  C    0.112009
    44  O   -0.154284
    45  O   -0.279280
    46  C    0.199436
    47  C    0.318287
    48  C   -0.095230
    49  C   -0.187085
    50  C    0.153309
    51  C    0.147907
    52  C    0.045473
    53  C    0.119444
    54  C   -0.072743
    55  C    0.074737
    56  C    0.112130
    57  C    0.062065
    58  C    0.106725
    59  C   -0.099183
    60  C    0.112323
    61  C    0.102041
    62  C    0.082394
    63  C    0.114431
    64  C   -0.089445
    65  C    0.087190
    66  C    0.068956
    67  H   -0.061811
    68  H   -0.031975
    69  H   -0.071310
    70  H   -0.003558
    71  H   -0.019705
    72  H    0.000025
    73  H   -0.005611
    74  H    0.002645
    75  H   -0.006317
    76  H   -0.008317
    77  H    0.020370
    78  H   -0.022265
    79  H    0.003209
    80  H    0.001317
    81  H    0.005933
    82  H    0.016458
    83  H   -0.019861
    84  H    0.017158
    85  H   -0.018177
    86  H   -0.050979
    87  H   -0.022009
    88  H   -0.016217
    89  H    0.014267
    90  H   -0.017672
    91  H   -0.020802
    92  H   -0.000756
    93  H   -0.013045
    94  H   -0.004652
    95  H    0.007810
    96  H    0.011610
    97  H   -0.013959
    98  H   -0.007164
    99  H    0.009275
   100  H    0.016006
   101  H    0.019242
   102  H    0.011815
   103  H    0.008934
   104  H   -0.039812
   105  H   -0.013318
   106  H   -0.017542
   107  H    0.009096
   108  H   -0.014900
   109  H   -0.039169
   110  H   -0.031824
   111  H   -0.016503
   112  H   -0.035951
   113  H   -0.039910
   114  H   -0.034129
   115  H   -0.016888
   116  H   -0.012252
   117  H   -0.018313
   118  H   -0.040316
   119  H   -0.050058
   120  H   -0.010031
   121  H   -0.026833
   122  H   -0.041157
   123  H   -0.040831
   124  H   -0.026462
   125  H   -0.007593
   126  H   -0.021878
   127  H   -0.010978
   128  H   -0.032292
   129  H   -0.028554
   130  H   -0.026547
   131  H   -0.039188
   132  H   -0.051613
   133  H   -0.035485
   134  H   -0.022461
   135  H   -0.005674
   136  H   -0.023191
   137  H   -0.027565
   138  H   -0.014841
   139  H   -0.011730
   140  H   -0.010641
 Sum of Mulliken charges =  -0.00000

 Dipole moment (field-independent basis, Debye):
    X=             -3.1657    Y=              1.2431    Z=             -2.9105  Tot=              4.4764
 Quadrupole moment (field-independent basis, Debye-Ang):
   XX=           -392.8615   YY=           -417.9403   ZZ=           -400.7606
   XY=              5.2035   XZ=             19.4084   YZ=              8.4226

 Normal termination of Gaussian 16 at Wed May  4 04:32:08 2022.
