 Gaussian 16, Revision A.03,
 Gaussian 16:  ES64L-G16RevA.03 25-Dec-2016

 -----------------------------------
 #p cam-b3lyp/Def2SVP td=(nstates=5)
 -----------------------------------

 --------------------------------------------------------
 step_1351_chromophore_10 TDDFT with cam-b3lyp functional
 --------------------------------------------------------
 Symbolic Z-matrix:
 Charge =  0 Multiplicity = 1

                         Standard orientation:
 ---------------------------------------------------------------------
 Center     Atomic      Atomic             Coordinates (Angstroms)
 Number     Number       Type             X           Y           Z
 ---------------------------------------------------------------------
      1         12           0        5.779285    0.494205    0.108234
      2          6           0        3.675899   -2.259132    0.523425
      3          6           0        3.526873    1.810847   -2.075477
      4          6           0        7.995964    3.018351   -0.510781
      5          6           0        8.071306   -1.046189    2.201726
      6          7           0        3.922236   -0.246185   -0.801234
      7          6           0        3.121185   -1.295558   -0.363270
      8          6           0        1.753023   -1.355253   -1.053666
      9          6           0        1.879115   -0.084830   -2.040537
     10          6           0        3.204162    0.514877   -1.665672
     11          6           0        1.870895   -0.406983   -3.569530
     12          6           0        0.573710   -1.220022   -0.008226
     13          6           0       -0.443395   -2.416627    0.033904
     14          6           0       -1.952726   -2.116884    0.048786
     15          8           0       -2.544196   -1.551280    0.964819
     16          8           0       -2.586442   -2.884859   -0.880394
     17          7           0        5.747130    2.228588   -1.078818
     18          6           0        4.756801    2.577355   -1.864900
     19          6           0        5.069405    3.908193   -2.432633
     20          6           0        6.311411    4.335532   -1.888385
     21          6           0        6.772906    3.161573   -1.193491
     22          6           0        4.116042    4.639242   -3.462378
     23          6           0        7.074140    5.684712   -2.004422
     24          8           0        8.197274    5.908445   -1.514243
     25          6           0        6.500584    6.746292   -2.864853
     26          7           0        7.742587    0.961053    0.863721
     27          6           0        8.507407    1.978380    0.298894
     28          6           0        9.831344    2.107896    1.099280
     29          6           0        9.696414    0.971031    2.166830
     30          6           0        8.423543    0.257773    1.753006
     31          6           0       11.014559    1.978646    0.154830
     32          6           0        9.699877    1.434420    3.626656
     33          6           0        8.445165    2.069637    4.188632
     34          7           0        5.975606   -1.336582    1.087257
     35          6           0        6.965923   -1.824202    1.839003
     36          6           0        6.598814   -3.178600    2.293731
     37          6           0        5.219735   -3.322845    1.905684
     38          6           0        4.963279   -2.250813    1.091714
     39          6           0        7.471149   -4.089290    3.006470
     40          6           0        4.113363   -4.190886    1.904475
     41          8           0        4.047816   -5.158205    2.639083
     42          6           0        3.020638   -3.529189    0.982529
     43          6           0        2.844392   -4.337918   -0.260072
     44          8           0        3.666772   -4.380801   -1.140857
     45          8           0        1.662102   -5.060329   -0.239504
     46          6           0        1.150755   -5.704874   -1.450491
     47          6           0       -4.025908   -3.265577   -0.740211
     48          6           0       -4.912158   -2.459589   -1.688097
     49          6           0       -6.204684   -2.839608   -2.066505
     50          6           0       -6.976699   -3.954140   -1.437856
     51          6           0       -6.939016   -2.034448   -3.067564
     52          6           0       -8.091374   -1.168896   -2.403004
     53          6           0       -9.457986   -1.311211   -3.111044
     54          6           0      -10.765164   -1.230893   -2.220279
     55          6           0      -11.708296   -2.457413   -2.554124
     56          6           0      -11.656624    0.060409   -2.305638
     57          6           0      -11.928270    0.665994   -0.902529
     58          6           0      -10.928685    1.915606   -0.613593
     59          6           0      -11.567883    3.011120    0.268218
     60          6           0      -11.578222    4.415202   -0.505236
     61          6           0      -10.737625    3.180201    1.573711
     62          6           0      -11.603466    3.878442    2.608779
     63          6           0      -11.624422    3.171638    3.976508
     64          6           0      -13.059642    2.671617    4.357417
     65          6           0      -13.707913    3.272972    5.664526
     66          6           0      -13.113283    1.028404    4.447833
     67          1           0        2.660233    2.281023   -2.544139
     68          1           0        8.718944    3.752492   -0.874163
     69          1           0        8.806641   -1.463306    2.893163
     70          1           0        1.721517   -2.202636   -1.737109
     71          1           0        1.163998    0.720690   -1.872037
     72          1           0        2.721313    0.097058   -4.028774
     73          1           0        0.937215    0.073978   -3.862095
     74          1           0        1.898850   -1.463465   -3.834590
     75          1           0        0.006512   -0.297134   -0.135796
     76          1           0        0.957341   -1.167190    1.010874
     77          1           0       -0.274361   -3.088691    0.875233
     78          1           0       -0.267170   -3.133842   -0.767136
     79          1           0        3.949604    3.752841   -4.075508
     80          1           0        4.415158    5.458662   -4.115858
     81          1           0        3.187644    4.871542   -2.939560
     82          1           0        6.488660    6.445916   -3.912727
     83          1           0        7.226305    7.559164   -2.914853
     84          1           0        5.566713    7.166587   -2.492159
     85          1           0        9.794496    3.111397    1.524253
     86          1           0       10.478523    0.277006    1.859928
     87          1           0       10.784932    1.220427   -0.593779
     88          1           0       11.872481    1.497515    0.623468
     89          1           0       11.107791    2.976379   -0.273044
     90          1           0       10.502114    2.168592    3.702293
     91          1           0        9.915207    0.556963    4.237515
     92          1           0        7.656543    2.156838    3.440270
     93          1           0        8.689036    3.093975    4.471085
     94          1           0        7.982284    1.579462    5.044537
     95          1           0        7.246821   -5.120257    2.734220
     96          1           0        7.327348   -3.882277    4.067525
     97          1           0        8.522353   -3.974052    2.742106
     98          1           0        2.103035   -3.348829    1.541286
     99          1           0        0.805100   -6.715418   -1.232235
    100          1           0        1.962458   -5.788358   -2.173721
    101          1           0        0.274965   -5.339550   -1.985637
    102          1           0       -4.443496   -3.065994    0.246013
    103          1           0       -4.178371   -4.330206   -0.920393
    104          1           0       -4.510454   -1.594653   -2.215848
    105          1           0       -6.500944   -4.698226   -0.798419
    106          1           0       -7.285461   -4.549452   -2.296768
    107          1           0       -7.852841   -3.505145   -0.969597
    108          1           0       -7.237346   -2.695857   -3.880615
    109          1           0       -6.287729   -1.270680   -3.494699
    110          1           0       -7.785013   -0.125576   -2.476669
    111          1           0       -8.084238   -1.267915   -1.317320
    112          1           0       -9.513804   -2.183319   -3.762120
    113          1           0       -9.487466   -0.467191   -3.800200
    114          1           0      -10.443816   -1.349262   -1.185177
    115          1           0      -12.119539   -2.277272   -3.548020
    116          1           0      -12.538450   -2.578272   -1.857954
    117          1           0      -11.129615   -3.377477   -2.632937
    118          1           0      -12.523640   -0.122356   -2.941251
    119          1           0      -11.134495    0.779530   -2.935634
    120          1           0      -11.922727   -0.038615   -0.070175
    121          1           0      -12.947978    1.021189   -1.044694
    122          1           0      -10.517102    2.318045   -1.538901
    123          1           0      -10.036335    1.553772   -0.103197
    124          1           0      -12.561589    2.618366    0.483721
    125          1           0      -12.604402    4.722916   -0.707316
    126          1           0      -11.068766    4.317718   -1.463874
    127          1           0      -11.002493    5.144132    0.064283
    128          1           0       -9.844351    3.777324    1.390129
    129          1           0      -10.391217    2.215217    1.943853
    130          1           0      -12.633886    4.007058    2.280021
    131          1           0      -11.246164    4.880165    2.845680
    132          1           0      -11.329006    3.846708    4.779515
    133          1           0      -10.805290    2.453924    4.027484
    134          1           0      -13.817338    3.063961    3.678797
    135          1           0      -13.097258    3.903647    6.310105
    136          1           0      -14.181643    2.472933    6.232547
    137          1           0      -14.560178    3.857956    5.319571
    138          1           0      -12.213787    0.529544    4.088170
    139          1           0      -13.977456    0.736483    3.851498
    140          1           0      -13.243867    0.594081    5.438407
 ---------------------------------------------------------------------

 SCF Done:  E(RCAM-B3LYP) =  -3007.12975739     A.U. after   19 cycles

 Excitation energies and oscillator strengths:

 Excited State   1:      Singlet-A      1.6829 eV  736.73 nm  f=0.3745  <S**2>=0.000
     245 -> 248        0.18085
     246 -> 247        0.68182
     245 <- 248        0.10554
 This state for optimization and/or second-order correction.
 Total Energy, E(TD-HF/TD-DFT) =  -3007.06791182
 Copying the excited state density for this state as the 1-particle RhoCI density.

 Excited State   2:      Singlet-A      2.1860 eV  567.18 nm  f=0.1032  <S**2>=0.000
     245 -> 247        0.63579
     246 -> 248       -0.29041

 Excited State   3:      Singlet-A      3.3586 eV  369.15 nm  f=0.0148  <S**2>=0.000
     243 -> 247        0.66642
     246 -> 248        0.16758

 Excited State   4:      Singlet-A      3.4245 eV  362.05 nm  f=0.5633  <S**2>=0.000
     242 -> 247        0.18265
     243 -> 247       -0.16634
     245 -> 247        0.27271
     246 -> 248        0.59827
     245 <- 247       -0.10492

 Excited State   5:      Singlet-A      3.5610 eV  348.17 nm  f=0.0002  <S**2>=0.000
     240 -> 247        0.52385
     240 -> 249        0.32091
     240 -> 250        0.21440
     241 -> 247       -0.17144

 The electronic state is 1-A.
 Alpha  occ. eigenvalues --  -46.88597 -19.25554 -19.25008 -19.20594 -19.19463
 Alpha  occ. eigenvalues --  -19.19356 -19.18871 -14.41936 -14.41606 -14.39569
 Alpha  occ. eigenvalues --  -14.38676 -10.40179 -10.39486 -10.35916 -10.34744
 Alpha  occ. eigenvalues --  -10.32799 -10.32210 -10.31479 -10.30392 -10.30282
 Alpha  occ. eigenvalues --  -10.30277 -10.30234 -10.29479 -10.29394 -10.29358
 Alpha  occ. eigenvalues --  -10.28860 -10.28801 -10.28342 -10.28303 -10.28161
 Alpha  occ. eigenvalues --  -10.28132 -10.27662 -10.27488 -10.27232 -10.27139
 Alpha  occ. eigenvalues --  -10.27063 -10.26966 -10.26917 -10.26737 -10.26696
 Alpha  occ. eigenvalues --  -10.26455 -10.26271 -10.26254 -10.26225 -10.26207
 Alpha  occ. eigenvalues --  -10.26144 -10.25982 -10.25975 -10.25886 -10.25840
 Alpha  occ. eigenvalues --  -10.25608 -10.25583 -10.25566 -10.25349 -10.25224
 Alpha  occ. eigenvalues --  -10.24946 -10.24840 -10.24683 -10.24674 -10.24642
 Alpha  occ. eigenvalues --  -10.24627 -10.24406 -10.24375 -10.24370 -10.24193
 Alpha  occ. eigenvalues --  -10.24004  -3.17061  -1.91986  -1.91481  -1.91385
 Alpha  occ. eigenvalues --   -1.16673  -1.15681  -1.10223  -1.09333  -1.08911
 Alpha  occ. eigenvalues --   -1.06925  -1.04454  -1.03805  -1.03314  -1.02635
 Alpha  occ. eigenvalues --   -0.93727  -0.90538  -0.89212  -0.88901  -0.88720
 Alpha  occ. eigenvalues --   -0.88108  -0.87877  -0.87516  -0.86470  -0.86263
 Alpha  occ. eigenvalues --   -0.86153  -0.85320  -0.84181  -0.84105  -0.83237
 Alpha  occ. eigenvalues --   -0.82227  -0.81890  -0.81633  -0.80879  -0.80309
 Alpha  occ. eigenvalues --   -0.79359  -0.78479  -0.77959  -0.77457  -0.76428
 Alpha  occ. eigenvalues --   -0.76273  -0.74742  -0.74677  -0.74415  -0.73763
 Alpha  occ. eigenvalues --   -0.73163  -0.72212  -0.71348  -0.70538  -0.69350
 Alpha  occ. eigenvalues --   -0.68675  -0.68377  -0.67388  -0.66898  -0.65836
 Alpha  occ. eigenvalues --   -0.65408  -0.65218  -0.64742  -0.64141  -0.63981
 Alpha  occ. eigenvalues --   -0.63693  -0.63145  -0.62836  -0.62524  -0.60029
 Alpha  occ. eigenvalues --   -0.59854  -0.59718  -0.59233  -0.58916  -0.58146
 Alpha  occ. eigenvalues --   -0.57459  -0.57186  -0.55722  -0.55482  -0.55409
 Alpha  occ. eigenvalues --   -0.55061  -0.54813  -0.54796  -0.54295  -0.53986
 Alpha  occ. eigenvalues --   -0.53487  -0.53400  -0.52757  -0.52670  -0.52539
 Alpha  occ. eigenvalues --   -0.52096  -0.51965  -0.51903  -0.51742  -0.51706
 Alpha  occ. eigenvalues --   -0.51449  -0.51156  -0.50950  -0.50639  -0.50429
 Alpha  occ. eigenvalues --   -0.50212  -0.50143  -0.49886  -0.49763  -0.49642
 Alpha  occ. eigenvalues --   -0.49523  -0.49352  -0.49064  -0.48940  -0.48918
 Alpha  occ. eigenvalues --   -0.48739  -0.48625  -0.48185  -0.48003  -0.47794
 Alpha  occ. eigenvalues --   -0.47280  -0.47104  -0.46943  -0.46707  -0.46573
 Alpha  occ. eigenvalues --   -0.46283  -0.46093  -0.46064  -0.45880  -0.45626
 Alpha  occ. eigenvalues --   -0.45467  -0.45396  -0.45102  -0.44848  -0.44644
 Alpha  occ. eigenvalues --   -0.44630  -0.44291  -0.44245  -0.44014  -0.43875
 Alpha  occ. eigenvalues --   -0.43562  -0.43452  -0.43262  -0.43120  -0.42955
 Alpha  occ. eigenvalues --   -0.42849  -0.42667  -0.42577  -0.42505  -0.42156
 Alpha  occ. eigenvalues --   -0.41891  -0.41699  -0.41638  -0.41398  -0.41222
 Alpha  occ. eigenvalues --   -0.41137  -0.40920  -0.40720  -0.40447  -0.40221
 Alpha  occ. eigenvalues --   -0.39834  -0.39380  -0.39265  -0.38873  -0.38441
 Alpha  occ. eigenvalues --   -0.38311  -0.38129  -0.37824  -0.37491  -0.37323
 Alpha  occ. eigenvalues --   -0.37198  -0.36949  -0.36667  -0.36468  -0.36351
 Alpha  occ. eigenvalues --   -0.35740  -0.35393  -0.35260  -0.34949  -0.34064
 Alpha  occ. eigenvalues --   -0.33813  -0.33646  -0.33061  -0.31736  -0.30938
 Alpha  occ. eigenvalues --   -0.30780  -0.30049  -0.29069  -0.28810  -0.23529
 Alpha  occ. eigenvalues --   -0.20741
 Alpha virt. eigenvalues --   -0.08368  -0.01759  -0.00005   0.01945   0.03033
 Alpha virt. eigenvalues --    0.04082   0.04719   0.05153   0.05732   0.06742
 Alpha virt. eigenvalues --    0.07357   0.08244   0.08578   0.09034   0.09180

 Mulliken charges:
               1
     1  Mg   0.819158
     2  C   -0.087112
     3  C   -0.098223
     4  C   -0.039016
     5  C   -0.082403
     6  N   -0.294226
     7  C   -0.049980
     8  C    0.023748
     9  C   -0.108284
    10  C    0.040157
    11  C    0.072892
    12  C    0.090640
    13  C    0.013912
    14  C    0.162199
    15  O   -0.239286
    16  O   -0.337957
    17  N   -0.341496
    18  C    0.140576
    19  C   -0.160518
    20  C   -0.035997
    21  C    0.062088
    22  C    0.086241
    23  C    0.036377
    24  O   -0.215489
    25  C    0.043657
    26  N   -0.279697
    27  C    0.048900
    28  C   -0.108834
    29  C    0.037839
    30  C   -0.030262
    31  C    0.096246
    32  C    0.067027
    33  C   -0.002982
    34  N   -0.322912
    35  C    0.148143
    36  C   -0.167491
    37  C    0.035419
    38  C    0.160925
    39  C    0.124255
    40  C   -0.001443
    41  O   -0.160981
    42  C    0.017729
    43  C    0.201572
    44  O   -0.189224
    45  O   -0.344098
    46  C    0.163715
    47  C    0.284792
    48  C   -0.111997
    49  C   -0.211796
    50  C    0.092041
    51  C    0.088377
    52  C   -0.009575
    53  C    0.066462
    54  C   -0.125680
    55  C    0.021065
    56  C    0.056291
    57  C    0.005243
    58  C    0.062258
    59  C   -0.157196
    60  C    0.055841
    61  C    0.047502
    62  C    0.026894
    63  C    0.058330
    64  C   -0.148658
    65  C    0.030958
    66  C    0.014259
    67  H   -0.027769
    68  H    0.005050
    69  H   -0.033774
    70  H    0.028248
    71  H    0.014476
    72  H    0.026887
    73  H    0.017745
    74  H    0.026325
    75  H    0.025393
    76  H    0.023625
    77  H    0.049317
    78  H    0.009214
    79  H    0.027629
    80  H    0.027656
    81  H    0.030999
    82  H    0.043437
    83  H    0.016641
    84  H    0.045306
    85  H    0.016367
    86  H   -0.012726
    87  H    0.004097
    88  H    0.009127
    89  H    0.037219
    90  H    0.011063
    91  H    0.006884
    92  H    0.020839
    93  H    0.011310
    94  H    0.020250
    95  H    0.035718
    96  H    0.038966
    97  H    0.012519
    98  H    0.035118
    99  H    0.032445
   100  H    0.042893
   101  H    0.037894
   102  H    0.043743
   103  H    0.035100
   104  H   -0.005436
   105  H    0.012414
   106  H    0.007182
   107  H    0.031802
   108  H    0.013446
   109  H   -0.006319
   110  H   -0.002640
   111  H    0.010113
   112  H   -0.007557
   113  H   -0.010901
   114  H   -0.004822
   115  H    0.004975
   116  H    0.011966
   117  H    0.004860
   118  H   -0.009987
   119  H   -0.020185
   120  H    0.015431
   121  H    0.001569
   122  H   -0.014292
   123  H   -0.013235
   124  H    0.003706
   125  H    0.015770
   126  H    0.002140
   127  H    0.011680
   128  H   -0.002854
   129  H   -0.001161
   130  H    0.000150
   131  H   -0.008982
   132  H   -0.020504
   133  H   -0.006924
   134  H    0.008016
   135  H    0.017123
   136  H    0.001206
   137  H   -0.003967
   138  H    0.007090
   139  H    0.011010
   140  H    0.011969
 Sum of Mulliken charges =  -0.00000

 Dipole moment (field-independent basis, Debye):
    X=             -3.3125    Y=              1.3610    Z=             -3.2212  Tot=              4.8167
 Quadrupole moment (field-independent basis, Debye-Ang):
   XX=           -392.1260   YY=           -414.2642   ZZ=           -399.4258
   XY=              7.0032   XZ=             19.6624   YZ=              7.1511

 Normal termination of Gaussian 16 at Wed May  4 03:36:58 2022.
