 Gaussian 16, Revision A.03,
 Gaussian 16:  ES64L-G16RevA.03 25-Dec-2016

 ---------------------------------
 #p PBE1PBE/Def2SVP td=(nstates=5)
 ---------------------------------

 ------------------------------------------------------
 step_1351_chromophore_10 TDDFT with PBE1PBE functional
 ------------------------------------------------------
 Symbolic Z-matrix:
 Charge =  0 Multiplicity = 1

                         Standard orientation:
 ---------------------------------------------------------------------
 Center     Atomic      Atomic             Coordinates (Angstroms)
 Number     Number       Type             X           Y           Z
 ---------------------------------------------------------------------
      1         12           0        5.779285    0.494205    0.108234
      2          6           0        3.675899   -2.259132    0.523425
      3          6           0        3.526873    1.810847   -2.075477
      4          6           0        7.995964    3.018351   -0.510781
      5          6           0        8.071306   -1.046189    2.201726
      6          7           0        3.922236   -0.246185   -0.801234
      7          6           0        3.121185   -1.295558   -0.363270
      8          6           0        1.753023   -1.355253   -1.053666
      9          6           0        1.879115   -0.084830   -2.040537
     10          6           0        3.204162    0.514877   -1.665672
     11          6           0        1.870895   -0.406983   -3.569530
     12          6           0        0.573710   -1.220022   -0.008226
     13          6           0       -0.443395   -2.416627    0.033904
     14          6           0       -1.952726   -2.116884    0.048786
     15          8           0       -2.544196   -1.551280    0.964819
     16          8           0       -2.586442   -2.884859   -0.880394
     17          7           0        5.747130    2.228588   -1.078818
     18          6           0        4.756801    2.577355   -1.864900
     19          6           0        5.069405    3.908193   -2.432633
     20          6           0        6.311411    4.335532   -1.888385
     21          6           0        6.772906    3.161573   -1.193491
     22          6           0        4.116042    4.639242   -3.462378
     23          6           0        7.074140    5.684712   -2.004422
     24          8           0        8.197274    5.908445   -1.514243
     25          6           0        6.500584    6.746292   -2.864853
     26          7           0        7.742587    0.961053    0.863721
     27          6           0        8.507407    1.978380    0.298894
     28          6           0        9.831344    2.107896    1.099280
     29          6           0        9.696414    0.971031    2.166830
     30          6           0        8.423543    0.257773    1.753006
     31          6           0       11.014559    1.978646    0.154830
     32          6           0        9.699877    1.434420    3.626656
     33          6           0        8.445165    2.069637    4.188632
     34          7           0        5.975606   -1.336582    1.087257
     35          6           0        6.965923   -1.824202    1.839003
     36          6           0        6.598814   -3.178600    2.293731
     37          6           0        5.219735   -3.322845    1.905684
     38          6           0        4.963279   -2.250813    1.091714
     39          6           0        7.471149   -4.089290    3.006470
     40          6           0        4.113363   -4.190886    1.904475
     41          8           0        4.047816   -5.158205    2.639083
     42          6           0        3.020638   -3.529189    0.982529
     43          6           0        2.844392   -4.337918   -0.260072
     44          8           0        3.666772   -4.380801   -1.140857
     45          8           0        1.662102   -5.060329   -0.239504
     46          6           0        1.150755   -5.704874   -1.450491
     47          6           0       -4.025908   -3.265577   -0.740211
     48          6           0       -4.912158   -2.459589   -1.688097
     49          6           0       -6.204684   -2.839608   -2.066505
     50          6           0       -6.976699   -3.954140   -1.437856
     51          6           0       -6.939016   -2.034448   -3.067564
     52          6           0       -8.091374   -1.168896   -2.403004
     53          6           0       -9.457986   -1.311211   -3.111044
     54          6           0      -10.765164   -1.230893   -2.220279
     55          6           0      -11.708296   -2.457413   -2.554124
     56          6           0      -11.656624    0.060409   -2.305638
     57          6           0      -11.928270    0.665994   -0.902529
     58          6           0      -10.928685    1.915606   -0.613593
     59          6           0      -11.567883    3.011120    0.268218
     60          6           0      -11.578222    4.415202   -0.505236
     61          6           0      -10.737625    3.180201    1.573711
     62          6           0      -11.603466    3.878442    2.608779
     63          6           0      -11.624422    3.171638    3.976508
     64          6           0      -13.059642    2.671617    4.357417
     65          6           0      -13.707913    3.272972    5.664526
     66          6           0      -13.113283    1.028404    4.447833
     67          1           0        2.660233    2.281023   -2.544139
     68          1           0        8.718944    3.752492   -0.874163
     69          1           0        8.806641   -1.463306    2.893163
     70          1           0        1.721517   -2.202636   -1.737109
     71          1           0        1.163998    0.720690   -1.872037
     72          1           0        2.721313    0.097058   -4.028774
     73          1           0        0.937215    0.073978   -3.862095
     74          1           0        1.898850   -1.463465   -3.834590
     75          1           0        0.006512   -0.297134   -0.135796
     76          1           0        0.957341   -1.167190    1.010874
     77          1           0       -0.274361   -3.088691    0.875233
     78          1           0       -0.267170   -3.133842   -0.767136
     79          1           0        3.949604    3.752841   -4.075508
     80          1           0        4.415158    5.458662   -4.115858
     81          1           0        3.187644    4.871542   -2.939560
     82          1           0        6.488660    6.445916   -3.912727
     83          1           0        7.226305    7.559164   -2.914853
     84          1           0        5.566713    7.166587   -2.492159
     85          1           0        9.794496    3.111397    1.524253
     86          1           0       10.478523    0.277006    1.859928
     87          1           0       10.784932    1.220427   -0.593779
     88          1           0       11.872481    1.497515    0.623468
     89          1           0       11.107791    2.976379   -0.273044
     90          1           0       10.502114    2.168592    3.702293
     91          1           0        9.915207    0.556963    4.237515
     92          1           0        7.656543    2.156838    3.440270
     93          1           0        8.689036    3.093975    4.471085
     94          1           0        7.982284    1.579462    5.044537
     95          1           0        7.246821   -5.120257    2.734220
     96          1           0        7.327348   -3.882277    4.067525
     97          1           0        8.522353   -3.974052    2.742106
     98          1           0        2.103035   -3.348829    1.541286
     99          1           0        0.805100   -6.715418   -1.232235
    100          1           0        1.962458   -5.788358   -2.173721
    101          1           0        0.274965   -5.339550   -1.985637
    102          1           0       -4.443496   -3.065994    0.246013
    103          1           0       -4.178371   -4.330206   -0.920393
    104          1           0       -4.510454   -1.594653   -2.215848
    105          1           0       -6.500944   -4.698226   -0.798419
    106          1           0       -7.285461   -4.549452   -2.296768
    107          1           0       -7.852841   -3.505145   -0.969597
    108          1           0       -7.237346   -2.695857   -3.880615
    109          1           0       -6.287729   -1.270680   -3.494699
    110          1           0       -7.785013   -0.125576   -2.476669
    111          1           0       -8.084238   -1.267915   -1.317320
    112          1           0       -9.513804   -2.183319   -3.762120
    113          1           0       -9.487466   -0.467191   -3.800200
    114          1           0      -10.443816   -1.349262   -1.185177
    115          1           0      -12.119539   -2.277272   -3.548020
    116          1           0      -12.538450   -2.578272   -1.857954
    117          1           0      -11.129615   -3.377477   -2.632937
    118          1           0      -12.523640   -0.122356   -2.941251
    119          1           0      -11.134495    0.779530   -2.935634
    120          1           0      -11.922727   -0.038615   -0.070175
    121          1           0      -12.947978    1.021189   -1.044694
    122          1           0      -10.517102    2.318045   -1.538901
    123          1           0      -10.036335    1.553772   -0.103197
    124          1           0      -12.561589    2.618366    0.483721
    125          1           0      -12.604402    4.722916   -0.707316
    126          1           0      -11.068766    4.317718   -1.463874
    127          1           0      -11.002493    5.144132    0.064283
    128          1           0       -9.844351    3.777324    1.390129
    129          1           0      -10.391217    2.215217    1.943853
    130          1           0      -12.633886    4.007058    2.280021
    131          1           0      -11.246164    4.880165    2.845680
    132          1           0      -11.329006    3.846708    4.779515
    133          1           0      -10.805290    2.453924    4.027484
    134          1           0      -13.817338    3.063961    3.678797
    135          1           0      -13.097258    3.903647    6.310105
    136          1           0      -14.181643    2.472933    6.232547
    137          1           0      -14.560178    3.857956    5.319571
    138          1           0      -12.213787    0.529544    4.088170
    139          1           0      -13.977456    0.736483    3.851498
    140          1           0      -13.243867    0.594081    5.438407
 ---------------------------------------------------------------------

 SCF Done:  E(RPBE1PBE) =  -3005.31953217     A.U. after   15 cycles

 Excitation energies and oscillator strengths:

 Excited State   1:      Singlet-A      1.8388 eV  674.26 nm  f=0.3635  <S**2>=0.000
     245 -> 248        0.16784
     246 -> 247        0.68883
     246 <- 247       -0.10927
 This state for optimization and/or second-order correction.
 Total Energy, E(TD-HF/TD-DFT) =  -3005.25195686
 Copying the excited state density for this state as the 1-particle RhoCI density.

 Excited State   2:      Singlet-A      2.1897 eV  566.23 nm  f=0.0991  <S**2>=0.000
     245 -> 247        0.64750
     246 -> 248       -0.25496

 Excited State   3:      Singlet-A      3.0359 eV  408.40 nm  f=0.0063  <S**2>=0.000
     241 -> 247        0.14751
     243 -> 247        0.67423

 Excited State   4:      Singlet-A      3.1155 eV  397.96 nm  f=0.0019  <S**2>=0.000
     241 -> 247        0.61460
     241 -> 249       -0.17964
     241 -> 250       -0.10150
     242 -> 247        0.21666
     243 -> 247       -0.14174

 Excited State   5:      Singlet-A      3.1498 eV  393.63 nm  f=0.1804  <S**2>=0.000
     239 -> 247        0.10122
     241 -> 247       -0.10052
     242 -> 247        0.19768
     245 -> 247        0.17340
     246 -> 248        0.57852
     246 -> 249        0.22300

 The electronic state is 1-A.
 Alpha  occ. eigenvalues --  -46.91993 -19.26155 -19.25732 -19.20748 -19.19702
 Alpha  occ. eigenvalues --  -19.19653 -19.19088 -14.41545 -14.41043 -14.39205
 Alpha  occ. eigenvalues --  -14.38328 -10.37141 -10.36540 -10.33071 -10.31857
 Alpha  occ. eigenvalues --  -10.30212 -10.29411 -10.29199 -10.28127 -10.28116
 Alpha  occ. eigenvalues --  -10.28011 -10.27965 -10.27266 -10.27218 -10.27030
 Alpha  occ. eigenvalues --  -10.26680 -10.26394 -10.25975 -10.25953 -10.25878
 Alpha  occ. eigenvalues --  -10.25780 -10.25391 -10.25176 -10.24879 -10.24872
 Alpha  occ. eigenvalues --  -10.24783 -10.24744 -10.24555 -10.24499 -10.24260
 Alpha  occ. eigenvalues --  -10.24185 -10.23859 -10.23800 -10.23788 -10.23739
 Alpha  occ. eigenvalues --  -10.23706 -10.23578 -10.23543 -10.23419 -10.23329
 Alpha  occ. eigenvalues --  -10.23172 -10.23147 -10.22944 -10.22853 -10.22793
 Alpha  occ. eigenvalues --  -10.22423 -10.22331 -10.22265 -10.22096 -10.22064
 Alpha  occ. eigenvalues --  -10.22050 -10.22047 -10.21966 -10.21938 -10.21598
 Alpha  occ. eigenvalues --  -10.21539  -3.14041  -1.86907  -1.86379  -1.86287
 Alpha  occ. eigenvalues --   -1.11365  -1.10514  -1.04962  -1.04056  -1.03686
 Alpha  occ. eigenvalues --   -1.01811  -0.99097  -0.98532  -0.97915  -0.97300
 Alpha  occ. eigenvalues --   -0.88095  -0.84658  -0.83294  -0.83128  -0.82995
 Alpha  occ. eigenvalues --   -0.82458  -0.81977  -0.81828  -0.80752  -0.80541
 Alpha  occ. eigenvalues --   -0.80263  -0.79579  -0.78430  -0.78352  -0.77470
 Alpha  occ. eigenvalues --   -0.76442  -0.76078  -0.75845  -0.75091  -0.74634
 Alpha  occ. eigenvalues --   -0.73493  -0.72781  -0.72282  -0.71768  -0.70724
 Alpha  occ. eigenvalues --   -0.70433  -0.69141  -0.68763  -0.68529  -0.67935
 Alpha  occ. eigenvalues --   -0.67514  -0.66638  -0.65776  -0.64862  -0.63720
 Alpha  occ. eigenvalues --   -0.63107  -0.62637  -0.61825  -0.61131  -0.60320
 Alpha  occ. eigenvalues --   -0.59784  -0.59612  -0.59189  -0.58696  -0.58098
 Alpha  occ. eigenvalues --   -0.57910  -0.57641  -0.57107  -0.57047  -0.54552
 Alpha  occ. eigenvalues --   -0.54320  -0.54086  -0.53775  -0.53392  -0.52794
 Alpha  occ. eigenvalues --   -0.51959  -0.51685  -0.50266  -0.50000  -0.49893
 Alpha  occ. eigenvalues --   -0.49569  -0.49410  -0.49328  -0.48913  -0.48558
 Alpha  occ. eigenvalues --   -0.47947  -0.47856  -0.47217  -0.47175  -0.46919
 Alpha  occ. eigenvalues --   -0.46652  -0.46532  -0.46513  -0.46214  -0.46190
 Alpha  occ. eigenvalues --   -0.45975  -0.45765  -0.45521  -0.45135  -0.45012
 Alpha  occ. eigenvalues --   -0.44782  -0.44697  -0.44471  -0.44340  -0.44240
 Alpha  occ. eigenvalues --   -0.44094  -0.43998  -0.43665  -0.43562  -0.43486
 Alpha  occ. eigenvalues --   -0.43345  -0.43237  -0.42851  -0.42682  -0.42380
 Alpha  occ. eigenvalues --   -0.41932  -0.41764  -0.41589  -0.41333  -0.41177
 Alpha  occ. eigenvalues --   -0.41056  -0.40762  -0.40660  -0.40439  -0.40411
 Alpha  occ. eigenvalues --   -0.40209  -0.40076  -0.39872  -0.39592  -0.39433
 Alpha  occ. eigenvalues --   -0.39313  -0.39058  -0.39009  -0.38760  -0.38648
 Alpha  occ. eigenvalues --   -0.38350  -0.38189  -0.37990  -0.37876  -0.37637
 Alpha  occ. eigenvalues --   -0.37608  -0.37483  -0.37320  -0.37307  -0.36998
 Alpha  occ. eigenvalues --   -0.36749  -0.36596  -0.36404  -0.36235  -0.36072
 Alpha  occ. eigenvalues --   -0.36003  -0.35749  -0.35421  -0.35286  -0.35114
 Alpha  occ. eigenvalues --   -0.34571  -0.34235  -0.34179  -0.33869  -0.33189
 Alpha  occ. eigenvalues --   -0.33070  -0.32920  -0.32792  -0.32490  -0.32199
 Alpha  occ. eigenvalues --   -0.32106  -0.31772  -0.31729  -0.31543  -0.31294
 Alpha  occ. eigenvalues --   -0.30655  -0.30189  -0.30093  -0.29875  -0.29248
 Alpha  occ. eigenvalues --   -0.28758  -0.28688  -0.28453  -0.26871  -0.26149
 Alpha  occ. eigenvalues --   -0.25766  -0.25653  -0.24725  -0.24158  -0.20487
 Alpha  occ. eigenvalues --   -0.18376
 Alpha virt. eigenvalues --   -0.10844  -0.05341  -0.04181  -0.02430  -0.00464
 Alpha virt. eigenvalues --   -0.00047   0.00323   0.00743   0.01644   0.02803
 Alpha virt. eigenvalues --    0.03673   0.04467   0.05030   0.05598   0.05997

 Mulliken charges:
               1
     1  Mg   0.968155
     2  C   -0.095889
     3  C   -0.084821
     4  C   -0.032760
     5  C   -0.072598
     6  N   -0.395487
     7  C    0.021516
     8  C   -0.051543
     9  C   -0.178692
    10  C    0.075833
    11  C    0.018145
    12  C    0.044590
    13  C   -0.068939
    14  C    0.235630
    15  O   -0.271700
    16  O   -0.369931
    17  N   -0.458173
    18  C    0.167067
    19  C   -0.193631
    20  C   -0.070517
    21  C    0.086915
    22  C    0.027656
    23  C    0.081593
    24  O   -0.251886
    25  C   -0.027912
    26  N   -0.384671
    27  C    0.088029
    28  C   -0.190464
    29  C   -0.043116
    30  C    0.016005
    31  C    0.038717
    32  C    0.002283
    33  C   -0.074589
    34  N   -0.452184
    35  C    0.175683
    36  C   -0.197227
    37  C    0.001646
    38  C    0.201682
    39  C    0.068691
    40  C    0.096665
    41  O   -0.207248
    42  C   -0.099860
    43  C    0.297054
    44  O   -0.222841
    45  O   -0.378530
    46  C    0.111113
    47  C    0.241817
    48  C   -0.118740
    49  C   -0.261854
    50  C    0.032345
    51  C    0.026501
    52  C   -0.070263
    53  C    0.015159
    54  C   -0.206631
    55  C   -0.043827
    56  C    0.005365
    57  C   -0.064963
    58  C    0.020070
    59  C   -0.247794
    60  C   -0.001094
    61  C   -0.010624
    62  C   -0.033881
    63  C    0.006849
    64  C   -0.236349
    65  C   -0.027964
    66  C   -0.046997
    67  H    0.004074
    68  H    0.035707
    69  H   -0.002206
    70  H    0.065251
    71  H    0.049440
    72  H    0.054968
    73  H    0.045170
    74  H    0.052817
    75  H    0.056205
    76  H    0.055697
    77  H    0.081296
    78  H    0.047625
    79  H    0.055618
    80  H    0.053443
    81  H    0.059334
    82  H    0.069347
    83  H    0.044896
    84  H    0.071282
    85  H    0.053312
    86  H    0.026392
    87  H    0.033169
    88  H    0.037455
    89  H    0.064761
    90  H    0.044419
    91  H    0.039931
    92  H    0.051729
    93  H    0.038855
    94  H    0.047642
    95  H    0.062997
    96  H    0.066697
    97  H    0.039272
    98  H    0.072229
    99  H    0.054241
   100  H    0.063212
   101  H    0.056988
   102  H    0.070219
   103  H    0.061383
   104  H    0.024225
   105  H    0.038243
   106  H    0.035456
   107  H    0.059605
   108  H    0.044451
   109  H    0.026473
   110  H    0.030305
   111  H    0.039925
   112  H    0.023092
   113  H    0.022250
   114  H    0.033670
   115  H    0.033401
   116  H    0.040622
   117  H    0.033303
   118  H    0.020723
   119  H    0.012371
   120  H    0.046136
   121  H    0.035041
   122  H    0.015789
   123  H    0.019444
   124  H    0.040913
   125  H    0.042936
   126  H    0.028928
   127  H    0.038323
   128  H    0.030265
   129  H    0.031063
   130  H    0.031743
   131  H    0.024046
   132  H    0.013038
   133  H    0.023407
   134  H    0.043755
   135  H    0.042915
   136  H    0.028732
   137  H    0.023583
   138  H    0.033865
   139  H    0.038520
   140  H    0.037993
 Sum of Mulliken charges =  -0.00000

 Dipole moment (field-independent basis, Debye):
    X=             -3.3023    Y=              1.4427    Z=             -3.2432  Tot=              4.8481
 Quadrupole moment (field-independent basis, Debye-Ang):
   XX=           -386.9506   YY=           -411.8099   ZZ=           -396.2377
   XY=              7.2633   XZ=             20.5659   YZ=              6.9472

 Normal termination of Gaussian 16 at Wed May  4 03:54:56 2022.
