 Gaussian 16, Revision A.03,
 Gaussian 16:  ES64L-G16RevA.03 25-Dec-2016

 --------------------------------
 #p wB97XD/Def2SVP td=(nstates=5)
 --------------------------------

 -----------------------------------------------------
 step_1351_chromophore_10 TDDFT with wB97XD functional
 -----------------------------------------------------
 Symbolic Z-matrix:
 Charge =  0 Multiplicity = 1

                         Standard orientation:
 ---------------------------------------------------------------------
 Center     Atomic      Atomic             Coordinates (Angstroms)
 Number     Number       Type             X           Y           Z
 ---------------------------------------------------------------------
      1         12           0        5.779285    0.494205    0.108234
      2          6           0        3.675899   -2.259132    0.523425
      3          6           0        3.526873    1.810847   -2.075477
      4          6           0        7.995964    3.018351   -0.510781
      5          6           0        8.071306   -1.046189    2.201726
      6          7           0        3.922236   -0.246185   -0.801234
      7          6           0        3.121185   -1.295558   -0.363270
      8          6           0        1.753023   -1.355253   -1.053666
      9          6           0        1.879115   -0.084830   -2.040537
     10          6           0        3.204162    0.514877   -1.665672
     11          6           0        1.870895   -0.406983   -3.569530
     12          6           0        0.573710   -1.220022   -0.008226
     13          6           0       -0.443395   -2.416627    0.033904
     14          6           0       -1.952726   -2.116884    0.048786
     15          8           0       -2.544196   -1.551280    0.964819
     16          8           0       -2.586442   -2.884859   -0.880394
     17          7           0        5.747130    2.228588   -1.078818
     18          6           0        4.756801    2.577355   -1.864900
     19          6           0        5.069405    3.908193   -2.432633
     20          6           0        6.311411    4.335532   -1.888385
     21          6           0        6.772906    3.161573   -1.193491
     22          6           0        4.116042    4.639242   -3.462378
     23          6           0        7.074140    5.684712   -2.004422
     24          8           0        8.197274    5.908445   -1.514243
     25          6           0        6.500584    6.746292   -2.864853
     26          7           0        7.742587    0.961053    0.863721
     27          6           0        8.507407    1.978380    0.298894
     28          6           0        9.831344    2.107896    1.099280
     29          6           0        9.696414    0.971031    2.166830
     30          6           0        8.423543    0.257773    1.753006
     31          6           0       11.014559    1.978646    0.154830
     32          6           0        9.699877    1.434420    3.626656
     33          6           0        8.445165    2.069637    4.188632
     34          7           0        5.975606   -1.336582    1.087257
     35          6           0        6.965923   -1.824202    1.839003
     36          6           0        6.598814   -3.178600    2.293731
     37          6           0        5.219735   -3.322845    1.905684
     38          6           0        4.963279   -2.250813    1.091714
     39          6           0        7.471149   -4.089290    3.006470
     40          6           0        4.113363   -4.190886    1.904475
     41          8           0        4.047816   -5.158205    2.639083
     42          6           0        3.020638   -3.529189    0.982529
     43          6           0        2.844392   -4.337918   -0.260072
     44          8           0        3.666772   -4.380801   -1.140857
     45          8           0        1.662102   -5.060329   -0.239504
     46          6           0        1.150755   -5.704874   -1.450491
     47          6           0       -4.025908   -3.265577   -0.740211
     48          6           0       -4.912158   -2.459589   -1.688097
     49          6           0       -6.204684   -2.839608   -2.066505
     50          6           0       -6.976699   -3.954140   -1.437856
     51          6           0       -6.939016   -2.034448   -3.067564
     52          6           0       -8.091374   -1.168896   -2.403004
     53          6           0       -9.457986   -1.311211   -3.111044
     54          6           0      -10.765164   -1.230893   -2.220279
     55          6           0      -11.708296   -2.457413   -2.554124
     56          6           0      -11.656624    0.060409   -2.305638
     57          6           0      -11.928270    0.665994   -0.902529
     58          6           0      -10.928685    1.915606   -0.613593
     59          6           0      -11.567883    3.011120    0.268218
     60          6           0      -11.578222    4.415202   -0.505236
     61          6           0      -10.737625    3.180201    1.573711
     62          6           0      -11.603466    3.878442    2.608779
     63          6           0      -11.624422    3.171638    3.976508
     64          6           0      -13.059642    2.671617    4.357417
     65          6           0      -13.707913    3.272972    5.664526
     66          6           0      -13.113283    1.028404    4.447833
     67          1           0        2.660233    2.281023   -2.544139
     68          1           0        8.718944    3.752492   -0.874163
     69          1           0        8.806641   -1.463306    2.893163
     70          1           0        1.721517   -2.202636   -1.737109
     71          1           0        1.163998    0.720690   -1.872037
     72          1           0        2.721313    0.097058   -4.028774
     73          1           0        0.937215    0.073978   -3.862095
     74          1           0        1.898850   -1.463465   -3.834590
     75          1           0        0.006512   -0.297134   -0.135796
     76          1           0        0.957341   -1.167190    1.010874
     77          1           0       -0.274361   -3.088691    0.875233
     78          1           0       -0.267170   -3.133842   -0.767136
     79          1           0        3.949604    3.752841   -4.075508
     80          1           0        4.415158    5.458662   -4.115858
     81          1           0        3.187644    4.871542   -2.939560
     82          1           0        6.488660    6.445916   -3.912727
     83          1           0        7.226305    7.559164   -2.914853
     84          1           0        5.566713    7.166587   -2.492159
     85          1           0        9.794496    3.111397    1.524253
     86          1           0       10.478523    0.277006    1.859928
     87          1           0       10.784932    1.220427   -0.593779
     88          1           0       11.872481    1.497515    0.623468
     89          1           0       11.107791    2.976379   -0.273044
     90          1           0       10.502114    2.168592    3.702293
     91          1           0        9.915207    0.556963    4.237515
     92          1           0        7.656543    2.156838    3.440270
     93          1           0        8.689036    3.093975    4.471085
     94          1           0        7.982284    1.579462    5.044537
     95          1           0        7.246821   -5.120257    2.734220
     96          1           0        7.327348   -3.882277    4.067525
     97          1           0        8.522353   -3.974052    2.742106
     98          1           0        2.103035   -3.348829    1.541286
     99          1           0        0.805100   -6.715418   -1.232235
    100          1           0        1.962458   -5.788358   -2.173721
    101          1           0        0.274965   -5.339550   -1.985637
    102          1           0       -4.443496   -3.065994    0.246013
    103          1           0       -4.178371   -4.330206   -0.920393
    104          1           0       -4.510454   -1.594653   -2.215848
    105          1           0       -6.500944   -4.698226   -0.798419
    106          1           0       -7.285461   -4.549452   -2.296768
    107          1           0       -7.852841   -3.505145   -0.969597
    108          1           0       -7.237346   -2.695857   -3.880615
    109          1           0       -6.287729   -1.270680   -3.494699
    110          1           0       -7.785013   -0.125576   -2.476669
    111          1           0       -8.084238   -1.267915   -1.317320
    112          1           0       -9.513804   -2.183319   -3.762120
    113          1           0       -9.487466   -0.467191   -3.800200
    114          1           0      -10.443816   -1.349262   -1.185177
    115          1           0      -12.119539   -2.277272   -3.548020
    116          1           0      -12.538450   -2.578272   -1.857954
    117          1           0      -11.129615   -3.377477   -2.632937
    118          1           0      -12.523640   -0.122356   -2.941251
    119          1           0      -11.134495    0.779530   -2.935634
    120          1           0      -11.922727   -0.038615   -0.070175
    121          1           0      -12.947978    1.021189   -1.044694
    122          1           0      -10.517102    2.318045   -1.538901
    123          1           0      -10.036335    1.553772   -0.103197
    124          1           0      -12.561589    2.618366    0.483721
    125          1           0      -12.604402    4.722916   -0.707316
    126          1           0      -11.068766    4.317718   -1.463874
    127          1           0      -11.002493    5.144132    0.064283
    128          1           0       -9.844351    3.777324    1.390129
    129          1           0      -10.391217    2.215217    1.943853
    130          1           0      -12.633886    4.007058    2.280021
    131          1           0      -11.246164    4.880165    2.845680
    132          1           0      -11.329006    3.846708    4.779515
    133          1           0      -10.805290    2.453924    4.027484
    134          1           0      -13.817338    3.063961    3.678797
    135          1           0      -13.097258    3.903647    6.310105
    136          1           0      -14.181643    2.472933    6.232547
    137          1           0      -14.560178    3.857956    5.319571
    138          1           0      -12.213787    0.529544    4.088170
    139          1           0      -13.977456    0.736483    3.851498
    140          1           0      -13.243867    0.594081    5.438407
 ---------------------------------------------------------------------

 SCF Done:  E(RwB97XD) =  -3007.82721959     A.U. after   19 cycles

 Excitation energies and oscillator strengths:

 Excited State   1:      Singlet-A      1.6239 eV  763.50 nm  f=0.3720  <S**2>=0.000
     245 -> 248        0.18722
     246 -> 247        0.67908
     245 <- 248        0.11544
 This state for optimization and/or second-order correction.
 Total Energy, E(TD-HF/TD-DFT) =  -3007.76754281
 Copying the excited state density for this state as the 1-particle RhoCI density.

 Excited State   2:      Singlet-A      2.1326 eV  581.37 nm  f=0.1014  <S**2>=0.000
     245 -> 247        0.63389
     246 -> 248       -0.29273

 Excited State   3:      Singlet-A      3.3784 eV  366.99 nm  f=0.0527  <S**2>=0.000
     243 -> 247        0.62911
     246 -> 248        0.25607

 Excited State   4:      Singlet-A      3.4587 eV  358.47 nm  f=0.5657  <S**2>=0.000
     242 -> 247        0.18550
     243 -> 247       -0.25889
     245 -> 247        0.26954
     246 -> 248        0.56468
     245 <- 247       -0.10748

 Excited State   5:      Singlet-A      3.5798 eV  346.35 nm  f=0.0001  <S**2>=0.000
     240 -> 247        0.26889
     240 -> 249        0.18725
     240 -> 250       -0.11413
     241 -> 247        0.46283
     241 -> 249        0.29745
     241 -> 250       -0.19879
     242 -> 247        0.10045

 The electronic state is 1-A.
 Alpha  occ. eigenvalues --  -46.94927 -19.30782 -19.30288 -19.25510 -19.24479
 Alpha  occ. eigenvalues --  -19.24347 -19.23951 -14.46513 -14.46210 -14.44150
 Alpha  occ. eigenvalues --  -14.43272 -10.44023 -10.43339 -10.39880 -10.38767
 Alpha  occ. eigenvalues --  -10.36722 -10.35966 -10.35544 -10.34388 -10.34299
 Alpha  occ. eigenvalues --  -10.34276 -10.34252 -10.33492 -10.33488 -10.33381
 Alpha  occ. eigenvalues --  -10.33003 -10.32849 -10.32486 -10.32363 -10.32177
 Alpha  occ. eigenvalues --  -10.32166 -10.31625 -10.31588 -10.31236 -10.31212
 Alpha  occ. eigenvalues --  -10.30999 -10.30989 -10.30935 -10.30815 -10.30744
 Alpha  occ. eigenvalues --  -10.30436 -10.30200 -10.30186 -10.30174 -10.30131
 Alpha  occ. eigenvalues --  -10.30040 -10.29983 -10.29914 -10.29780 -10.29733
 Alpha  occ. eigenvalues --  -10.29592 -10.29500 -10.29469 -10.29197 -10.29167
 Alpha  occ. eigenvalues --  -10.28775 -10.28745 -10.28612 -10.28511 -10.28490
 Alpha  occ. eigenvalues --  -10.28455 -10.28432 -10.28326 -10.28283 -10.28002
 Alpha  occ. eigenvalues --  -10.27902  -3.20833  -1.94449  -1.93920  -1.93826
 Alpha  occ. eigenvalues --   -1.18823  -1.17902  -1.12484  -1.11528  -1.11105
 Alpha  occ. eigenvalues --   -1.09164  -1.06475  -1.05843  -1.05305  -1.04657
 Alpha  occ. eigenvalues --   -0.95730  -0.92347  -0.90962  -0.90762  -0.90564
 Alpha  occ. eigenvalues --   -0.90033  -0.89651  -0.89433  -0.88428  -0.88182
 Alpha  occ. eigenvalues --   -0.87931  -0.87218  -0.86087  -0.85980  -0.85110
 Alpha  occ. eigenvalues --   -0.84099  -0.83777  -0.83544  -0.82744  -0.82253
 Alpha  occ. eigenvalues --   -0.81173  -0.80425  -0.79883  -0.79387  -0.78343
 Alpha  occ. eigenvalues --   -0.78121  -0.76691  -0.76461  -0.76220  -0.75598
 Alpha  occ. eigenvalues --   -0.75110  -0.74207  -0.73307  -0.72473  -0.71281
 Alpha  occ. eigenvalues --   -0.70655  -0.70265  -0.69374  -0.68765  -0.67805
 Alpha  occ. eigenvalues --   -0.67254  -0.67225  -0.66664  -0.66141  -0.65772
 Alpha  occ. eigenvalues --   -0.65528  -0.65138  -0.64671  -0.64522  -0.61995
 Alpha  occ. eigenvalues --   -0.61822  -0.61621  -0.61212  -0.60892  -0.60143
 Alpha  occ. eigenvalues --   -0.59401  -0.59141  -0.57660  -0.57423  -0.57340
 Alpha  occ. eigenvalues --   -0.56990  -0.56792  -0.56741  -0.56281  -0.55936
 Alpha  occ. eigenvalues --   -0.55329  -0.55319  -0.54634  -0.54559  -0.54442
 Alpha  occ. eigenvalues --   -0.53972  -0.53894  -0.53858  -0.53655  -0.53581
 Alpha  occ. eigenvalues --   -0.53360  -0.53091  -0.52857  -0.52556  -0.52354
 Alpha  occ. eigenvalues --   -0.52130  -0.52039  -0.51785  -0.51665  -0.51534
 Alpha  occ. eigenvalues --   -0.51416  -0.51266  -0.50985  -0.50849  -0.50793
 Alpha  occ. eigenvalues --   -0.50654  -0.50521  -0.50098  -0.49945  -0.49663
 Alpha  occ. eigenvalues --   -0.49235  -0.49080  -0.48847  -0.48605  -0.48434
 Alpha  occ. eigenvalues --   -0.48197  -0.48006  -0.47923  -0.47691  -0.47528
 Alpha  occ. eigenvalues --   -0.47393  -0.47277  -0.47017  -0.46816  -0.46561
 Alpha  occ. eigenvalues --   -0.46498  -0.46281  -0.46166  -0.45907  -0.45787
 Alpha  occ. eigenvalues --   -0.45498  -0.45350  -0.45125  -0.45032  -0.44818
 Alpha  occ. eigenvalues --   -0.44721  -0.44588  -0.44458  -0.44429  -0.44144
 Alpha  occ. eigenvalues --   -0.43816  -0.43711  -0.43609  -0.43275  -0.43118
 Alpha  occ. eigenvalues --   -0.43031  -0.42812  -0.42562  -0.42303  -0.42136
 Alpha  occ. eigenvalues --   -0.41670  -0.41260  -0.41141  -0.40789  -0.40273
 Alpha  occ. eigenvalues --   -0.40148  -0.39972  -0.39723  -0.39402  -0.39231
 Alpha  occ. eigenvalues --   -0.39191  -0.38808  -0.38642  -0.38571  -0.38316
 Alpha  occ. eigenvalues --   -0.37609  -0.37300  -0.37111  -0.36795  -0.36059
 Alpha  occ. eigenvalues --   -0.35647  -0.35589  -0.35316  -0.33723  -0.32979
 Alpha  occ. eigenvalues --   -0.32895  -0.32223  -0.31292  -0.30855  -0.25442
 Alpha  occ. eigenvalues --   -0.22546
 Alpha virt. eigenvalues --   -0.06712   0.00175   0.02053   0.04044   0.06092
 Alpha virt. eigenvalues --    0.06385   0.06883   0.07390   0.08251   0.09462
 Alpha virt. eigenvalues --    0.09927   0.11288   0.11755   0.12367   0.12771

 Mulliken charges:
               1
     1  Mg   0.957807
     2  C   -0.096284
     3  C   -0.108381
     4  C   -0.043660
     5  C   -0.088858
     6  N   -0.365602
     7  C   -0.006267
     8  C   -0.025683
     9  C   -0.155275
    10  C    0.067974
    11  C    0.027587
    12  C    0.053039
    13  C   -0.044150
    14  C    0.222091
    15  O   -0.268556
    16  O   -0.368670
    17  N   -0.424422
    18  C    0.157395
    19  C   -0.183229
    20  C   -0.070751
    21  C    0.079854
    22  C    0.042443
    23  C    0.080723
    24  O   -0.246537
    25  C   -0.020447
    26  N   -0.348575
    27  C    0.070024
    28  C   -0.162792
    29  C   -0.013917
    30  C   -0.003522
    31  C    0.046542
    32  C    0.015731
    33  C   -0.057327
    34  N   -0.413286
    35  C    0.163841
    36  C   -0.185260
    37  C    0.001190
    38  C    0.186117
    39  C    0.077909
    40  C    0.075462
    41  O   -0.197567
    42  C   -0.058892
    43  C    0.271764
    44  O   -0.218049
    45  O   -0.375231
    46  C    0.126580
    47  C    0.255945
    48  C   -0.130305
    49  C   -0.242517
    50  C    0.044034
    51  C    0.041736
    52  C   -0.054841
    53  C    0.028705
    54  C   -0.180623
    55  C   -0.026428
    56  C    0.020281
    57  C   -0.045725
    58  C    0.032063
    59  C   -0.216161
    60  C    0.010645
    61  C    0.007210
    62  C   -0.017195
    63  C    0.019108
    64  C   -0.209853
    65  C   -0.015316
    66  C   -0.032107
    67  H   -0.002507
    68  H    0.029631
    69  H   -0.006329
    70  H    0.050815
    71  H    0.039556
    72  H    0.047964
    73  H    0.039812
    74  H    0.048363
    75  H    0.050466
    76  H    0.047887
    77  H    0.074851
    78  H    0.031917
    79  H    0.047715
    80  H    0.049472
    81  H    0.053956
    82  H    0.064407
    83  H    0.042986
    84  H    0.067886
    85  H    0.043477
    86  H    0.015447
    87  H    0.026462
    88  H    0.031633
    89  H    0.059879
    90  H    0.036721
    91  H    0.032368
    92  H    0.040037
    93  H    0.033908
    94  H    0.043079
    95  H    0.059726
    96  H    0.062729
    97  H    0.034342
    98  H    0.064446
    99  H    0.050420
   100  H    0.059610
   101  H    0.053784
   102  H    0.065917
   103  H    0.056343
   104  H    0.021479
   105  H    0.034300
   106  H    0.028799
   107  H    0.052363
   108  H    0.036921
   109  H    0.019773
   110  H    0.023323
   111  H    0.030018
   112  H    0.013568
   113  H    0.013622
   114  H    0.018410
   115  H    0.025056
   116  H    0.034773
   117  H    0.026443
   118  H    0.013533
   119  H    0.001228
   120  H    0.038588
   121  H    0.026166
   122  H    0.004832
   123  H    0.009713
   124  H    0.026631
   125  H    0.037909
   126  H    0.022818
   127  H    0.031420
   128  H    0.021995
   129  H    0.019350
   130  H    0.019348
   131  H    0.017173
   132  H    0.004570
   133  H    0.014798
   134  H    0.031972
   135  H    0.037595
   136  H    0.021710
   137  H    0.017634
   138  H    0.027247
   139  H    0.032483
   140  H    0.031724
 Sum of Mulliken charges =  -0.00000

 Dipole moment (field-independent basis, Debye):
    X=             -3.3456    Y=              1.3633    Z=             -3.2275  Tot=              4.8444
 Quadrupole moment (field-independent basis, Debye-Ang):
   XX=           -387.3367   YY=           -410.1067   ZZ=           -395.7626
   XY=              7.2082   XZ=             20.6231   YZ=              6.5908

 Normal termination of Gaussian 16 at Wed May  4 04:21:45 2022.
