 Gaussian 16, Revision A.03,
 Gaussian 16:  ES64L-G16RevA.03 25-Dec-2016

 --------------------
 #p ZINDO=(nstates=5)
 --------------------

 ------------------------------
 step_1351_chromophore_10 ZINDO
 ------------------------------
 Symbolic Z-matrix:
 Charge =  0 Multiplicity = 1

                         Standard orientation:
 ---------------------------------------------------------------------
 Center     Atomic      Atomic             Coordinates (Angstroms)
 Number     Number       Type             X           Y           Z
 ---------------------------------------------------------------------
      1         12           0        5.779285    0.494205    0.108234
      2          6           0        3.675899   -2.259132    0.523425
      3          6           0        3.526873    1.810847   -2.075477
      4          6           0        7.995964    3.018351   -0.510781
      5          6           0        8.071306   -1.046189    2.201726
      6          7           0        3.922236   -0.246185   -0.801234
      7          6           0        3.121185   -1.295558   -0.363270
      8          6           0        1.753023   -1.355253   -1.053666
      9          6           0        1.879115   -0.084830   -2.040537
     10          6           0        3.204162    0.514877   -1.665672
     11          6           0        1.870895   -0.406983   -3.569530
     12          6           0        0.573710   -1.220022   -0.008226
     13          6           0       -0.443395   -2.416627    0.033904
     14          6           0       -1.952726   -2.116884    0.048786
     15          8           0       -2.544196   -1.551280    0.964819
     16          8           0       -2.586442   -2.884859   -0.880394
     17          7           0        5.747130    2.228588   -1.078818
     18          6           0        4.756801    2.577355   -1.864900
     19          6           0        5.069405    3.908193   -2.432633
     20          6           0        6.311411    4.335532   -1.888385
     21          6           0        6.772906    3.161573   -1.193491
     22          6           0        4.116042    4.639242   -3.462378
     23          6           0        7.074140    5.684712   -2.004422
     24          8           0        8.197274    5.908445   -1.514243
     25          6           0        6.500584    6.746292   -2.864853
     26          7           0        7.742587    0.961053    0.863721
     27          6           0        8.507407    1.978380    0.298894
     28          6           0        9.831344    2.107896    1.099280
     29          6           0        9.696414    0.971031    2.166830
     30          6           0        8.423543    0.257773    1.753006
     31          6           0       11.014559    1.978646    0.154830
     32          6           0        9.699877    1.434420    3.626656
     33          6           0        8.445165    2.069637    4.188632
     34          7           0        5.975606   -1.336582    1.087257
     35          6           0        6.965923   -1.824202    1.839003
     36          6           0        6.598814   -3.178600    2.293731
     37          6           0        5.219735   -3.322845    1.905684
     38          6           0        4.963279   -2.250813    1.091714
     39          6           0        7.471149   -4.089290    3.006470
     40          6           0        4.113363   -4.190886    1.904475
     41          8           0        4.047816   -5.158205    2.639083
     42          6           0        3.020638   -3.529189    0.982529
     43          6           0        2.844392   -4.337918   -0.260072
     44          8           0        3.666772   -4.380801   -1.140857
     45          8           0        1.662102   -5.060329   -0.239504
     46          6           0        1.150755   -5.704874   -1.450491
     47          6           0       -4.025908   -3.265577   -0.740211
     48          6           0       -4.912158   -2.459589   -1.688097
     49          6           0       -6.204684   -2.839608   -2.066505
     50          6           0       -6.976699   -3.954140   -1.437856
     51          6           0       -6.939016   -2.034448   -3.067564
     52          6           0       -8.091374   -1.168896   -2.403004
     53          6           0       -9.457986   -1.311211   -3.111044
     54          6           0      -10.765164   -1.230893   -2.220279
     55          6           0      -11.708296   -2.457413   -2.554124
     56          6           0      -11.656624    0.060409   -2.305638
     57          6           0      -11.928270    0.665994   -0.902529
     58          6           0      -10.928685    1.915606   -0.613593
     59          6           0      -11.567883    3.011120    0.268218
     60          6           0      -11.578222    4.415202   -0.505236
     61          6           0      -10.737625    3.180201    1.573711
     62          6           0      -11.603466    3.878442    2.608779
     63          6           0      -11.624422    3.171638    3.976508
     64          6           0      -13.059642    2.671617    4.357417
     65          6           0      -13.707913    3.272972    5.664526
     66          6           0      -13.113283    1.028404    4.447833
     67          1           0        2.660233    2.281023   -2.544139
     68          1           0        8.718944    3.752492   -0.874163
     69          1           0        8.806641   -1.463306    2.893163
     70          1           0        1.721517   -2.202636   -1.737109
     71          1           0        1.163998    0.720690   -1.872037
     72          1           0        2.721313    0.097058   -4.028774
     73          1           0        0.937215    0.073978   -3.862095
     74          1           0        1.898850   -1.463465   -3.834590
     75          1           0        0.006512   -0.297134   -0.135796
     76          1           0        0.957341   -1.167190    1.010874
     77          1           0       -0.274361   -3.088691    0.875233
     78          1           0       -0.267170   -3.133842   -0.767136
     79          1           0        3.949604    3.752841   -4.075508
     80          1           0        4.415158    5.458662   -4.115858
     81          1           0        3.187644    4.871542   -2.939560
     82          1           0        6.488660    6.445916   -3.912727
     83          1           0        7.226305    7.559164   -2.914853
     84          1           0        5.566713    7.166587   -2.492159
     85          1           0        9.794496    3.111397    1.524253
     86          1           0       10.478523    0.277006    1.859928
     87          1           0       10.784932    1.220427   -0.593779
     88          1           0       11.872481    1.497515    0.623468
     89          1           0       11.107791    2.976379   -0.273044
     90          1           0       10.502114    2.168592    3.702293
     91          1           0        9.915207    0.556963    4.237515
     92          1           0        7.656543    2.156838    3.440270
     93          1           0        8.689036    3.093975    4.471085
     94          1           0        7.982284    1.579462    5.044537
     95          1           0        7.246821   -5.120257    2.734220
     96          1           0        7.327348   -3.882277    4.067525
     97          1           0        8.522353   -3.974052    2.742106
     98          1           0        2.103035   -3.348829    1.541286
     99          1           0        0.805100   -6.715418   -1.232235
    100          1           0        1.962458   -5.788358   -2.173721
    101          1           0        0.274965   -5.339550   -1.985637
    102          1           0       -4.443496   -3.065994    0.246013
    103          1           0       -4.178371   -4.330206   -0.920393
    104          1           0       -4.510454   -1.594653   -2.215848
    105          1           0       -6.500944   -4.698226   -0.798419
    106          1           0       -7.285461   -4.549452   -2.296768
    107          1           0       -7.852841   -3.505145   -0.969597
    108          1           0       -7.237346   -2.695857   -3.880615
    109          1           0       -6.287729   -1.270680   -3.494699
    110          1           0       -7.785013   -0.125576   -2.476669
    111          1           0       -8.084238   -1.267915   -1.317320
    112          1           0       -9.513804   -2.183319   -3.762120
    113          1           0       -9.487466   -0.467191   -3.800200
    114          1           0      -10.443816   -1.349262   -1.185177
    115          1           0      -12.119539   -2.277272   -3.548020
    116          1           0      -12.538450   -2.578272   -1.857954
    117          1           0      -11.129615   -3.377477   -2.632937
    118          1           0      -12.523640   -0.122356   -2.941251
    119          1           0      -11.134495    0.779530   -2.935634
    120          1           0      -11.922727   -0.038615   -0.070175
    121          1           0      -12.947978    1.021189   -1.044694
    122          1           0      -10.517102    2.318045   -1.538901
    123          1           0      -10.036335    1.553772   -0.103197
    124          1           0      -12.561589    2.618366    0.483721
    125          1           0      -12.604402    4.722916   -0.707316
    126          1           0      -11.068766    4.317718   -1.463874
    127          1           0      -11.002493    5.144132    0.064283
    128          1           0       -9.844351    3.777324    1.390129
    129          1           0      -10.391217    2.215217    1.943853
    130          1           0      -12.633886    4.007058    2.280021
    131          1           0      -11.246164    4.880165    2.845680
    132          1           0      -11.329006    3.846708    4.779515
    133          1           0      -10.805290    2.453924    4.027484
    134          1           0      -13.817338    3.063961    3.678797
    135          1           0      -13.097258    3.903647    6.310105
    136          1           0      -14.181643    2.472933    6.232547
    137          1           0      -14.560178    3.857956    5.319571
    138          1           0      -12.213787    0.529544    4.088170
    139          1           0      -13.977456    0.736483    3.851498
    140          1           0      -13.243867    0.594081    5.438407
 ---------------------------------------------------------------------

 SCF Done:  E(RZINDO/S) =  -474.094677643     A.U. after   20 cycles

 Excitation energies and oscillator strengths:

 Excited State   1:      Singlet-A      1.2352 eV 1003.77 nm  f=0.5900  <S**2>=0.000
     175 ->178        -0.19711
     176 ->177         0.65770
 This state for optimization and/or second-order correction.
 Total Energy, E(CIS/TDA) =  -474.049285520
 Copying the excited state density for this state as the 1-particle RhoCI density.

 Excited State   2:      Singlet-A      1.8686 eV  663.50 nm  f=0.0394  <S**2>=0.000
     175 ->177         0.54091
     176 ->178         0.42514

 Excited State   3:      Singlet-A      2.8831 eV  430.04 nm  f=0.0005  <S**2>=0.000
     169 ->179         0.12717
     176 ->179         0.61603

 Excited State   4:      Singlet-A      2.9325 eV  422.80 nm  f=0.6976  <S**2>=0.000
     169 ->177        -0.14623
     169 ->179         0.18075
     169 ->181        -0.10675
     170 ->177        -0.10236
     170 ->179         0.13246
     175 ->177        -0.31347
     176 ->178         0.40200
     176 ->179        -0.20400
     176 ->181        -0.13497

 Excited State   5:      Singlet-A      2.9550 eV  419.58 nm  f=0.4406  <S**2>=0.000
     169 ->177         0.23156
     169 ->178        -0.12030
     169 ->179        -0.26518
     169 ->181         0.14770
     169 ->186        -0.12928
     170 ->177         0.10408
     170 ->179        -0.11653
     175 ->177        -0.25018
     176 ->178         0.34537
     176 ->179         0.17390

 The electronic state is 1-A.
 Alpha  occ. eigenvalues --   -1.86083  -1.81415  -1.80316  -1.72177  -1.71883
 Alpha  occ. eigenvalues --   -1.70405  -1.63011  -1.60275  -1.59388  -1.57557
 Alpha  occ. eigenvalues --   -1.53672  -1.51557  -1.49265  -1.47067  -1.45556
 Alpha  occ. eigenvalues --   -1.44094  -1.42677  -1.40509  -1.38364  -1.37328
 Alpha  occ. eigenvalues --   -1.35878  -1.34709  -1.32426  -1.30893  -1.28853
 Alpha  occ. eigenvalues --   -1.26431  -1.24654  -1.21782  -1.20904  -1.18651
 Alpha  occ. eigenvalues --   -1.17021  -1.15845  -1.15166  -1.14104  -1.12939
 Alpha  occ. eigenvalues --   -1.12469  -1.10866  -1.09947  -1.06188  -1.03304
 Alpha  occ. eigenvalues --   -1.02499  -1.00905  -0.99070  -0.97892  -0.96771
 Alpha  occ. eigenvalues --   -0.96082  -0.94176  -0.93456  -0.92793  -0.92317
 Alpha  occ. eigenvalues --   -0.91363  -0.90710  -0.90166  -0.87778  -0.87040
 Alpha  occ. eigenvalues --   -0.85696  -0.84423  -0.83100  -0.80845  -0.80248
 Alpha  occ. eigenvalues --   -0.80071  -0.79187  -0.77551  -0.76455  -0.76327
 Alpha  occ. eigenvalues --   -0.74898  -0.74735  -0.74581  -0.74317  -0.73467
 Alpha  occ. eigenvalues --   -0.73164  -0.72977  -0.71704  -0.71434  -0.70360
 Alpha  occ. eigenvalues --   -0.69753  -0.69448  -0.68585  -0.68253  -0.67598
 Alpha  occ. eigenvalues --   -0.66973  -0.66201  -0.66006  -0.65729  -0.65316
 Alpha  occ. eigenvalues --   -0.65217  -0.64655  -0.64316  -0.64256  -0.63848
 Alpha  occ. eigenvalues --   -0.63084  -0.62765  -0.62328  -0.62080  -0.61967
 Alpha  occ. eigenvalues --   -0.61890  -0.61348  -0.61051  -0.60660  -0.60178
 Alpha  occ. eigenvalues --   -0.60065  -0.59727  -0.58974  -0.58800  -0.58656
 Alpha  occ. eigenvalues --   -0.58580  -0.57909  -0.57451  -0.57393  -0.56861
 Alpha  occ. eigenvalues --   -0.55792  -0.55759  -0.55492  -0.55098  -0.54903
 Alpha  occ. eigenvalues --   -0.53986  -0.53819  -0.53473  -0.53286  -0.53069
 Alpha  occ. eigenvalues --   -0.52945  -0.52657  -0.51994  -0.51631  -0.51410
 Alpha  occ. eigenvalues --   -0.51072  -0.50842  -0.50272  -0.50074  -0.49698
 Alpha  occ. eigenvalues --   -0.49674  -0.49511  -0.49357  -0.49320  -0.49003
 Alpha  occ. eigenvalues --   -0.48927  -0.48784  -0.48458  -0.48151  -0.47960
 Alpha  occ. eigenvalues --   -0.47482  -0.47129  -0.47077  -0.46778  -0.46539
 Alpha  occ. eigenvalues --   -0.46306  -0.46058  -0.45575  -0.45556  -0.45422
 Alpha  occ. eigenvalues --   -0.45131  -0.44584  -0.44461  -0.44282  -0.43764
 Alpha  occ. eigenvalues --   -0.43549  -0.43232  -0.43191  -0.42523  -0.42430
 Alpha  occ. eigenvalues --   -0.41959  -0.41623  -0.41461  -0.39267  -0.39132
 Alpha  occ. eigenvalues --   -0.38112  -0.36698  -0.35527  -0.34967  -0.34603
 Alpha  occ. eigenvalues --   -0.32705  -0.31992  -0.31609  -0.30965  -0.26041
 Alpha  occ. eigenvalues --   -0.21302
 Alpha virt. eigenvalues --   -0.08135  -0.02020  -0.00765   0.00950   0.01240
 Alpha virt. eigenvalues --    0.02290   0.02823   0.03357   0.04272   0.04681
 Alpha virt. eigenvalues --    0.06277   0.06827   0.07355   0.07594   0.07724

 Mulliken charges:
               1
     1  Mg   0.423958
     2  C   -0.052565
     3  C   -0.112592
     4  C   -0.043113
     5  C   -0.072611
     6  N   -0.296789
     7  C    0.126082
     8  C    0.004837
     9  C   -0.007522
    10  C    0.140827
    11  C   -0.052776
    12  C   -0.018331
    13  C   -0.000187
    14  C    0.468407
    15  O   -0.514783
    16  O   -0.277941
    17  N   -0.298613
    18  C    0.120971
    19  C   -0.016813
    20  C   -0.043546
    21  C    0.103543
    22  C   -0.059990
    23  C    0.336553
    24  O   -0.522477
    25  C   -0.029817
    26  N   -0.260200
    27  C    0.083792
    28  C   -0.000390
    29  C    0.006119
    30  C    0.145070
    31  C   -0.052702
    32  C   -0.013801
    33  C   -0.052373
    34  N   -0.327672
    35  C    0.112010
    36  C    0.057622
    37  C   -0.054705
    38  C    0.128164
    39  C   -0.029022
    40  C    0.338370
    41  O   -0.523366
    42  C    0.059221
    43  C    0.496790
    44  O   -0.517720
    45  O   -0.279426
    46  C    0.070490
    47  C    0.109067
    48  C   -0.112769
    49  C   -0.003653
    50  C   -0.043504
    51  C   -0.017354
    52  C   -0.031682
    53  C   -0.033987
    54  C   -0.020511
    55  C   -0.060674
    56  C   -0.035419
    57  C   -0.038346
    58  C   -0.045687
    59  C   -0.018680
    60  C   -0.061728
    61  C   -0.027109
    62  C   -0.036531
    63  C   -0.034899
    64  C   -0.020863
    65  C   -0.064460
    66  C   -0.066817
    67  H    0.022098
    68  H    0.043736
    69  H    0.021155
    70  H    0.050424
    71  H    0.033797
    72  H    0.028946
    73  H    0.018537
    74  H    0.030756
    75  H    0.034950
    76  H    0.027672
    77  H    0.047223
    78  H    0.028091
    79  H    0.023203
    80  H    0.037006
    81  H    0.028949
    82  H    0.040596
    83  H    0.026477
    84  H    0.041514
    85  H    0.033508
    86  H    0.028211
    87  H    0.017824
    88  H    0.021309
    89  H    0.035238
    90  H    0.019669
    91  H    0.016703
    92  H    0.022707
    93  H    0.015747
    94  H    0.023048
    95  H    0.036197
    96  H    0.043213
    97  H    0.022742
    98  H    0.055754
    99  H    0.032539
   100  H    0.045648
   101  H    0.042080
   102  H    0.056296
   103  H    0.044605
   104  H    0.038530
   105  H    0.026796
   106  H    0.019046
   107  H    0.035159
   108  H    0.031236
   109  H    0.016034
   110  H    0.013546
   111  H    0.028010
   112  H    0.022739
   113  H    0.013379
   114  H    0.018969
   115  H    0.015243
   116  H    0.020680
   117  H    0.012845
   118  H    0.021689
   119  H    0.012924
   120  H    0.032148
   121  H    0.014707
   122  H    0.022282
   123  H    0.014291
   124  H    0.029999
   125  H    0.021270
   126  H    0.018997
   127  H    0.024394
   128  H    0.021141
   129  H    0.019121
   130  H    0.022278
   131  H    0.013152
   132  H    0.009468
   133  H    0.024486
   134  H    0.029273
   135  H    0.027168
   136  H    0.017593
   137  H    0.010094
   138  H    0.019149
   139  H    0.015781
   140  H    0.022842
 Sum of Mulliken charges =  -0.00000

 Dipole moment (field-independent basis, Debye):
    X=             -4.6829    Y=              0.9601    Z=             -4.1109  Tot=              6.3048
 N-N= 4.226877963671D+03 E-N= 0.000000000000D+00  KE=-9.127994156421D+03
 Leave Link  601 at Wed May  4 04:32:15 2022, MaxMem=  6710886400 cpu:               0.8 elap:               0.0
 (Enter /sw/apps/gaussian-16.0/g16/l9999.exe)
 1\1\GINC-BP1-COMPUTE097\SP\RZINDO CIS\STO-3G\C55H74Mg1N4O6\OF15641\04-
 May-2022\0\\#p ZINDO=(nstates=5)\\step_1351_chromophore_10 ZINDO\\0,1\
 Mg,0,40.751,8.1,29.776\C,0,42.317,9.473,32.576\C,0,38.48,6.631,31.84\C
 ,0,39.431,6.524,27.048\C,0,43.236,9.496,27.805\N,0,40.558,7.927,31.957
 \C,0,41.168,8.713,32.929\C,0,40.589,8.513,34.335\C,0,39.459,7.405,34.0
 2\C,0,39.52,7.263,32.526\C,0,39.674,6.006,34.682\C,0,39.998,9.862,34.9
 12\C,0,40.627,10.362,36.262\C,0,39.696,10.831,37.394\O,0,38.971,11.821

 Normal termination of Gaussian 16 at Wed May  4 04:32:16 2022.
