 Gaussian 16, Revision A.03,
 Gaussian 16:  ES64L-G16RevA.03 25-Dec-2016

 ------------------------------
 #p blyp/Def2SVP td=(nstates=5)
 ------------------------------

 ---------------------------------------------------
 step_1501_chromophore_13 TDDFT with blyp functional
 ---------------------------------------------------
 Symbolic Z-matrix:
 Charge =  0 Multiplicity = 1

                         Standard orientation:
 ---------------------------------------------------------------------
 Center     Atomic      Atomic             Coordinates (Angstroms)
 Number     Number       Type             X           Y           Z
 ---------------------------------------------------------------------
      1         12           0       -5.611808    0.456823   -0.100562
      2          6           0       -3.497616   -2.490281    0.101697
      3          6           0       -2.973815    2.397665    0.633324
      4          6           0       -7.769580    2.893904    0.431682
      5          6           0       -8.274231   -1.756521   -0.710889
      6          7           0       -3.504274   -0.057239    0.403393
      7          6           0       -2.812119   -1.254704    0.290113
      8          6           0       -1.277814   -0.991787    0.227700
      9          6           0       -1.195209    0.520762    0.815120
     10          6           0       -2.658016    1.017229    0.585902
     11          6           0       -0.800513    0.913897    2.285695
     12          6           0       -0.617646   -1.173485   -1.158908
     13          6           0        0.378749   -2.392478   -1.236755
     14          6           0        1.782219   -2.105624   -1.745440
     15          8           0        2.149900   -2.278916   -2.938012
     16          8           0        2.578552   -1.801828   -0.677273
     17          7           0       -5.416254    2.342345    0.409513
     18          6           0       -4.222687    3.030432    0.544331
     19          6           0       -4.519816    4.413356    0.719637
     20          6           0       -5.923319    4.611398    0.703702
     21          6           0       -6.401480    3.231970    0.582151
     22          6           0       -3.304627    5.394750    1.034301
     23          6           0       -6.756882    5.886070    0.731725
     24          8           0       -8.016004    5.880645    0.777407
     25          6           0       -6.123208    7.237479    0.806619
     26          7           0       -7.706136    0.594844   -0.339352
     27          6           0       -8.349038    1.684387    0.072879
     28          6           0       -9.908866    1.495496    0.024154
     29          6           0      -10.000308    0.157560   -0.819034
     30          6           0       -8.576880   -0.384515   -0.667341
     31          6           0      -10.629654    1.499149    1.363453
     32          6           0      -10.392766    0.339877   -2.317829
     33          6           0       -9.421198    1.174636   -3.178308
     34          7           0       -5.922896   -1.708422   -0.249698
     35          6           0       -7.065728   -2.412207   -0.576387
     36          6           0       -6.758090   -3.893252   -0.562709
     37          6           0       -5.359441   -3.957730   -0.336629
     38          6           0       -4.887172   -2.598871   -0.125299
     39          6           0       -7.800748   -4.942093   -0.750823
     40          6           0       -4.180068   -4.785613   -0.194781
     41          8           0       -4.134956   -5.981407   -0.426728
     42          6           0       -2.976940   -3.886303    0.078677
     43          6           0       -2.393722   -4.201021    1.355692
     44          8           0       -2.826928   -3.741361    2.444621
     45          8           0       -1.250247   -4.962219    1.233746
     46          6           0       -0.588836   -5.351200    2.457924
     47          6           0        3.987821   -1.833801   -1.070648
     48          6           0        4.760494   -0.864365   -0.269106
     49          6           0        6.110541   -0.878414    0.022979
     50          6           0        7.107470   -1.895841   -0.393478
     51          6           0        6.703721    0.104128    1.005464
     52          6           0        7.063421    1.415188    0.326365
     53          6           0        8.462110    1.943505    0.596711
     54          6           0        9.148936    2.760102   -0.510559
     55          6           0        8.637853    4.225105   -0.753177
     56          6           0        9.288472    2.096928   -1.892728
     57          6           0       10.687035    2.251462   -2.565577
     58          6           0       11.555647    0.914847   -2.627656
     59          6           0       12.813179    0.988671   -1.713962
     60          6           0       14.066215    1.607426   -2.328973
     61          6           0       12.995904   -0.372559   -0.987918
     62          6           0       13.467058   -0.169354    0.484840
     63          6           0       12.350667    0.123416    1.481066
     64          6           0       12.067983   -0.956945    2.524840
     65          6           0       10.596688   -1.415176    2.381313
     66          6           0       12.319763   -0.419972    3.963451
     67          1           0       -2.162093    3.110689    0.789937
     68          1           0       -8.614711    3.572300    0.565825
     69          1           0       -9.036213   -2.503478   -0.940757
     70          1           0       -0.789829   -1.694151    0.902729
     71          1           0       -0.484626    1.115506    0.240636
     72          1           0       -1.580240    1.524744    2.742287
     73          1           0        0.094096    1.535279    2.258683
     74          1           0       -0.568246    0.096851    2.970004
     75          1           0       -0.092953   -0.322562   -1.591958
     76          1           0       -1.439072   -1.373668   -1.847036
     77          1           0       -0.084591   -3.036448   -1.984807
     78          1           0        0.442192   -2.963231   -0.310429
     79          1           0       -2.824953    5.853020    0.168691
     80          1           0       -2.583682    4.856356    1.648497
     81          1           0       -3.722888    6.167553    1.678291
     82          1           0       -5.149178    7.203704    0.319492
     83          1           0       -6.058345    7.595520    1.834209
     84          1           0       -6.778102    7.912090    0.255479
     85          1           0      -10.272556    2.313691   -0.596652
     86          1           0      -10.707911   -0.519461   -0.340104
     87          1           0      -10.031623    2.144619    2.005584
     88          1           0      -10.738535    0.471329    1.709321
     89          1           0      -11.574518    2.018023    1.199576
     90          1           0      -11.399161    0.758106   -2.353901
     91          1           0      -10.562307   -0.589859   -2.860101
     92          1           0       -9.922614    2.031369   -3.628784
     93          1           0       -9.065544    0.637210   -4.057762
     94          1           0       -8.550821    1.602975   -2.679475
     95          1           0       -8.808237   -4.534665   -0.663108
     96          1           0       -7.687703   -5.814852   -0.107844
     97          1           0       -7.711479   -5.416657   -1.728061
     98          1           0       -2.218717   -3.941419   -0.702137
     99          1           0       -1.214479   -5.604371    3.313101
    100          1           0        0.026723   -4.523465    2.808462
    101          1           0        0.012845   -6.235490    2.245114
    102          1           0        4.277212   -1.465208   -2.054280
    103          1           0        4.469065   -2.797736   -0.904458
    104          1           0        4.146559   -0.086236    0.183641
    105          1           0        8.086628   -1.442125   -0.546637
    106          1           0        6.651709   -2.487386   -1.187532
    107          1           0        7.275821   -2.593792    0.425696
    108          1           0        7.579688   -0.310678    1.502444
    109          1           0        5.961064    0.354063    1.763175
    110          1           0        6.340848    2.200971    0.542688
    111          1           0        6.767317    1.368806   -0.721613
    112          1           0        9.156517    1.132440    0.812584
    113          1           0        8.494176    2.627988    1.444160
    114          1           0       10.150860    2.866725   -0.093850
    115          1           0        9.484141    4.911816   -0.758023
    116          1           0        7.986366    4.485336    0.081980
    117          1           0        8.089446    4.321415   -1.689322
    118          1           0        8.506119    2.437523   -2.572265
    119          1           0        9.263963    1.018496   -1.740890
    120          1           0       11.257265    3.042343   -2.079407
    121          1           0       10.575192    2.630636   -3.581599
    122          1           0       11.779356    0.895385   -3.693511
    123          1           0       10.920314    0.069680   -2.362983
    124          1           0       12.589163    1.707680   -0.925503
    125          1           0       14.018102    1.582586   -3.417845
    126          1           0       14.859810    0.918855   -2.040899
    127          1           0       14.155753    2.602752   -1.892755
    128          1           0       13.708836   -0.951406   -1.575125
    129          1           0       12.049716   -0.899312   -0.867216
    130          1           0       14.072916    0.733798    0.411036
    131          1           0       14.146645   -0.992683    0.707033
    132          1           0       11.492274    0.453095    0.895230
    133          1           0       12.740362    1.065614    1.866950
    134          1           0       12.617619   -1.880343    2.343841
    135          1           0       10.485530   -2.497222    2.445413
    136          1           0       10.100414   -1.065522    1.476134
    137          1           0       10.008498   -0.934032    3.162581
    138          1           0       12.943130    0.474421    3.967349
    139          1           0       12.859169   -1.171024    4.540055
    140          1           0       11.375102   -0.056870    4.368809
 ---------------------------------------------------------------------

 SCF Done:  E(RB-LYP) =  -3007.36937490     A.U. after   23 cycles

 Excitation energies and oscillator strengths:

 Excited State   1:      Singlet-A      1.7944 eV  690.94 nm  f=0.3001  <S**2>=0.000
     245 -> 248        0.17500
     245 -> 249       -0.10212
     246 -> 247        0.68358
     246 <- 247       -0.14463
 This state for optimization and/or second-order correction.
 Total Energy, E(TD-HF/TD-DFT) =  -3007.30343056
 Copying the excited state density for this state as the 1-particle RhoCI density.

 Excited State   2:      Singlet-A      1.9237 eV  644.51 nm  f=0.0198  <S**2>=0.000
     244 -> 247        0.64254
     245 -> 247       -0.26390

 Excited State   3:      Singlet-A      1.9731 eV  628.36 nm  f=0.0133  <S**2>=0.000
     243 -> 247        0.61134
     244 -> 247       -0.15936
     245 -> 247       -0.28384

 Excited State   4:      Singlet-A      1.9798 eV  626.26 nm  f=0.0391  <S**2>=0.000
     242 -> 247       -0.14418
     243 -> 247        0.35405
     244 -> 247        0.23160
     245 -> 247        0.50303
     246 -> 248       -0.17102
     246 -> 249        0.10230

 Excited State   5:      Singlet-A      2.0594 eV  602.03 nm  f=0.0067  <S**2>=0.000
     242 -> 247        0.68572
     245 -> 247        0.14167

 The electronic state is 1-A.
 Alpha  occ. eigenvalues --  -46.26917 -18.83986 -18.83071 -18.77298 -18.76715
 Alpha  occ. eigenvalues --  -18.75794 -18.75365 -14.03722 -14.02860 -14.01261
 Alpha  occ. eigenvalues --  -14.00742 -10.04777 -10.04270 -10.00195  -9.99910
 Alpha  occ. eigenvalues --   -9.97923  -9.97889  -9.97328  -9.96982  -9.96458
 Alpha  occ. eigenvalues --   -9.96017  -9.95653  -9.95576  -9.95334  -9.95098
 Alpha  occ. eigenvalues --   -9.94749  -9.94689  -9.94613  -9.94222  -9.94214
 Alpha  occ. eigenvalues --   -9.94150  -9.94024  -9.93733  -9.93687  -9.93496
 Alpha  occ. eigenvalues --   -9.93380  -9.93245  -9.93189  -9.92909  -9.92668
 Alpha  occ. eigenvalues --   -9.92601  -9.92515  -9.92510  -9.92463  -9.92391
 Alpha  occ. eigenvalues --   -9.92100  -9.92008  -9.91693  -9.91656  -9.91623
 Alpha  occ. eigenvalues --   -9.91520  -9.91512  -9.91501  -9.91421  -9.91391
 Alpha  occ. eigenvalues --   -9.91196  -9.91088  -9.91026  -9.91024  -9.91022
 Alpha  occ. eigenvalues --   -9.90993  -9.90992  -9.90893  -9.90844  -9.90809
 Alpha  occ. eigenvalues --   -9.90808  -2.91653  -1.72079  -1.71507  -1.71396
 Alpha  occ. eigenvalues --   -0.98626  -0.97795  -0.91835  -0.89699  -0.89290
 Alpha  occ. eigenvalues --   -0.89021  -0.87019  -0.86204  -0.85048  -0.84113
 Alpha  occ. eigenvalues --   -0.76478  -0.74032  -0.73236  -0.72579  -0.72104
 Alpha  occ. eigenvalues --   -0.72048  -0.71623  -0.71104  -0.70662  -0.70083
 Alpha  occ. eigenvalues --   -0.69605  -0.69295  -0.68476  -0.67937  -0.67273
 Alpha  occ. eigenvalues --   -0.66732  -0.66043  -0.65516  -0.65464  -0.64760
 Alpha  occ. eigenvalues --   -0.64249  -0.62867  -0.62491  -0.62062  -0.61169
 Alpha  occ. eigenvalues --   -0.60646  -0.60338  -0.59935  -0.59736  -0.58800
 Alpha  occ. eigenvalues --   -0.58222  -0.57583  -0.56733  -0.55931  -0.55234
 Alpha  occ. eigenvalues --   -0.54207  -0.53971  -0.53207  -0.52905  -0.51512
 Alpha  occ. eigenvalues --   -0.51332  -0.51000  -0.50940  -0.50771  -0.50261
 Alpha  occ. eigenvalues --   -0.50098  -0.48727  -0.48648  -0.47577  -0.46889
 Alpha  occ. eigenvalues --   -0.46634  -0.46364  -0.45866  -0.45517  -0.44964
 Alpha  occ. eigenvalues --   -0.43996  -0.43765  -0.43223  -0.42964  -0.42529
 Alpha  occ. eigenvalues --   -0.42364  -0.42019  -0.41837  -0.41590  -0.41435
 Alpha  occ. eigenvalues --   -0.41305  -0.41023  -0.40499  -0.40391  -0.40265
 Alpha  occ. eigenvalues --   -0.40098  -0.39911  -0.39436  -0.39369  -0.39293
 Alpha  occ. eigenvalues --   -0.39056  -0.38482  -0.38371  -0.38298  -0.37953
 Alpha  occ. eigenvalues --   -0.37845  -0.37704  -0.37635  -0.37403  -0.37248
 Alpha  occ. eigenvalues --   -0.37040  -0.37003  -0.36962  -0.36901  -0.36444
 Alpha  occ. eigenvalues --   -0.36368  -0.36066  -0.35975  -0.35926  -0.35727
 Alpha  occ. eigenvalues --   -0.35641  -0.35418  -0.35335  -0.34977  -0.34693
 Alpha  occ. eigenvalues --   -0.34497  -0.34486  -0.34247  -0.34155  -0.34020
 Alpha  occ. eigenvalues --   -0.33769  -0.33485  -0.33320  -0.33261  -0.33032
 Alpha  occ. eigenvalues --   -0.32963  -0.32918  -0.32724  -0.32483  -0.32335
 Alpha  occ. eigenvalues --   -0.32202  -0.31958  -0.31832  -0.31749  -0.31534
 Alpha  occ. eigenvalues --   -0.31491  -0.31301  -0.31126  -0.30930  -0.30887
 Alpha  occ. eigenvalues --   -0.30365  -0.30302  -0.30139  -0.29985  -0.29827
 Alpha  occ. eigenvalues --   -0.29756  -0.29615  -0.29475  -0.29345  -0.29101
 Alpha  occ. eigenvalues --   -0.29043  -0.28602  -0.28375  -0.28161  -0.27989
 Alpha  occ. eigenvalues --   -0.27579  -0.27558  -0.27467  -0.26553  -0.26442
 Alpha  occ. eigenvalues --   -0.26404  -0.26015  -0.25637  -0.25483  -0.25417
 Alpha  occ. eigenvalues --   -0.25324  -0.24947  -0.24234  -0.24009  -0.23806
 Alpha  occ. eigenvalues --   -0.23388  -0.22134  -0.22037  -0.21833  -0.21256
 Alpha  occ. eigenvalues --   -0.20396  -0.18995  -0.18824  -0.18557  -0.17290
 Alpha  occ. eigenvalues --   -0.15859
 Alpha virt. eigenvalues --   -0.11568  -0.07178  -0.06823  -0.05280  -0.04454
 Alpha virt. eigenvalues --   -0.03515  -0.02343  -0.01959  -0.01319   0.00286
 Alpha virt. eigenvalues --    0.00674   0.01284   0.01533   0.02083   0.02628

 Mulliken charges:
               1
     1  Mg   0.703743
     2  C    0.008687
     3  C   -0.052514
     4  C   -0.038152
     5  C   -0.050127
     6  N   -0.217302
     7  C   -0.083071
     8  C    0.044414
     9  C   -0.018020
    10  C    0.051513
    11  C    0.112592
    12  C    0.133617
    13  C    0.106431
    14  C    0.084548
    15  O   -0.215075
    16  O   -0.257192
    17  N   -0.325437
    18  C    0.132189
    19  C   -0.145213
    20  C    0.056813
    21  C    0.129054
    22  C    0.137501
    23  C   -0.070181
    24  O   -0.200292
    25  C    0.140879
    26  N   -0.194644
    27  C   -0.048141
    28  C   -0.011370
    29  C    0.038987
    30  C    0.056819
    31  C    0.175957
    32  C    0.102126
    33  C    0.044443
    34  N   -0.234411
    35  C    0.059810
    36  C   -0.153677
    37  C    0.123932
    38  C    0.038572
    39  C    0.165743
    40  C   -0.076457
    41  O   -0.125046
    42  C    0.146703
    43  C    0.112122
    44  O   -0.216453
    45  O   -0.259819
    46  C    0.224863
    47  C    0.326402
    48  C   -0.134378
    49  C   -0.171882
    50  C    0.155514
    51  C    0.149162
    52  C    0.084454
    53  C    0.107657
    54  C   -0.092609
    55  C    0.109210
    56  C    0.121983
    57  C    0.035748
    58  C    0.115999
    59  C   -0.121838
    60  C    0.153815
    61  C    0.093008
    62  C    0.034450
    63  C    0.117132
    64  C   -0.046146
    65  C    0.065455
    66  C    0.112338
    67  H   -0.065047
    68  H   -0.047927
    69  H   -0.074175
    70  H   -0.025378
    71  H   -0.028407
    72  H    0.001079
    73  H   -0.016564
    74  H   -0.001242
    75  H   -0.005934
    76  H   -0.014242
    77  H    0.001100
    78  H    0.007454
    79  H    0.015360
    80  H    0.003240
    81  H   -0.009719
    82  H   -0.014571
    83  H    0.026353
    84  H    0.001018
    85  H   -0.026340
    86  H   -0.047263
    87  H   -0.006963
    88  H    0.000795
    89  H   -0.006006
    90  H   -0.025339
    91  H   -0.026970
    92  H   -0.017157
    93  H   -0.013935
    94  H    0.012209
    95  H   -0.008978
    96  H    0.003352
    97  H    0.003160
    98  H   -0.004159
    99  H    0.016113
   100  H    0.004172
   101  H    0.017202
   102  H    0.025245
   103  H    0.004911
   104  H   -0.045524
   105  H    0.007959
   106  H   -0.015165
   107  H   -0.002955
   108  H   -0.030268
   109  H   -0.032441
   110  H   -0.049338
   111  H   -0.037059
   112  H   -0.036584
   113  H   -0.034802
   114  H   -0.043975
   115  H   -0.012209
   116  H   -0.026963
   117  H   -0.015374
   118  H   -0.022456
   119  H   -0.047116
   120  H   -0.037521
   121  H   -0.045949
   122  H   -0.033209
   123  H   -0.032399
   124  H   -0.037588
   125  H   -0.016836
   126  H   -0.022812
   127  H   -0.004916
   128  H   -0.037585
   129  H   -0.037873
   130  H   -0.049336
   131  H   -0.033054
   132  H   -0.027642
   133  H   -0.041922
   134  H   -0.025909
   135  H   -0.014084
   136  H   -0.007082
   137  H   -0.018916
   138  H   -0.022030
   139  H   -0.006062
   140  H   -0.014389
 Sum of Mulliken charges =  -0.00000

 Dipole moment (field-independent basis, Debye):
    X=              2.9771    Y=              2.4955    Z=              0.6009  Tot=              3.9309
 Quadrupole moment (field-independent basis, Debye-Ang):
   XX=           -376.3767   YY=           -422.7617   ZZ=           -414.9061
   XY=              5.0806   XZ=             24.5172   YZ=             -7.2873

 Normal termination of Gaussian 16 at Wed May  4 08:20:03 2022.
