 Gaussian 16, Revision A.03,
 Gaussian 16:  ES64L-G16RevA.03 25-Dec-2016

 -----------------------------------
 #p cam-b3lyp/Def2SVP td=(nstates=5)
 -----------------------------------

 --------------------------------------------------------
 step_1501_chromophore_13 TDDFT with cam-b3lyp functional
 --------------------------------------------------------
 Symbolic Z-matrix:
 Charge =  0 Multiplicity = 1

                         Standard orientation:
 ---------------------------------------------------------------------
 Center     Atomic      Atomic             Coordinates (Angstroms)
 Number     Number       Type             X           Y           Z
 ---------------------------------------------------------------------
      1         12           0       -5.611808    0.456823   -0.100562
      2          6           0       -3.497616   -2.490281    0.101697
      3          6           0       -2.973815    2.397665    0.633324
      4          6           0       -7.769580    2.893904    0.431682
      5          6           0       -8.274231   -1.756521   -0.710889
      6          7           0       -3.504274   -0.057239    0.403393
      7          6           0       -2.812119   -1.254704    0.290113
      8          6           0       -1.277814   -0.991787    0.227700
      9          6           0       -1.195209    0.520762    0.815120
     10          6           0       -2.658016    1.017229    0.585902
     11          6           0       -0.800513    0.913897    2.285695
     12          6           0       -0.617646   -1.173485   -1.158908
     13          6           0        0.378749   -2.392478   -1.236755
     14          6           0        1.782219   -2.105624   -1.745440
     15          8           0        2.149900   -2.278916   -2.938012
     16          8           0        2.578552   -1.801828   -0.677273
     17          7           0       -5.416254    2.342345    0.409513
     18          6           0       -4.222687    3.030432    0.544331
     19          6           0       -4.519816    4.413356    0.719637
     20          6           0       -5.923319    4.611398    0.703702
     21          6           0       -6.401480    3.231970    0.582151
     22          6           0       -3.304627    5.394750    1.034301
     23          6           0       -6.756882    5.886070    0.731725
     24          8           0       -8.016004    5.880645    0.777407
     25          6           0       -6.123208    7.237479    0.806619
     26          7           0       -7.706136    0.594844   -0.339352
     27          6           0       -8.349038    1.684387    0.072879
     28          6           0       -9.908866    1.495496    0.024154
     29          6           0      -10.000308    0.157560   -0.819034
     30          6           0       -8.576880   -0.384515   -0.667341
     31          6           0      -10.629654    1.499149    1.363453
     32          6           0      -10.392766    0.339877   -2.317829
     33          6           0       -9.421198    1.174636   -3.178308
     34          7           0       -5.922896   -1.708422   -0.249698
     35          6           0       -7.065728   -2.412207   -0.576387
     36          6           0       -6.758090   -3.893252   -0.562709
     37          6           0       -5.359441   -3.957730   -0.336629
     38          6           0       -4.887172   -2.598871   -0.125299
     39          6           0       -7.800748   -4.942093   -0.750823
     40          6           0       -4.180068   -4.785613   -0.194781
     41          8           0       -4.134956   -5.981407   -0.426728
     42          6           0       -2.976940   -3.886303    0.078677
     43          6           0       -2.393722   -4.201021    1.355692
     44          8           0       -2.826928   -3.741361    2.444621
     45          8           0       -1.250247   -4.962219    1.233746
     46          6           0       -0.588836   -5.351200    2.457924
     47          6           0        3.987821   -1.833801   -1.070648
     48          6           0        4.760494   -0.864365   -0.269106
     49          6           0        6.110541   -0.878414    0.022979
     50          6           0        7.107470   -1.895841   -0.393478
     51          6           0        6.703721    0.104128    1.005464
     52          6           0        7.063421    1.415188    0.326365
     53          6           0        8.462110    1.943505    0.596711
     54          6           0        9.148936    2.760102   -0.510559
     55          6           0        8.637853    4.225105   -0.753177
     56          6           0        9.288472    2.096928   -1.892728
     57          6           0       10.687035    2.251462   -2.565577
     58          6           0       11.555647    0.914847   -2.627656
     59          6           0       12.813179    0.988671   -1.713962
     60          6           0       14.066215    1.607426   -2.328973
     61          6           0       12.995904   -0.372559   -0.987918
     62          6           0       13.467058   -0.169354    0.484840
     63          6           0       12.350667    0.123416    1.481066
     64          6           0       12.067983   -0.956945    2.524840
     65          6           0       10.596688   -1.415176    2.381313
     66          6           0       12.319763   -0.419972    3.963451
     67          1           0       -2.162093    3.110689    0.789937
     68          1           0       -8.614711    3.572300    0.565825
     69          1           0       -9.036213   -2.503478   -0.940757
     70          1           0       -0.789829   -1.694151    0.902729
     71          1           0       -0.484626    1.115506    0.240636
     72          1           0       -1.580240    1.524744    2.742287
     73          1           0        0.094096    1.535279    2.258683
     74          1           0       -0.568246    0.096851    2.970004
     75          1           0       -0.092953   -0.322562   -1.591958
     76          1           0       -1.439072   -1.373668   -1.847036
     77          1           0       -0.084591   -3.036448   -1.984807
     78          1           0        0.442192   -2.963231   -0.310429
     79          1           0       -2.824953    5.853020    0.168691
     80          1           0       -2.583682    4.856356    1.648497
     81          1           0       -3.722888    6.167553    1.678291
     82          1           0       -5.149178    7.203704    0.319492
     83          1           0       -6.058345    7.595520    1.834209
     84          1           0       -6.778102    7.912090    0.255479
     85          1           0      -10.272556    2.313691   -0.596652
     86          1           0      -10.707911   -0.519461   -0.340104
     87          1           0      -10.031623    2.144619    2.005584
     88          1           0      -10.738535    0.471329    1.709321
     89          1           0      -11.574518    2.018023    1.199576
     90          1           0      -11.399161    0.758106   -2.353901
     91          1           0      -10.562307   -0.589859   -2.860101
     92          1           0       -9.922614    2.031369   -3.628784
     93          1           0       -9.065544    0.637210   -4.057762
     94          1           0       -8.550821    1.602975   -2.679475
     95          1           0       -8.808237   -4.534665   -0.663108
     96          1           0       -7.687703   -5.814852   -0.107844
     97          1           0       -7.711479   -5.416657   -1.728061
     98          1           0       -2.218717   -3.941419   -0.702137
     99          1           0       -1.214479   -5.604371    3.313101
    100          1           0        0.026723   -4.523465    2.808462
    101          1           0        0.012845   -6.235490    2.245114
    102          1           0        4.277212   -1.465208   -2.054280
    103          1           0        4.469065   -2.797736   -0.904458
    104          1           0        4.146559   -0.086236    0.183641
    105          1           0        8.086628   -1.442125   -0.546637
    106          1           0        6.651709   -2.487386   -1.187532
    107          1           0        7.275821   -2.593792    0.425696
    108          1           0        7.579688   -0.310678    1.502444
    109          1           0        5.961064    0.354063    1.763175
    110          1           0        6.340848    2.200971    0.542688
    111          1           0        6.767317    1.368806   -0.721613
    112          1           0        9.156517    1.132440    0.812584
    113          1           0        8.494176    2.627988    1.444160
    114          1           0       10.150860    2.866725   -0.093850
    115          1           0        9.484141    4.911816   -0.758023
    116          1           0        7.986366    4.485336    0.081980
    117          1           0        8.089446    4.321415   -1.689322
    118          1           0        8.506119    2.437523   -2.572265
    119          1           0        9.263963    1.018496   -1.740890
    120          1           0       11.257265    3.042343   -2.079407
    121          1           0       10.575192    2.630636   -3.581599
    122          1           0       11.779356    0.895385   -3.693511
    123          1           0       10.920314    0.069680   -2.362983
    124          1           0       12.589163    1.707680   -0.925503
    125          1           0       14.018102    1.582586   -3.417845
    126          1           0       14.859810    0.918855   -2.040899
    127          1           0       14.155753    2.602752   -1.892755
    128          1           0       13.708836   -0.951406   -1.575125
    129          1           0       12.049716   -0.899312   -0.867216
    130          1           0       14.072916    0.733798    0.411036
    131          1           0       14.146645   -0.992683    0.707033
    132          1           0       11.492274    0.453095    0.895230
    133          1           0       12.740362    1.065614    1.866950
    134          1           0       12.617619   -1.880343    2.343841
    135          1           0       10.485530   -2.497222    2.445413
    136          1           0       10.100414   -1.065522    1.476134
    137          1           0       10.008498   -0.934032    3.162581
    138          1           0       12.943130    0.474421    3.967349
    139          1           0       12.859169   -1.171024    4.540055
    140          1           0       11.375102   -0.056870    4.368809
 ---------------------------------------------------------------------

 SCF Done:  E(RCAM-B3LYP) =  -3007.15756426     A.U. after   18 cycles

 Excitation energies and oscillator strengths:

 Excited State   1:      Singlet-A      1.7043 eV  727.46 nm  f=0.3790  <S**2>=0.000
     245 -> 248       -0.19083
     246 -> 247        0.68289
     245 <- 248       -0.11030
 This state for optimization and/or second-order correction.
 Total Energy, E(TD-HF/TD-DFT) =  -3007.09493077
 Copying the excited state density for this state as the 1-particle RhoCI density.

 Excited State   2:      Singlet-A      2.2150 eV  559.75 nm  f=0.0875  <S**2>=0.000
     245 -> 247        0.62974
     246 -> 248        0.31178

 Excited State   3:      Singlet-A      3.4223 eV  362.28 nm  f=0.2874  <S**2>=0.000
     243 -> 247        0.46431
     245 -> 247        0.19597
     246 -> 248       -0.46584

 Excited State   4:      Singlet-A      3.4978 eV  354.46 nm  f=0.0729  <S**2>=0.000
     239 -> 247       -0.16154
     239 -> 250       -0.10367
     240 -> 249       -0.10667
     241 -> 247        0.39060
     241 -> 248       -0.10032
     241 -> 249        0.23937
     241 -> 250        0.20692
     243 -> 247        0.33068
     245 -> 247       -0.10013
     246 -> 248        0.15798

 Excited State   5:      Singlet-A      3.5022 eV  354.02 nm  f=0.1484  <S**2>=0.000
     239 -> 249        0.10652
     240 -> 247        0.28836
     240 -> 249       -0.12882
     240 -> 250        0.11855
     241 -> 247       -0.18801
     241 -> 249       -0.16904
     241 -> 250       -0.13254
     242 -> 247       -0.25345
     243 -> 247        0.32653
     245 -> 247       -0.14484
     246 -> 248        0.26131

 The electronic state is 1-A.
 Alpha  occ. eigenvalues --  -46.88383 -19.26940 -19.26171 -19.20288 -19.19978
 Alpha  occ. eigenvalues --  -19.19229 -19.18545 -14.42639 -14.41581 -14.39631
 Alpha  occ. eigenvalues --  -14.39185 -10.40161 -10.39953 -10.35436 -10.35374
 Alpha  occ. eigenvalues --  -10.31945 -10.31942 -10.31916 -10.31338 -10.30901
 Alpha  occ. eigenvalues --  -10.30287 -10.29961 -10.29925 -10.29420 -10.29394
 Alpha  occ. eigenvalues --  -10.29238 -10.29166 -10.28661 -10.28640 -10.28633
 Alpha  occ. eigenvalues --  -10.28336 -10.28176 -10.27711 -10.27624 -10.27443
 Alpha  occ. eigenvalues --  -10.27437 -10.27367 -10.27245 -10.26836 -10.26565
 Alpha  occ. eigenvalues --  -10.26528 -10.26450 -10.26205 -10.26112 -10.26079
 Alpha  occ. eigenvalues --  -10.26039 -10.25919 -10.25764 -10.25637 -10.25434
 Alpha  occ. eigenvalues --  -10.25392 -10.25272 -10.25166 -10.25114 -10.25016
 Alpha  occ. eigenvalues --  -10.24794 -10.24757 -10.24714 -10.24682 -10.24681
 Alpha  occ. eigenvalues --  -10.24681 -10.24673 -10.24544 -10.24516 -10.24514
 Alpha  occ. eigenvalues --  -10.24509  -3.17027  -1.91927  -1.91452  -1.91368
 Alpha  occ. eigenvalues --   -1.17054  -1.16420  -1.10467  -1.07988  -1.07177
 Alpha  occ. eigenvalues --   -1.07119  -1.04657  -1.03709  -1.02701  -1.01623
 Alpha  occ. eigenvalues --   -0.93780  -0.91000  -0.90079  -0.89333  -0.88807
 Alpha  occ. eigenvalues --   -0.88732  -0.88160  -0.87715  -0.87169  -0.86683
 Alpha  occ. eigenvalues --   -0.86167  -0.85623  -0.84780  -0.84156  -0.83410
 Alpha  occ. eigenvalues --   -0.82772  -0.82080  -0.81607  -0.81321  -0.80701
 Alpha  occ. eigenvalues --   -0.80083  -0.78599  -0.78125  -0.77574  -0.76600
 Alpha  occ. eigenvalues --   -0.76086  -0.75707  -0.75152  -0.75053  -0.74066
 Alpha  occ. eigenvalues --   -0.73254  -0.72589  -0.71563  -0.70783  -0.69837
 Alpha  occ. eigenvalues --   -0.68888  -0.68597  -0.67730  -0.67336  -0.65546
 Alpha  occ. eigenvalues --   -0.65305  -0.65186  -0.64937  -0.64775  -0.64267
 Alpha  occ. eigenvalues --   -0.64198  -0.62634  -0.62380  -0.61351  -0.60536
 Alpha  occ. eigenvalues --   -0.60230  -0.60022  -0.59512  -0.59186  -0.58269
 Alpha  occ. eigenvalues --   -0.57376  -0.57144  -0.56471  -0.56190  -0.55624
 Alpha  occ. eigenvalues --   -0.55347  -0.55192  -0.54987  -0.54658  -0.54633
 Alpha  occ. eigenvalues --   -0.54103  -0.53701  -0.53355  -0.53128  -0.52923
 Alpha  occ. eigenvalues --   -0.52809  -0.52683  -0.52207  -0.52068  -0.51818
 Alpha  occ. eigenvalues --   -0.51645  -0.50874  -0.50752  -0.50680  -0.50562
 Alpha  occ. eigenvalues --   -0.50255  -0.50160  -0.49961  -0.49542  -0.49509
 Alpha  occ. eigenvalues --   -0.49453  -0.49316  -0.49175  -0.49115  -0.48976
 Alpha  occ. eigenvalues --   -0.48597  -0.48488  -0.48322  -0.48104  -0.47920
 Alpha  occ. eigenvalues --   -0.47657  -0.47600  -0.47405  -0.46722  -0.46673
 Alpha  occ. eigenvalues --   -0.46480  -0.46292  -0.46090  -0.45900  -0.45824
 Alpha  occ. eigenvalues --   -0.45652  -0.45242  -0.45158  -0.45089  -0.44973
 Alpha  occ. eigenvalues --   -0.44594  -0.44550  -0.44473  -0.44281  -0.44013
 Alpha  occ. eigenvalues --   -0.43897  -0.43645  -0.43527  -0.43439  -0.43043
 Alpha  occ. eigenvalues --   -0.42974  -0.42926  -0.42617  -0.42504  -0.42312
 Alpha  occ. eigenvalues --   -0.42241  -0.41535  -0.41314  -0.41243  -0.41104
 Alpha  occ. eigenvalues --   -0.40950  -0.40925  -0.40753  -0.40478  -0.40236
 Alpha  occ. eigenvalues --   -0.40086  -0.39630  -0.39310  -0.39232  -0.38942
 Alpha  occ. eigenvalues --   -0.38535  -0.38400  -0.38322  -0.37842  -0.37627
 Alpha  occ. eigenvalues --   -0.37068  -0.36919  -0.36782  -0.36372  -0.36242
 Alpha  occ. eigenvalues --   -0.36146  -0.35584  -0.34766  -0.34588  -0.34416
 Alpha  occ. eigenvalues --   -0.34236  -0.34126  -0.33377  -0.31452  -0.31275
 Alpha  occ. eigenvalues --   -0.30895  -0.30488  -0.29688  -0.28435  -0.23999
 Alpha  occ. eigenvalues --   -0.21061
 Alpha virt. eigenvalues --   -0.08556  -0.02000  -0.00442   0.01572   0.02725
 Alpha virt. eigenvalues --    0.03223   0.04071   0.05362   0.05954   0.06525
 Alpha virt. eigenvalues --    0.06736   0.07869   0.08299   0.08552   0.08935

 Mulliken charges:
               1
     1  Mg   0.837339
     2  C   -0.020998
     3  C   -0.067814
     4  C   -0.056569
     5  C   -0.060880
     6  N   -0.285384
     7  C   -0.035488
     8  C   -0.005547
     9  C   -0.060719
    10  C    0.059695
    11  C    0.054914
    12  C    0.081108
    13  C    0.034728
    14  C    0.166608
    15  O   -0.257832
    16  O   -0.320149
    17  N   -0.416546
    18  C    0.135867
    19  C   -0.149835
    20  C   -0.019326
    21  C    0.156149
    22  C    0.085122
    23  C    0.009625
    24  O   -0.240869
    25  C    0.061430
    26  N   -0.267641
    27  C   -0.032962
    28  C   -0.063947
    29  C   -0.017285
    30  C    0.070335
    31  C    0.116981
    32  C    0.051214
    33  C   -0.021176
    34  N   -0.318643
    35  C    0.070622
    36  C   -0.149742
    37  C    0.049271
    38  C    0.074799
    39  C    0.114280
    40  C    0.021370
    41  O   -0.161037
    42  C    0.061597
    43  C    0.201892
    44  O   -0.250993
    45  O   -0.323136
    46  C    0.183057
    47  C    0.288875
    48  C   -0.150395
    49  C   -0.195683
    50  C    0.097006
    51  C    0.087397
    52  C    0.028309
    53  C    0.064556
    54  C   -0.144426
    55  C    0.051804
    56  C    0.064820
    57  C   -0.011192
    58  C    0.062584
    59  C   -0.175139
    60  C    0.094238
    61  C    0.041360
    62  C   -0.017742
    63  C    0.067222
    64  C   -0.112476
    65  C    0.020119
    66  C    0.054848
    67  H   -0.028689
    68  H   -0.007442
    69  H   -0.039684
    70  H    0.008680
    71  H    0.005979
    72  H    0.027173
    73  H    0.006918
    74  H    0.023367
    75  H    0.024778
    76  H    0.018372
    77  H    0.033625
    78  H    0.037588
    79  H    0.041332
    80  H    0.028329
    81  H    0.015956
    82  H    0.013784
    83  H    0.054417
    84  H    0.034402
    85  H    0.009026
    86  H   -0.009848
    87  H    0.018320
    88  H    0.023658
    89  H    0.018442
    90  H    0.003804
    91  H    0.002309
    92  H    0.007789
    93  H    0.011409
    94  H    0.033433
    95  H    0.014979
    96  H    0.031333
    97  H    0.030797
    98  H    0.039797
    99  H    0.041524
   100  H    0.026180
   101  H    0.040875
   102  H    0.056978
   103  H    0.030109
   104  H   -0.009660
   105  H    0.027049
   106  H    0.008732
   107  H    0.023312
   108  H   -0.002349
   109  H    0.000712
   110  H   -0.019373
   111  H   -0.005782
   112  H   -0.017536
   113  H   -0.005514
   114  H   -0.012271
   115  H    0.011880
   116  H   -0.002952
   117  H    0.007669
   118  H    0.005497
   119  H   -0.022353
   120  H   -0.011790
   121  H   -0.014689
   122  H   -0.004123
   123  H   -0.004585
   124  H   -0.009562
   125  H    0.007914
   126  H    0.001420
   127  H    0.018131
   128  H   -0.007643
   129  H   -0.010983
   130  H   -0.020285
   131  H   -0.003395
   132  H   -0.008765
   133  H   -0.011842
   134  H    0.006133
   135  H    0.010660
   136  H    0.005581
   137  H    0.002413
   138  H    0.002506
   139  H    0.017948
   140  H    0.008530
 Sum of Mulliken charges =  -0.00000

 Dipole moment (field-independent basis, Debye):
    X=              3.2084    Y=              2.7091    Z=              0.6640  Tot=              4.2513
 Quadrupole moment (field-independent basis, Debye-Ang):
   XX=           -376.1186   YY=           -417.8498   ZZ=           -415.5464
   XY=              5.3547   XZ=             25.7266   YZ=             -7.3720

 Normal termination of Gaussian 16 at Wed May  4 07:07:44 2022.
