 Gaussian 16, Revision A.03,
 Gaussian 16:  ES64L-G16RevA.03 25-Dec-2016

 ---------------------------------
 #p PBE1PBE/Def2SVP td=(nstates=5)
 ---------------------------------

 ------------------------------------------------------
 step_1501_chromophore_13 TDDFT with PBE1PBE functional
 ------------------------------------------------------
 Symbolic Z-matrix:
 Charge =  0 Multiplicity = 1

                         Standard orientation:
 ---------------------------------------------------------------------
 Center     Atomic      Atomic             Coordinates (Angstroms)
 Number     Number       Type             X           Y           Z
 ---------------------------------------------------------------------
      1         12           0       -5.611808    0.456823   -0.100562
      2          6           0       -3.497616   -2.490281    0.101697
      3          6           0       -2.973815    2.397665    0.633324
      4          6           0       -7.769580    2.893904    0.431682
      5          6           0       -8.274231   -1.756521   -0.710889
      6          7           0       -3.504274   -0.057239    0.403393
      7          6           0       -2.812119   -1.254704    0.290113
      8          6           0       -1.277814   -0.991787    0.227700
      9          6           0       -1.195209    0.520762    0.815120
     10          6           0       -2.658016    1.017229    0.585902
     11          6           0       -0.800513    0.913897    2.285695
     12          6           0       -0.617646   -1.173485   -1.158908
     13          6           0        0.378749   -2.392478   -1.236755
     14          6           0        1.782219   -2.105624   -1.745440
     15          8           0        2.149900   -2.278916   -2.938012
     16          8           0        2.578552   -1.801828   -0.677273
     17          7           0       -5.416254    2.342345    0.409513
     18          6           0       -4.222687    3.030432    0.544331
     19          6           0       -4.519816    4.413356    0.719637
     20          6           0       -5.923319    4.611398    0.703702
     21          6           0       -6.401480    3.231970    0.582151
     22          6           0       -3.304627    5.394750    1.034301
     23          6           0       -6.756882    5.886070    0.731725
     24          8           0       -8.016004    5.880645    0.777407
     25          6           0       -6.123208    7.237479    0.806619
     26          7           0       -7.706136    0.594844   -0.339352
     27          6           0       -8.349038    1.684387    0.072879
     28          6           0       -9.908866    1.495496    0.024154
     29          6           0      -10.000308    0.157560   -0.819034
     30          6           0       -8.576880   -0.384515   -0.667341
     31          6           0      -10.629654    1.499149    1.363453
     32          6           0      -10.392766    0.339877   -2.317829
     33          6           0       -9.421198    1.174636   -3.178308
     34          7           0       -5.922896   -1.708422   -0.249698
     35          6           0       -7.065728   -2.412207   -0.576387
     36          6           0       -6.758090   -3.893252   -0.562709
     37          6           0       -5.359441   -3.957730   -0.336629
     38          6           0       -4.887172   -2.598871   -0.125299
     39          6           0       -7.800748   -4.942093   -0.750823
     40          6           0       -4.180068   -4.785613   -0.194781
     41          8           0       -4.134956   -5.981407   -0.426728
     42          6           0       -2.976940   -3.886303    0.078677
     43          6           0       -2.393722   -4.201021    1.355692
     44          8           0       -2.826928   -3.741361    2.444621
     45          8           0       -1.250247   -4.962219    1.233746
     46          6           0       -0.588836   -5.351200    2.457924
     47          6           0        3.987821   -1.833801   -1.070648
     48          6           0        4.760494   -0.864365   -0.269106
     49          6           0        6.110541   -0.878414    0.022979
     50          6           0        7.107470   -1.895841   -0.393478
     51          6           0        6.703721    0.104128    1.005464
     52          6           0        7.063421    1.415188    0.326365
     53          6           0        8.462110    1.943505    0.596711
     54          6           0        9.148936    2.760102   -0.510559
     55          6           0        8.637853    4.225105   -0.753177
     56          6           0        9.288472    2.096928   -1.892728
     57          6           0       10.687035    2.251462   -2.565577
     58          6           0       11.555647    0.914847   -2.627656
     59          6           0       12.813179    0.988671   -1.713962
     60          6           0       14.066215    1.607426   -2.328973
     61          6           0       12.995904   -0.372559   -0.987918
     62          6           0       13.467058   -0.169354    0.484840
     63          6           0       12.350667    0.123416    1.481066
     64          6           0       12.067983   -0.956945    2.524840
     65          6           0       10.596688   -1.415176    2.381313
     66          6           0       12.319763   -0.419972    3.963451
     67          1           0       -2.162093    3.110689    0.789937
     68          1           0       -8.614711    3.572300    0.565825
     69          1           0       -9.036213   -2.503478   -0.940757
     70          1           0       -0.789829   -1.694151    0.902729
     71          1           0       -0.484626    1.115506    0.240636
     72          1           0       -1.580240    1.524744    2.742287
     73          1           0        0.094096    1.535279    2.258683
     74          1           0       -0.568246    0.096851    2.970004
     75          1           0       -0.092953   -0.322562   -1.591958
     76          1           0       -1.439072   -1.373668   -1.847036
     77          1           0       -0.084591   -3.036448   -1.984807
     78          1           0        0.442192   -2.963231   -0.310429
     79          1           0       -2.824953    5.853020    0.168691
     80          1           0       -2.583682    4.856356    1.648497
     81          1           0       -3.722888    6.167553    1.678291
     82          1           0       -5.149178    7.203704    0.319492
     83          1           0       -6.058345    7.595520    1.834209
     84          1           0       -6.778102    7.912090    0.255479
     85          1           0      -10.272556    2.313691   -0.596652
     86          1           0      -10.707911   -0.519461   -0.340104
     87          1           0      -10.031623    2.144619    2.005584
     88          1           0      -10.738535    0.471329    1.709321
     89          1           0      -11.574518    2.018023    1.199576
     90          1           0      -11.399161    0.758106   -2.353901
     91          1           0      -10.562307   -0.589859   -2.860101
     92          1           0       -9.922614    2.031369   -3.628784
     93          1           0       -9.065544    0.637210   -4.057762
     94          1           0       -8.550821    1.602975   -2.679475
     95          1           0       -8.808237   -4.534665   -0.663108
     96          1           0       -7.687703   -5.814852   -0.107844
     97          1           0       -7.711479   -5.416657   -1.728061
     98          1           0       -2.218717   -3.941419   -0.702137
     99          1           0       -1.214479   -5.604371    3.313101
    100          1           0        0.026723   -4.523465    2.808462
    101          1           0        0.012845   -6.235490    2.245114
    102          1           0        4.277212   -1.465208   -2.054280
    103          1           0        4.469065   -2.797736   -0.904458
    104          1           0        4.146559   -0.086236    0.183641
    105          1           0        8.086628   -1.442125   -0.546637
    106          1           0        6.651709   -2.487386   -1.187532
    107          1           0        7.275821   -2.593792    0.425696
    108          1           0        7.579688   -0.310678    1.502444
    109          1           0        5.961064    0.354063    1.763175
    110          1           0        6.340848    2.200971    0.542688
    111          1           0        6.767317    1.368806   -0.721613
    112          1           0        9.156517    1.132440    0.812584
    113          1           0        8.494176    2.627988    1.444160
    114          1           0       10.150860    2.866725   -0.093850
    115          1           0        9.484141    4.911816   -0.758023
    116          1           0        7.986366    4.485336    0.081980
    117          1           0        8.089446    4.321415   -1.689322
    118          1           0        8.506119    2.437523   -2.572265
    119          1           0        9.263963    1.018496   -1.740890
    120          1           0       11.257265    3.042343   -2.079407
    121          1           0       10.575192    2.630636   -3.581599
    122          1           0       11.779356    0.895385   -3.693511
    123          1           0       10.920314    0.069680   -2.362983
    124          1           0       12.589163    1.707680   -0.925503
    125          1           0       14.018102    1.582586   -3.417845
    126          1           0       14.859810    0.918855   -2.040899
    127          1           0       14.155753    2.602752   -1.892755
    128          1           0       13.708836   -0.951406   -1.575125
    129          1           0       12.049716   -0.899312   -0.867216
    130          1           0       14.072916    0.733798    0.411036
    131          1           0       14.146645   -0.992683    0.707033
    132          1           0       11.492274    0.453095    0.895230
    133          1           0       12.740362    1.065614    1.866950
    134          1           0       12.617619   -1.880343    2.343841
    135          1           0       10.485530   -2.497222    2.445413
    136          1           0       10.100414   -1.065522    1.476134
    137          1           0       10.008498   -0.934032    3.162581
    138          1           0       12.943130    0.474421    3.967349
    139          1           0       12.859169   -1.171024    4.540055
    140          1           0       11.375102   -0.056870    4.368809
 ---------------------------------------------------------------------

 SCF Done:  E(RPBE1PBE) =  -3005.34832687     A.U. after   15 cycles

 Excitation energies and oscillator strengths:

 Excited State   1:      Singlet-A      1.8553 eV  668.26 nm  f=0.3712  <S**2>=0.000
     245 -> 248       -0.18100
     246 -> 247        0.69060
     246 <- 247       -0.10337
 This state for optimization and/or second-order correction.
 Total Energy, E(TD-HF/TD-DFT) =  -3005.28014502
 Copying the excited state density for this state as the 1-particle RhoCI density.

 Excited State   2:      Singlet-A      2.2107 eV  560.84 nm  f=0.0905  <S**2>=0.000
     245 -> 247        0.64612
     246 -> 248        0.27470

 Excited State   3:      Singlet-A      3.0391 eV  407.96 nm  f=0.0019  <S**2>=0.000
     242 -> 247        0.64230
     242 -> 248       -0.10176
     242 -> 249        0.18546
     242 -> 250        0.13674

 Excited State   4:      Singlet-A      3.0824 eV  402.24 nm  f=0.0004  <S**2>=0.000
     240 -> 247        0.12505
     241 -> 247        0.61668
     241 -> 249       -0.19329
     243 -> 247       -0.19698

 Excited State   5:      Singlet-A      3.1171 eV  397.75 nm  f=0.0002  <S**2>=0.000
     241 -> 247        0.21050
     243 -> 247        0.60934
     244 -> 247       -0.24094
     246 -> 248       -0.10392

 The electronic state is 1-A.
 Alpha  occ. eigenvalues --  -46.91806 -19.27649 -19.26741 -19.20640 -19.20153
 Alpha  occ. eigenvalues --  -19.19336 -19.18833 -14.42164 -14.41125 -14.39333
 Alpha  occ. eigenvalues --  -14.38828 -10.37243 -10.36877 -10.32618 -10.32419
 Alpha  occ. eigenvalues --  -10.29695 -10.29361 -10.29191 -10.29085 -10.28614
 Alpha  occ. eigenvalues --  -10.28027 -10.27719 -10.27619 -10.27231 -10.27048
 Alpha  occ. eigenvalues --  -10.27013 -10.26840 -10.26502 -10.26428 -10.26150
 Alpha  occ. eigenvalues --  -10.26121 -10.25791 -10.25478 -10.25248 -10.25226
 Alpha  occ. eigenvalues --  -10.25093 -10.25030 -10.24925 -10.24486 -10.24213
 Alpha  occ. eigenvalues --  -10.24159 -10.23892 -10.23843 -10.23627 -10.23578
 Alpha  occ. eigenvalues --  -10.23448 -10.23326 -10.23302 -10.23141 -10.23137
 Alpha  occ. eigenvalues --  -10.23130 -10.22875 -10.22810 -10.22659 -10.22446
 Alpha  occ. eigenvalues --  -10.22350 -10.22281 -10.22257 -10.22203 -10.22200
 Alpha  occ. eigenvalues --  -10.22094 -10.22084 -10.22079 -10.22068 -10.22066
 Alpha  occ. eigenvalues --  -10.21940  -3.14028  -1.86870  -1.86371  -1.86293
 Alpha  occ. eigenvalues --   -1.11907  -1.11115  -1.05111  -1.02737  -1.02050
 Alpha  occ. eigenvalues --   -1.01822  -0.99329  -0.98441  -0.97290  -0.96252
 Alpha  occ. eigenvalues --   -0.88094  -0.85121  -0.84168  -0.83513  -0.83093
 Alpha  occ. eigenvalues --   -0.82923  -0.82473  -0.81839  -0.81521  -0.81006
 Alpha  occ. eigenvalues --   -0.80452  -0.79874  -0.79055  -0.78391  -0.77626
 Alpha  occ. eigenvalues --   -0.76994  -0.76307  -0.75817  -0.75616  -0.75012
 Alpha  occ. eigenvalues --   -0.74242  -0.72872  -0.72434  -0.71879  -0.70905
 Alpha  occ. eigenvalues --   -0.70228  -0.69811  -0.69543  -0.69205  -0.68231
 Alpha  occ. eigenvalues --   -0.67630  -0.66975  -0.66046  -0.65071  -0.64172
 Alpha  occ. eigenvalues --   -0.63324  -0.62850  -0.61933  -0.61821  -0.60022
 Alpha  occ. eigenvalues --   -0.59831  -0.59460  -0.59397  -0.59263  -0.58812
 Alpha  occ. eigenvalues --   -0.58347  -0.56947  -0.56793  -0.55599  -0.55086
 Alpha  occ. eigenvalues --   -0.54620  -0.54531  -0.53948  -0.53648  -0.52906
 Alpha  occ. eigenvalues --   -0.52029  -0.51588  -0.50968  -0.50736  -0.50197
 Alpha  occ. eigenvalues --   -0.49902  -0.49700  -0.49600  -0.49208  -0.48972
 Alpha  occ. eigenvalues --   -0.48564  -0.48104  -0.47893  -0.47641  -0.47599
 Alpha  occ. eigenvalues --   -0.47300  -0.47221  -0.46735  -0.46555  -0.46368
 Alpha  occ. eigenvalues --   -0.46269  -0.45392  -0.45320  -0.45203  -0.45097
 Alpha  occ. eigenvalues --   -0.44793  -0.44746  -0.44516  -0.44157  -0.44094
 Alpha  occ. eigenvalues --   -0.44038  -0.43922  -0.43792  -0.43743  -0.43529
 Alpha  occ. eigenvalues --   -0.43168  -0.43091  -0.42950  -0.42710  -0.42564
 Alpha  occ. eigenvalues --   -0.42313  -0.42273  -0.42057  -0.41367  -0.41295
 Alpha  occ. eigenvalues --   -0.41231  -0.40889  -0.40866  -0.40621  -0.40507
 Alpha  occ. eigenvalues --   -0.40337  -0.39962  -0.39884  -0.39833  -0.39678
 Alpha  occ. eigenvalues --   -0.39353  -0.39284  -0.39174  -0.39010  -0.38775
 Alpha  occ. eigenvalues --   -0.38730  -0.38418  -0.38354  -0.38157  -0.37873
 Alpha  occ. eigenvalues --   -0.37814  -0.37637  -0.37354  -0.37261  -0.37224
 Alpha  occ. eigenvalues --   -0.36985  -0.36395  -0.36188  -0.36062  -0.35953
 Alpha  occ. eigenvalues --   -0.35764  -0.35677  -0.35628  -0.35295  -0.35150
 Alpha  occ. eigenvalues --   -0.34864  -0.34595  -0.34192  -0.34088  -0.33776
 Alpha  occ. eigenvalues --   -0.33491  -0.33264  -0.33132  -0.32827  -0.32613
 Alpha  occ. eigenvalues --   -0.32090  -0.31751  -0.31730  -0.31344  -0.31231
 Alpha  occ. eigenvalues --   -0.30997  -0.30402  -0.29648  -0.29569  -0.29192
 Alpha  occ. eigenvalues --   -0.29136  -0.29088  -0.28993  -0.27069  -0.26234
 Alpha  occ. eigenvalues --   -0.26030  -0.25667  -0.25300  -0.23745  -0.20954
 Alpha  occ. eigenvalues --   -0.18741
 Alpha virt. eigenvalues --   -0.11089  -0.05490  -0.04636  -0.02776  -0.01345
 Alpha virt. eigenvalues --   -0.00603   0.00011   0.00952   0.01486   0.03221
 Alpha virt. eigenvalues --    0.03326   0.03891   0.04561   0.04936   0.05520

 Mulliken charges:
               1
     1  Mg   0.987869
     2  C   -0.037184
     3  C   -0.066475
     4  C   -0.045279
     5  C   -0.059831
     6  N   -0.386899
     7  C    0.045074
     8  C   -0.078132
     9  C   -0.123756
    10  C    0.085840
    11  C   -0.002147
    12  C    0.035508
    13  C   -0.046110
    14  C    0.232127
    15  O   -0.288933
    16  O   -0.348301
    17  N   -0.538568
    18  C    0.162113
    19  C   -0.168591
    20  C   -0.069304
    21  C    0.186009
    22  C    0.023819
    23  C    0.055938
    24  O   -0.275445
    25  C   -0.010651
    26  N   -0.371607
    27  C   -0.002961
    28  C   -0.134084
    29  C   -0.095451
    30  C    0.104115
    31  C    0.056720
    32  C   -0.005242
    33  C   -0.095128
    34  N   -0.437317
    35  C    0.100167
    36  C   -0.170041
    37  C   -0.002447
    38  C    0.125011
    39  C    0.065324
    40  C    0.120788
    41  O   -0.208147
    42  C   -0.066721
    43  C    0.296502
    44  O   -0.283145
    45  O   -0.357847
    46  C    0.128142
    47  C    0.245879
    48  C   -0.157816
    49  C   -0.243601
    50  C    0.028207
    51  C    0.014282
    52  C   -0.019983
    53  C   -0.012802
    54  C   -0.223708
    55  C   -0.006317
    56  C   -0.000350
    57  C   -0.065841
    58  C    0.008210
    59  C   -0.259545
    60  C    0.036044
    61  C   -0.019947
    62  C   -0.079573
    63  C    0.004394
    64  C   -0.208015
    65  C   -0.040518
    66  C   -0.003831
    67  H    0.002746
    68  H    0.024391
    69  H   -0.006135
    70  H    0.049950
    71  H    0.042664
    72  H    0.055412
    73  H    0.034043
    74  H    0.051289
    75  H    0.055433
    76  H    0.051669
    77  H    0.066707
    78  H    0.068989
    79  H    0.068655
    80  H    0.054556
    81  H    0.046321
    82  H    0.042100
    83  H    0.080356
    84  H    0.061643
    85  H    0.046089
    86  H    0.026662
    87  H    0.046803
    88  H    0.050907
    89  H    0.046677
    90  H    0.036812
    91  H    0.035105
    92  H    0.035854
    93  H    0.039665
    94  H    0.064390
    95  H    0.040143
    96  H    0.058721
    97  H    0.058412
    98  H    0.080185
    99  H    0.062813
   100  H    0.048202
   101  H    0.062456
   102  H    0.084070
   103  H    0.057361
   104  H    0.020671
   105  H    0.056966
   106  H    0.036746
   107  H    0.052167
   108  H    0.033886
   109  H    0.034005
   110  H    0.013074
   111  H    0.026620
   112  H    0.025324
   113  H    0.027835
   114  H    0.027782
   115  H    0.038999
   116  H    0.024837
   117  H    0.034080
   118  H    0.036721
   119  H    0.016576
   120  H    0.020281
   121  H    0.018335
   122  H    0.028609
   123  H    0.024874
   124  H    0.030798
   125  H    0.035327
   126  H    0.029054
   127  H    0.044183
   128  H    0.025366
   129  H    0.023479
   130  H    0.015227
   131  H    0.028406
   132  H    0.031870
   133  H    0.020226
   134  H    0.042581
   135  H    0.038277
   136  H    0.035020
   137  H    0.029021
   138  H    0.030101
   139  H    0.045274
   140  H    0.034797
 Sum of Mulliken charges =  -0.00000

 Dipole moment (field-independent basis, Debye):
    X=              3.1261    Y=              2.8802    Z=              0.6447  Tot=              4.2992
 Quadrupole moment (field-independent basis, Debye-Ang):
   XX=           -369.5071   YY=           -415.4836   ZZ=           -413.0178
   XY=              5.2022   XZ=             26.3756   YZ=             -7.0745

 Normal termination of Gaussian 16 at Wed May  4 07:29:32 2022.
