 Gaussian 16, Revision A.03,
 Gaussian 16:  ES64L-G16RevA.03 25-Dec-2016

 --------------------------------
 #p wB97XD/Def2SVP td=(nstates=5)
 --------------------------------

 -----------------------------------------------------
 step_1501_chromophore_13 TDDFT with wB97XD functional
 -----------------------------------------------------
 Symbolic Z-matrix:
 Charge =  0 Multiplicity = 1

                         Standard orientation:
 ---------------------------------------------------------------------
 Center     Atomic      Atomic             Coordinates (Angstroms)
 Number     Number       Type             X           Y           Z
 ---------------------------------------------------------------------
      1         12           0       -5.611808    0.456823   -0.100562
      2          6           0       -3.497616   -2.490281    0.101697
      3          6           0       -2.973815    2.397665    0.633324
      4          6           0       -7.769580    2.893904    0.431682
      5          6           0       -8.274231   -1.756521   -0.710889
      6          7           0       -3.504274   -0.057239    0.403393
      7          6           0       -2.812119   -1.254704    0.290113
      8          6           0       -1.277814   -0.991787    0.227700
      9          6           0       -1.195209    0.520762    0.815120
     10          6           0       -2.658016    1.017229    0.585902
     11          6           0       -0.800513    0.913897    2.285695
     12          6           0       -0.617646   -1.173485   -1.158908
     13          6           0        0.378749   -2.392478   -1.236755
     14          6           0        1.782219   -2.105624   -1.745440
     15          8           0        2.149900   -2.278916   -2.938012
     16          8           0        2.578552   -1.801828   -0.677273
     17          7           0       -5.416254    2.342345    0.409513
     18          6           0       -4.222687    3.030432    0.544331
     19          6           0       -4.519816    4.413356    0.719637
     20          6           0       -5.923319    4.611398    0.703702
     21          6           0       -6.401480    3.231970    0.582151
     22          6           0       -3.304627    5.394750    1.034301
     23          6           0       -6.756882    5.886070    0.731725
     24          8           0       -8.016004    5.880645    0.777407
     25          6           0       -6.123208    7.237479    0.806619
     26          7           0       -7.706136    0.594844   -0.339352
     27          6           0       -8.349038    1.684387    0.072879
     28          6           0       -9.908866    1.495496    0.024154
     29          6           0      -10.000308    0.157560   -0.819034
     30          6           0       -8.576880   -0.384515   -0.667341
     31          6           0      -10.629654    1.499149    1.363453
     32          6           0      -10.392766    0.339877   -2.317829
     33          6           0       -9.421198    1.174636   -3.178308
     34          7           0       -5.922896   -1.708422   -0.249698
     35          6           0       -7.065728   -2.412207   -0.576387
     36          6           0       -6.758090   -3.893252   -0.562709
     37          6           0       -5.359441   -3.957730   -0.336629
     38          6           0       -4.887172   -2.598871   -0.125299
     39          6           0       -7.800748   -4.942093   -0.750823
     40          6           0       -4.180068   -4.785613   -0.194781
     41          8           0       -4.134956   -5.981407   -0.426728
     42          6           0       -2.976940   -3.886303    0.078677
     43          6           0       -2.393722   -4.201021    1.355692
     44          8           0       -2.826928   -3.741361    2.444621
     45          8           0       -1.250247   -4.962219    1.233746
     46          6           0       -0.588836   -5.351200    2.457924
     47          6           0        3.987821   -1.833801   -1.070648
     48          6           0        4.760494   -0.864365   -0.269106
     49          6           0        6.110541   -0.878414    0.022979
     50          6           0        7.107470   -1.895841   -0.393478
     51          6           0        6.703721    0.104128    1.005464
     52          6           0        7.063421    1.415188    0.326365
     53          6           0        8.462110    1.943505    0.596711
     54          6           0        9.148936    2.760102   -0.510559
     55          6           0        8.637853    4.225105   -0.753177
     56          6           0        9.288472    2.096928   -1.892728
     57          6           0       10.687035    2.251462   -2.565577
     58          6           0       11.555647    0.914847   -2.627656
     59          6           0       12.813179    0.988671   -1.713962
     60          6           0       14.066215    1.607426   -2.328973
     61          6           0       12.995904   -0.372559   -0.987918
     62          6           0       13.467058   -0.169354    0.484840
     63          6           0       12.350667    0.123416    1.481066
     64          6           0       12.067983   -0.956945    2.524840
     65          6           0       10.596688   -1.415176    2.381313
     66          6           0       12.319763   -0.419972    3.963451
     67          1           0       -2.162093    3.110689    0.789937
     68          1           0       -8.614711    3.572300    0.565825
     69          1           0       -9.036213   -2.503478   -0.940757
     70          1           0       -0.789829   -1.694151    0.902729
     71          1           0       -0.484626    1.115506    0.240636
     72          1           0       -1.580240    1.524744    2.742287
     73          1           0        0.094096    1.535279    2.258683
     74          1           0       -0.568246    0.096851    2.970004
     75          1           0       -0.092953   -0.322562   -1.591958
     76          1           0       -1.439072   -1.373668   -1.847036
     77          1           0       -0.084591   -3.036448   -1.984807
     78          1           0        0.442192   -2.963231   -0.310429
     79          1           0       -2.824953    5.853020    0.168691
     80          1           0       -2.583682    4.856356    1.648497
     81          1           0       -3.722888    6.167553    1.678291
     82          1           0       -5.149178    7.203704    0.319492
     83          1           0       -6.058345    7.595520    1.834209
     84          1           0       -6.778102    7.912090    0.255479
     85          1           0      -10.272556    2.313691   -0.596652
     86          1           0      -10.707911   -0.519461   -0.340104
     87          1           0      -10.031623    2.144619    2.005584
     88          1           0      -10.738535    0.471329    1.709321
     89          1           0      -11.574518    2.018023    1.199576
     90          1           0      -11.399161    0.758106   -2.353901
     91          1           0      -10.562307   -0.589859   -2.860101
     92          1           0       -9.922614    2.031369   -3.628784
     93          1           0       -9.065544    0.637210   -4.057762
     94          1           0       -8.550821    1.602975   -2.679475
     95          1           0       -8.808237   -4.534665   -0.663108
     96          1           0       -7.687703   -5.814852   -0.107844
     97          1           0       -7.711479   -5.416657   -1.728061
     98          1           0       -2.218717   -3.941419   -0.702137
     99          1           0       -1.214479   -5.604371    3.313101
    100          1           0        0.026723   -4.523465    2.808462
    101          1           0        0.012845   -6.235490    2.245114
    102          1           0        4.277212   -1.465208   -2.054280
    103          1           0        4.469065   -2.797736   -0.904458
    104          1           0        4.146559   -0.086236    0.183641
    105          1           0        8.086628   -1.442125   -0.546637
    106          1           0        6.651709   -2.487386   -1.187532
    107          1           0        7.275821   -2.593792    0.425696
    108          1           0        7.579688   -0.310678    1.502444
    109          1           0        5.961064    0.354063    1.763175
    110          1           0        6.340848    2.200971    0.542688
    111          1           0        6.767317    1.368806   -0.721613
    112          1           0        9.156517    1.132440    0.812584
    113          1           0        8.494176    2.627988    1.444160
    114          1           0       10.150860    2.866725   -0.093850
    115          1           0        9.484141    4.911816   -0.758023
    116          1           0        7.986366    4.485336    0.081980
    117          1           0        8.089446    4.321415   -1.689322
    118          1           0        8.506119    2.437523   -2.572265
    119          1           0        9.263963    1.018496   -1.740890
    120          1           0       11.257265    3.042343   -2.079407
    121          1           0       10.575192    2.630636   -3.581599
    122          1           0       11.779356    0.895385   -3.693511
    123          1           0       10.920314    0.069680   -2.362983
    124          1           0       12.589163    1.707680   -0.925503
    125          1           0       14.018102    1.582586   -3.417845
    126          1           0       14.859810    0.918855   -2.040899
    127          1           0       14.155753    2.602752   -1.892755
    128          1           0       13.708836   -0.951406   -1.575125
    129          1           0       12.049716   -0.899312   -0.867216
    130          1           0       14.072916    0.733798    0.411036
    131          1           0       14.146645   -0.992683    0.707033
    132          1           0       11.492274    0.453095    0.895230
    133          1           0       12.740362    1.065614    1.866950
    134          1           0       12.617619   -1.880343    2.343841
    135          1           0       10.485530   -2.497222    2.445413
    136          1           0       10.100414   -1.065522    1.476134
    137          1           0       10.008498   -0.934032    3.162581
    138          1           0       12.943130    0.474421    3.967349
    139          1           0       12.859169   -1.171024    4.540055
    140          1           0       11.375102   -0.056870    4.368809
 ---------------------------------------------------------------------

 SCF Done:  E(RwB97XD) =  -3007.85868355     A.U. after   20 cycles

 Excitation energies and oscillator strengths:

 Excited State   1:      Singlet-A      1.6459 eV  753.31 nm  f=0.3760  <S**2>=0.000
     245 -> 248       -0.19684
     246 -> 247        0.68061
     245 <- 248       -0.12006
 This state for optimization and/or second-order correction.
 Total Energy, E(TD-HF/TD-DFT) =  -3007.79819919
 Copying the excited state density for this state as the 1-particle RhoCI density.

 Excited State   2:      Singlet-A      2.1577 eV  574.61 nm  f=0.0850  <S**2>=0.000
     245 -> 247        0.62803
     246 -> 248        0.31401

 Excited State   3:      Singlet-A      3.4317 eV  361.29 nm  f=0.3121  <S**2>=0.000
     243 -> 247       -0.45105
     245 -> 247       -0.20002
     246 -> 248        0.47529

 Excited State   4:      Singlet-A      3.5176 eV  352.46 nm  f=0.0016  <S**2>=0.000
     241 -> 247        0.36969
     241 -> 248       -0.10982
     241 -> 249        0.28076
     241 -> 250        0.24468
     242 -> 247        0.28963
     242 -> 249        0.18650
     242 -> 250        0.16406
     243 -> 247        0.10506

 Excited State   5:      Singlet-A      3.5195 eV  352.28 nm  f=0.0583  <S**2>=0.000
     240 -> 247        0.43145
     240 -> 249       -0.28829
     240 -> 250        0.15986
     241 -> 247        0.10156
     242 -> 247       -0.13716
     243 -> 247        0.32877
     246 -> 248        0.15233

 The electronic state is 1-A.
 Alpha  occ. eigenvalues --  -46.94714 -19.32213 -19.31400 -19.25288 -19.24949
 Alpha  occ. eigenvalues --  -19.24330 -19.23580 -14.47246 -14.46146 -14.44226
 Alpha  occ. eigenvalues --  -14.43794 -10.44019 -10.43809 -10.39420 -10.39404
 Alpha  occ. eigenvalues --  -10.36016 -10.35840 -10.35649 -10.35357 -10.34932
 Alpha  occ. eigenvalues --  -10.34285 -10.34013 -10.33913 -10.33594 -10.33416
 Alpha  occ. eigenvalues --  -10.33316 -10.33216 -10.32791 -10.32701 -10.32674
 Alpha  occ. eigenvalues --  -10.32474 -10.32152 -10.31671 -10.31647 -10.31502
 Alpha  occ. eigenvalues --  -10.31423 -10.31379 -10.31264 -10.30845 -10.30551
 Alpha  occ. eigenvalues --  -10.30499 -10.30358 -10.30169 -10.30026 -10.29961
 Alpha  occ. eigenvalues --  -10.29904 -10.29883 -10.29702 -10.29466 -10.29423
 Alpha  occ. eigenvalues --  -10.29416 -10.29207 -10.29144 -10.29059 -10.28831
 Alpha  occ. eigenvalues --  -10.28697 -10.28631 -10.28621 -10.28617 -10.28610
 Alpha  occ. eigenvalues --  -10.28511 -10.28500 -10.28441 -10.28433 -10.28424
 Alpha  occ. eigenvalues --  -10.28375  -3.20789  -1.94382  -1.93885  -1.93798
 Alpha  occ. eigenvalues --   -1.19285  -1.18608  -1.12746  -1.10185  -1.09401
 Alpha  occ. eigenvalues --   -1.09310  -1.06647  -1.05730  -1.04712  -1.03658
 Alpha  occ. eigenvalues --   -0.95796  -0.92808  -0.91834  -0.91172  -0.90658
 Alpha  occ. eigenvalues --   -0.90581  -0.90015  -0.89497  -0.89095  -0.88622
 Alpha  occ. eigenvalues --   -0.88133  -0.87508  -0.86699  -0.86026  -0.85260
 Alpha  occ. eigenvalues --   -0.84629  -0.83974  -0.83504  -0.83242  -0.82649
 Alpha  occ. eigenvalues --   -0.81910  -0.80540  -0.80051  -0.79505  -0.78527
 Alpha  occ. eigenvalues --   -0.77920  -0.77508  -0.77089  -0.76876  -0.75900
 Alpha  occ. eigenvalues --   -0.75212  -0.74568  -0.73538  -0.72694  -0.71730
 Alpha  occ. eigenvalues --   -0.70884  -0.70492  -0.69581  -0.69331  -0.67511
 Alpha  occ. eigenvalues --   -0.67267  -0.67049  -0.66923  -0.66744  -0.66249
 Alpha  occ. eigenvalues --   -0.66017  -0.64447  -0.64372  -0.63205  -0.62530
 Alpha  occ. eigenvalues --   -0.62137  -0.61994  -0.61484  -0.61160  -0.60247
 Alpha  occ. eigenvalues --   -0.59391  -0.59048  -0.58408  -0.58149  -0.57581
 Alpha  occ. eigenvalues --   -0.57317  -0.57115  -0.56978  -0.56615  -0.56475
 Alpha  occ. eigenvalues --   -0.56011  -0.55547  -0.55287  -0.55018  -0.54879
 Alpha  occ. eigenvalues --   -0.54674  -0.54599  -0.54128  -0.53996  -0.53702
 Alpha  occ. eigenvalues --   -0.53586  -0.52835  -0.52642  -0.52569  -0.52459
 Alpha  occ. eigenvalues --   -0.52173  -0.52085  -0.51868  -0.51474  -0.51398
 Alpha  occ. eigenvalues --   -0.51369  -0.51222  -0.51086  -0.51024  -0.50899
 Alpha  occ. eigenvalues --   -0.50518  -0.50375  -0.50210  -0.50000  -0.49842
 Alpha  occ. eigenvalues --   -0.49566  -0.49546  -0.49321  -0.48608  -0.48539
 Alpha  occ. eigenvalues --   -0.48408  -0.48140  -0.48028  -0.47797  -0.47711
 Alpha  occ. eigenvalues --   -0.47604  -0.47159  -0.47121  -0.47002  -0.46911
 Alpha  occ. eigenvalues --   -0.46503  -0.46450  -0.46371  -0.46229  -0.45934
 Alpha  occ. eigenvalues --   -0.45806  -0.45572  -0.45451  -0.45321  -0.44973
 Alpha  occ. eigenvalues --   -0.44892  -0.44817  -0.44587  -0.44369  -0.44210
 Alpha  occ. eigenvalues --   -0.44120  -0.43424  -0.43196  -0.43159  -0.43078
 Alpha  occ. eigenvalues --   -0.42825  -0.42799  -0.42678  -0.42347  -0.42155
 Alpha  occ. eigenvalues --   -0.41932  -0.41527  -0.41178  -0.41129  -0.40801
 Alpha  occ. eigenvalues --   -0.40436  -0.40246  -0.40171  -0.39806  -0.39607
 Alpha  occ. eigenvalues --   -0.39154  -0.38860  -0.38778  -0.38229  -0.38166
 Alpha  occ. eigenvalues --   -0.37984  -0.37427  -0.36611  -0.36516  -0.36351
 Alpha  occ. eigenvalues --   -0.36103  -0.36074  -0.35646  -0.33608  -0.33282
 Alpha  occ. eigenvalues --   -0.32888  -0.32640  -0.31897  -0.30472  -0.25917
 Alpha  occ. eigenvalues --   -0.22862
 Alpha virt. eigenvalues --   -0.06908  -0.00086   0.01605   0.03697   0.05482
 Alpha virt. eigenvalues --    0.05742   0.06277   0.07613   0.08265   0.09601
 Alpha virt. eigenvalues --    0.09722   0.10328   0.11427   0.11542   0.12309

 Mulliken charges:
               1
     1  Mg   0.976243
     2  C   -0.033541
     3  C   -0.080255
     4  C   -0.064426
     5  C   -0.071345
     6  N   -0.354662
     7  C    0.009538
     8  C   -0.050907
     9  C   -0.103999
    10  C    0.078327
    11  C    0.008831
    12  C    0.041544
    13  C   -0.027408
    14  C    0.222914
    15  O   -0.287492
    16  O   -0.348643
    17  N   -0.504700
    18  C    0.150719
    19  C   -0.164319
    20  C   -0.064230
    21  C    0.178649
    22  C    0.038283
    23  C    0.052975
    24  O   -0.270248
    25  C   -0.000443
    26  N   -0.339341
    27  C   -0.013544
    28  C   -0.112723
    29  C   -0.065127
    30  C    0.088709
    31  C    0.067419
    32  C    0.004281
    33  C   -0.076471
    34  N   -0.400850
    35  C    0.090849
    36  C   -0.166191
    37  C    0.005368
    38  C    0.106284
    39  C    0.074588
    40  C    0.100142
    41  O   -0.197392
    42  C   -0.018403
    43  C    0.270213
    44  O   -0.277770
    45  O   -0.355219
    46  C    0.142290
    47  C    0.259467
    48  C   -0.169198
    49  C   -0.225576
    50  C    0.045689
    51  C    0.039377
    52  C   -0.011792
    53  C    0.025859
    54  C   -0.196528
    55  C    0.004423
    56  C    0.023352
    57  C   -0.051273
    58  C    0.023845
    59  C   -0.223749
    60  C    0.044131
    61  C    0.000523
    62  C   -0.061215
    63  C    0.034458
    64  C   -0.181830
    65  C   -0.017975
    66  C    0.009010
    67  H   -0.004107
    68  H    0.018976
    69  H   -0.014269
    70  H    0.034970
    71  H    0.032590
    72  H    0.047612
    73  H    0.028520
    74  H    0.046196
    75  H    0.049641
    76  H    0.043405
    77  H    0.060942
    78  H    0.062151
    79  H    0.064995
    80  H    0.049091
    81  H    0.039015
    82  H    0.035442
    83  H    0.077657
    84  H    0.059812
    85  H    0.035599
    86  H    0.018281
    87  H    0.039828
    88  H    0.044937
    89  H    0.041432
    90  H    0.029342
    91  H    0.027747
    92  H    0.030538
    93  H    0.034518
    94  H    0.052240
    95  H    0.035619
    96  H    0.054996
    97  H    0.054100
    98  H    0.070797
    99  H    0.059005
   100  H    0.044133
   101  H    0.059531
   102  H    0.078806
   103  H    0.051289
   104  H    0.018030
   105  H    0.048816
   106  H    0.030799
   107  H    0.046241
   108  H    0.020235
   109  H    0.027562
   110  H    0.006036
   111  H    0.014775
   112  H   -0.001545
   113  H    0.019959
   114  H    0.013183
   115  H    0.034040
   116  H    0.018343
   117  H    0.027859
   118  H    0.028525
   119  H   -0.002346
   120  H    0.008374
   121  H    0.012006
   122  H    0.020663
   123  H    0.015013
   124  H    0.008737
   125  H    0.029944
   126  H    0.022184
   127  H    0.040243
   128  H    0.017792
   129  H    0.010218
   130  H    0.003118
   131  H    0.021620
   132  H    0.004811
   133  H    0.011698
   134  H    0.033048
   135  H    0.033855
   136  H    0.018945
   137  H    0.020487
   138  H    0.023271
   139  H    0.040543
   140  H    0.028024
 Sum of Mulliken charges =  -0.00000

 Dipole moment (field-independent basis, Debye):
    X=              3.2459    Y=              2.7484    Z=              0.6637  Tot=              4.3046
 Quadrupole moment (field-independent basis, Debye-Ang):
   XX=           -370.7972   YY=           -413.2876   ZZ=           -412.7326
   XY=              5.8156   XZ=             26.4757   YZ=             -7.2527

 Normal termination of Gaussian 16 at Wed May  4 08:05:09 2022.
