 Gaussian 16, Revision A.03,
 Gaussian 16:  ES64L-G16RevA.03 25-Dec-2016

 --------------------
 #p ZINDO=(nstates=5)
 --------------------

 ------------------------------
 step_1501_chromophore_13 ZINDO
 ------------------------------
 Symbolic Z-matrix:
 Charge =  0 Multiplicity = 1

                         Standard orientation:
 ---------------------------------------------------------------------
 Center     Atomic      Atomic             Coordinates (Angstroms)
 Number     Number       Type             X           Y           Z
 ---------------------------------------------------------------------
      1         12           0       -5.611808    0.456823   -0.100562
      2          6           0       -3.497616   -2.490281    0.101697
      3          6           0       -2.973815    2.397665    0.633324
      4          6           0       -7.769580    2.893904    0.431682
      5          6           0       -8.274231   -1.756521   -0.710889
      6          7           0       -3.504274   -0.057239    0.403393
      7          6           0       -2.812119   -1.254704    0.290113
      8          6           0       -1.277814   -0.991787    0.227700
      9          6           0       -1.195209    0.520762    0.815120
     10          6           0       -2.658016    1.017229    0.585902
     11          6           0       -0.800513    0.913897    2.285695
     12          6           0       -0.617646   -1.173485   -1.158908
     13          6           0        0.378749   -2.392478   -1.236755
     14          6           0        1.782219   -2.105624   -1.745440
     15          8           0        2.149900   -2.278916   -2.938012
     16          8           0        2.578552   -1.801828   -0.677273
     17          7           0       -5.416254    2.342345    0.409513
     18          6           0       -4.222687    3.030432    0.544331
     19          6           0       -4.519816    4.413356    0.719637
     20          6           0       -5.923319    4.611398    0.703702
     21          6           0       -6.401480    3.231970    0.582151
     22          6           0       -3.304627    5.394750    1.034301
     23          6           0       -6.756882    5.886070    0.731725
     24          8           0       -8.016004    5.880645    0.777407
     25          6           0       -6.123208    7.237479    0.806619
     26          7           0       -7.706136    0.594844   -0.339352
     27          6           0       -8.349038    1.684387    0.072879
     28          6           0       -9.908866    1.495496    0.024154
     29          6           0      -10.000308    0.157560   -0.819034
     30          6           0       -8.576880   -0.384515   -0.667341
     31          6           0      -10.629654    1.499149    1.363453
     32          6           0      -10.392766    0.339877   -2.317829
     33          6           0       -9.421198    1.174636   -3.178308
     34          7           0       -5.922896   -1.708422   -0.249698
     35          6           0       -7.065728   -2.412207   -0.576387
     36          6           0       -6.758090   -3.893252   -0.562709
     37          6           0       -5.359441   -3.957730   -0.336629
     38          6           0       -4.887172   -2.598871   -0.125299
     39          6           0       -7.800748   -4.942093   -0.750823
     40          6           0       -4.180068   -4.785613   -0.194781
     41          8           0       -4.134956   -5.981407   -0.426728
     42          6           0       -2.976940   -3.886303    0.078677
     43          6           0       -2.393722   -4.201021    1.355692
     44          8           0       -2.826928   -3.741361    2.444621
     45          8           0       -1.250247   -4.962219    1.233746
     46          6           0       -0.588836   -5.351200    2.457924
     47          6           0        3.987821   -1.833801   -1.070648
     48          6           0        4.760494   -0.864365   -0.269106
     49          6           0        6.110541   -0.878414    0.022979
     50          6           0        7.107470   -1.895841   -0.393478
     51          6           0        6.703721    0.104128    1.005464
     52          6           0        7.063421    1.415188    0.326365
     53          6           0        8.462110    1.943505    0.596711
     54          6           0        9.148936    2.760102   -0.510559
     55          6           0        8.637853    4.225105   -0.753177
     56          6           0        9.288472    2.096928   -1.892728
     57          6           0       10.687035    2.251462   -2.565577
     58          6           0       11.555647    0.914847   -2.627656
     59          6           0       12.813179    0.988671   -1.713962
     60          6           0       14.066215    1.607426   -2.328973
     61          6           0       12.995904   -0.372559   -0.987918
     62          6           0       13.467058   -0.169354    0.484840
     63          6           0       12.350667    0.123416    1.481066
     64          6           0       12.067983   -0.956945    2.524840
     65          6           0       10.596688   -1.415176    2.381313
     66          6           0       12.319763   -0.419972    3.963451
     67          1           0       -2.162093    3.110689    0.789937
     68          1           0       -8.614711    3.572300    0.565825
     69          1           0       -9.036213   -2.503478   -0.940757
     70          1           0       -0.789829   -1.694151    0.902729
     71          1           0       -0.484626    1.115506    0.240636
     72          1           0       -1.580240    1.524744    2.742287
     73          1           0        0.094096    1.535279    2.258683
     74          1           0       -0.568246    0.096851    2.970004
     75          1           0       -0.092953   -0.322562   -1.591958
     76          1           0       -1.439072   -1.373668   -1.847036
     77          1           0       -0.084591   -3.036448   -1.984807
     78          1           0        0.442192   -2.963231   -0.310429
     79          1           0       -2.824953    5.853020    0.168691
     80          1           0       -2.583682    4.856356    1.648497
     81          1           0       -3.722888    6.167553    1.678291
     82          1           0       -5.149178    7.203704    0.319492
     83          1           0       -6.058345    7.595520    1.834209
     84          1           0       -6.778102    7.912090    0.255479
     85          1           0      -10.272556    2.313691   -0.596652
     86          1           0      -10.707911   -0.519461   -0.340104
     87          1           0      -10.031623    2.144619    2.005584
     88          1           0      -10.738535    0.471329    1.709321
     89          1           0      -11.574518    2.018023    1.199576
     90          1           0      -11.399161    0.758106   -2.353901
     91          1           0      -10.562307   -0.589859   -2.860101
     92          1           0       -9.922614    2.031369   -3.628784
     93          1           0       -9.065544    0.637210   -4.057762
     94          1           0       -8.550821    1.602975   -2.679475
     95          1           0       -8.808237   -4.534665   -0.663108
     96          1           0       -7.687703   -5.814852   -0.107844
     97          1           0       -7.711479   -5.416657   -1.728061
     98          1           0       -2.218717   -3.941419   -0.702137
     99          1           0       -1.214479   -5.604371    3.313101
    100          1           0        0.026723   -4.523465    2.808462
    101          1           0        0.012845   -6.235490    2.245114
    102          1           0        4.277212   -1.465208   -2.054280
    103          1           0        4.469065   -2.797736   -0.904458
    104          1           0        4.146559   -0.086236    0.183641
    105          1           0        8.086628   -1.442125   -0.546637
    106          1           0        6.651709   -2.487386   -1.187532
    107          1           0        7.275821   -2.593792    0.425696
    108          1           0        7.579688   -0.310678    1.502444
    109          1           0        5.961064    0.354063    1.763175
    110          1           0        6.340848    2.200971    0.542688
    111          1           0        6.767317    1.368806   -0.721613
    112          1           0        9.156517    1.132440    0.812584
    113          1           0        8.494176    2.627988    1.444160
    114          1           0       10.150860    2.866725   -0.093850
    115          1           0        9.484141    4.911816   -0.758023
    116          1           0        7.986366    4.485336    0.081980
    117          1           0        8.089446    4.321415   -1.689322
    118          1           0        8.506119    2.437523   -2.572265
    119          1           0        9.263963    1.018496   -1.740890
    120          1           0       11.257265    3.042343   -2.079407
    121          1           0       10.575192    2.630636   -3.581599
    122          1           0       11.779356    0.895385   -3.693511
    123          1           0       10.920314    0.069680   -2.362983
    124          1           0       12.589163    1.707680   -0.925503
    125          1           0       14.018102    1.582586   -3.417845
    126          1           0       14.859810    0.918855   -2.040899
    127          1           0       14.155753    2.602752   -1.892755
    128          1           0       13.708836   -0.951406   -1.575125
    129          1           0       12.049716   -0.899312   -0.867216
    130          1           0       14.072916    0.733798    0.411036
    131          1           0       14.146645   -0.992683    0.707033
    132          1           0       11.492274    0.453095    0.895230
    133          1           0       12.740362    1.065614    1.866950
    134          1           0       12.617619   -1.880343    2.343841
    135          1           0       10.485530   -2.497222    2.445413
    136          1           0       10.100414   -1.065522    1.476134
    137          1           0       10.008498   -0.934032    3.162581
    138          1           0       12.943130    0.474421    3.967349
    139          1           0       12.859169   -1.171024    4.540055
    140          1           0       11.375102   -0.056870    4.368809
 ---------------------------------------------------------------------

 SCF Done:  E(RZINDO/S) =  -474.241108548     A.U. after   19 cycles

 Excitation energies and oscillator strengths:

 Excited State   1:      Singlet-A      1.2504 eV  991.55 nm  f=0.5925  <S**2>=0.000
     175 ->178        -0.19457
     176 ->177         0.66073
 This state for optimization and/or second-order correction.
 Total Energy, E(CIS/TDA) =  -474.195157113
 Copying the excited state density for this state as the 1-particle RhoCI density.

 Excited State   2:      Singlet-A      1.8864 eV  657.26 nm  f=0.0233  <S**2>=0.000
     175 ->177         0.52777
     176 ->178         0.43853

 Excited State   3:      Singlet-A      2.8639 eV  432.92 nm  f=0.2716  <S**2>=0.000
     175 ->177        -0.21730
     176 ->178         0.36978
     176 ->179         0.50466

 Excited State   4:      Singlet-A      2.9286 eV  423.35 nm  f=0.0060  <S**2>=0.000
     167 ->179         0.11718
     168 ->177         0.32661
     168 ->178        -0.17688
     168 ->179        -0.38277
     168 ->182        -0.18096
     168 ->186        -0.19354
     168 ->195         0.10650
     176 ->179        -0.12168

 Excited State   5:      Singlet-A      2.9370 eV  422.14 nm  f=0.0311  <S**2>=0.000
     168 ->177        -0.10800
     169 ->177         0.20231
     169 ->179         0.22719
     169 ->181         0.31324
     169 ->182        -0.15503
     169 ->186         0.13457
     169 ->187        -0.13647
     170 ->177         0.16016
     170 ->179         0.17867
     170 ->181         0.24738
     170 ->182        -0.12336
     170 ->186         0.10302
     170 ->187        -0.10699

 The electronic state is 1-A.
 Alpha  occ. eigenvalues --   -1.83571  -1.81732  -1.79609  -1.73454  -1.72339
 Alpha  occ. eigenvalues --   -1.69156  -1.66541  -1.61351  -1.60447  -1.56571
 Alpha  occ. eigenvalues --   -1.55760  -1.51821  -1.50652  -1.47940  -1.44924
 Alpha  occ. eigenvalues --   -1.42952  -1.42541  -1.39516  -1.39361  -1.38049
 Alpha  occ. eigenvalues --   -1.35806  -1.33718  -1.33506  -1.30752  -1.29915
 Alpha  occ. eigenvalues --   -1.27556  -1.25086  -1.22619  -1.20955  -1.18791
 Alpha  occ. eigenvalues --   -1.17465  -1.16527  -1.15732  -1.14952  -1.13249
 Alpha  occ. eigenvalues --   -1.12457  -1.10543  -1.10401  -1.05378  -1.04479
 Alpha  occ. eigenvalues --   -1.02776  -1.01771  -0.99797  -0.97948  -0.97816
 Alpha  occ. eigenvalues --   -0.97193  -0.94914  -0.93980  -0.92770  -0.92109
 Alpha  occ. eigenvalues --   -0.90916  -0.89663  -0.88393  -0.87704  -0.85693
 Alpha  occ. eigenvalues --   -0.85685  -0.84102  -0.83746  -0.81800  -0.80214
 Alpha  occ. eigenvalues --   -0.79689  -0.79363  -0.77471  -0.77118  -0.76663
 Alpha  occ. eigenvalues --   -0.76375  -0.75924  -0.75258  -0.75190  -0.73620
 Alpha  occ. eigenvalues --   -0.73532  -0.73050  -0.72909  -0.71796  -0.70972
 Alpha  occ. eigenvalues --   -0.70510  -0.68968  -0.68699  -0.68433  -0.67819
 Alpha  occ. eigenvalues --   -0.67385  -0.67202  -0.66673  -0.66440  -0.65156
 Alpha  occ. eigenvalues --   -0.64876  -0.64679  -0.64554  -0.63757  -0.63527
 Alpha  occ. eigenvalues --   -0.63250  -0.62807  -0.62522  -0.62076  -0.61756
 Alpha  occ. eigenvalues --   -0.61527  -0.61242  -0.60967  -0.60900  -0.60333
 Alpha  occ. eigenvalues --   -0.59969  -0.59825  -0.58976  -0.58253  -0.58063
 Alpha  occ. eigenvalues --   -0.57888  -0.57795  -0.57012  -0.56846  -0.56599
 Alpha  occ. eigenvalues --   -0.56495  -0.55608  -0.55430  -0.55032  -0.54740
 Alpha  occ. eigenvalues --   -0.54330  -0.54141  -0.53534  -0.53113  -0.53044
 Alpha  occ. eigenvalues --   -0.52672  -0.52587  -0.52216  -0.51785  -0.51164
 Alpha  occ. eigenvalues --   -0.51022  -0.50795  -0.50606  -0.50391  -0.50136
 Alpha  occ. eigenvalues --   -0.49898  -0.49749  -0.49627  -0.49319  -0.49128
 Alpha  occ. eigenvalues --   -0.48863  -0.48608  -0.48567  -0.48063  -0.47897
 Alpha  occ. eigenvalues --   -0.47632  -0.47396  -0.47185  -0.46972  -0.46754
 Alpha  occ. eigenvalues --   -0.46397  -0.46277  -0.46024  -0.45451  -0.45185
 Alpha  occ. eigenvalues --   -0.44900  -0.44274  -0.43906  -0.43567  -0.43486
 Alpha  occ. eigenvalues --   -0.43417  -0.42859  -0.42744  -0.42541  -0.42396
 Alpha  occ. eigenvalues --   -0.42307  -0.42004  -0.41776  -0.39456  -0.39213
 Alpha  occ. eigenvalues --   -0.38673  -0.37312  -0.35787  -0.35055  -0.34962
 Alpha  occ. eigenvalues --   -0.33348  -0.32868  -0.32092  -0.30608  -0.26501
 Alpha  occ. eigenvalues --   -0.21605
 Alpha virt. eigenvalues --   -0.08325  -0.02377  -0.01136   0.00536   0.00788
 Alpha virt. eigenvalues --    0.01548   0.02666   0.02848   0.04328   0.04663
 Alpha virt. eigenvalues --    0.06208   0.06713   0.07043   0.07550   0.07706

 Mulliken charges:
               1
     1  Mg   0.428260
     2  C   -0.036278
     3  C   -0.069444
     4  C   -0.071993
     5  C   -0.069302
     6  N   -0.280550
     7  C    0.128665
     8  C    0.013198
     9  C   -0.007661
    10  C    0.109197
    11  C   -0.047022
    12  C   -0.014828
    13  C   -0.003308
    14  C    0.469907
    15  O   -0.526141
    16  O   -0.247580
    17  N   -0.309144
    18  C    0.081740
    19  C   -0.009318
    20  C   -0.052683
    21  C    0.147361
    22  C   -0.054807
    23  C    0.330022
    24  O   -0.545761
    25  C   -0.026324
    26  N   -0.260102
    27  C    0.121228
    28  C   -0.002688
    29  C    0.006223
    30  C    0.149447
    31  C   -0.047320
    32  C   -0.020100
    33  C   -0.056415
    34  N   -0.335471
    35  C    0.109565
    36  C    0.052105
    37  C   -0.050291
    38  C    0.108322
    39  C   -0.032409
    40  C    0.349126
    41  O   -0.515955
    42  C    0.076052
    43  C    0.495042
    44  O   -0.542525
    45  O   -0.263075
    46  C    0.078786
    47  C    0.102880
    48  C   -0.098154
    49  C   -0.020033
    50  C   -0.042207
    51  C   -0.018230
    52  C   -0.030133
    53  C   -0.024368
    54  C   -0.016091
    55  C   -0.059571
    56  C   -0.035419
    57  C   -0.047947
    58  C   -0.041586
    59  C   -0.015307
    60  C   -0.055935
    61  C   -0.040195
    62  C   -0.043216
    63  C   -0.029346
    64  C   -0.003697
    65  C   -0.063150
    66  C   -0.058310
    67  H    0.027957
    68  H    0.046429
    69  H    0.021080
    70  H    0.030862
    71  H    0.023630
    72  H    0.028425
    73  H    0.014480
    74  H    0.024792
    75  H    0.036750
    76  H    0.024371
    77  H    0.032752
    78  H    0.043315
    79  H    0.035937
    80  H    0.027435
    81  H    0.017303
    82  H    0.023695
    83  H    0.050239
    84  H    0.039506
    85  H    0.029636
    86  H    0.022628
    87  H    0.029851
    88  H    0.030476
    89  H    0.022667
    90  H    0.015442
    91  H    0.017852
    92  H    0.013433
    93  H    0.016371
    94  H    0.030475
    95  H    0.026904
    96  H    0.037220
    97  H    0.034767
    98  H    0.054554
    99  H    0.049584
   100  H    0.035238
   101  H    0.033022
   102  H    0.067526
   103  H    0.048955
   104  H    0.028142
   105  H    0.034636
   106  H    0.023526
   107  H    0.025336
   108  H    0.023705
   109  H    0.016706
   110  H    0.012090
   111  H    0.020837
   112  H    0.016977
   113  H    0.017023
   114  H    0.009771
   115  H    0.019863
   116  H    0.013845
   117  H    0.023731
   118  H    0.025941
   119  H    0.012926
   120  H    0.017175
   121  H    0.010290
   122  H    0.019163
   123  H    0.025063
   124  H    0.013568
   125  H    0.022729
   126  H    0.019911
   127  H    0.028135
   128  H    0.018172
   129  H    0.017576
   130  H    0.009825
   131  H    0.018254
   132  H    0.022818
   133  H    0.013916
   134  H    0.026783
   135  H    0.017555
   136  H    0.016555
   137  H    0.014022
   138  H    0.013242
   139  H    0.023009
   140  H    0.025878
 Sum of Mulliken charges =  -0.00000

 Dipole moment (field-independent basis, Debye):
    X=              3.8946    Y=              2.4463    Z=             -0.0617  Tot=              4.5996
 N-N= 4.335500396799D+03 E-N= 0.000000000000D+00  KE=-9.344985836410D+03
 Leave Link  601 at Wed May  4 08:20:10 2022, MaxMem=  6710886400 cpu:               0.8 elap:               0.1
 (Enter /sw/apps/gaussian-16.0/g16/l9999.exe)
 1\1\GINC-BP1-COMPUTE092\SP\RZINDO CIS\STO-3G\C55H74Mg1N4O6\OF15641\04-
 May-2022\0\\#p ZINDO=(nstates=5)\\step_1501_chromophore_13 ZINDO\\0,1\
 Mg,0,46.167,24.995,28.774\C,0,47.112,27.441,31.288\C,0,45.181,22.89,31
 .195\C,0,46.089,22.644,26.462\C,0,47.389,27.28,26.398\N,0,46.255,25.16
 3,30.993\C,0,46.519,26.254,31.809\C,0,45.928,26.024,33.232\C,0,45.71,2
 4.414,33.224\C,0,45.687,24.117,31.691\C,0,46.667,23.355,33.884\C,0,44.
 658,26.837,33.575\C,0,44.879,27.924,34.695\C,0,43.935,27.89,35.886\O,0

 Normal termination of Gaussian 16 at Wed May  4 08:20:10 2022.
