 Gaussian 16, Revision A.03,
 Gaussian 16:  ES64L-G16RevA.03 25-Dec-2016

 ------------------------------
 #p blyp/Def2SVP td=(nstates=5)
 ------------------------------

 ---------------------------------------------------
 step_1751_chromophore_27 TDDFT with blyp functional
 ---------------------------------------------------
 Symbolic Z-matrix:
 Charge =  0 Multiplicity = 1

                         Standard orientation:
 ---------------------------------------------------------------------
 Center     Atomic      Atomic             Coordinates (Angstroms)
 Number     Number       Type             X           Y           Z
 ---------------------------------------------------------------------
      1         12           0       -4.701988    0.967811   -0.220467
      2          6           0       -4.235499   -2.492259    0.445236
      3          6           0       -1.299165    1.426182    0.056710
      4          6           0       -5.286802    4.162027   -0.351900
      5          6           0       -8.139915    0.370530    0.362535
      6          7           0       -3.060792   -0.400968    0.165328
      7          6           0       -3.093935   -1.771589    0.383954
      8          6           0       -1.652466   -2.348038    0.256325
      9          6           0       -0.733117   -1.054783    0.529619
     10          6           0       -1.725198    0.048155    0.181872
     11          6           0       -0.264266   -0.739929    2.055437
     12          6           0       -1.342442   -3.050874   -1.116780
     13          6           0       -0.553368   -4.306404   -1.086247
     14          6           0        0.810281   -4.279925   -1.833651
     15          8           0        1.021570   -4.456604   -3.055613
     16          8           0        1.807901   -3.896877   -1.031313
     17          7           0       -3.500608    2.534723   -0.447307
     18          6           0       -2.091166    2.553614   -0.226962
     19          6           0       -1.636391    3.874742   -0.468456
     20          6           0       -2.793373    4.668686   -0.771176
     21          6           0       -3.947564    3.805867   -0.537266
     22          6           0       -0.173563    4.178813   -0.452510
     23          6           0       -2.805748    6.082982   -1.338341
     24          8           0       -3.862392    6.588625   -1.642778
     25          6           0       -1.511942    6.887971   -1.256198
     26          7           0       -6.424125    2.082531    0.102915
     27          6           0       -6.433748    3.431890   -0.044178
     28          6           0       -7.814027    4.063748   -0.038157
     29          6           0       -8.706999    2.844379    0.363329
     30          6           0       -7.731644    1.690620    0.285847
     31          6           0       -7.875879    5.149221    1.055791
     32          6           0       -9.810354    2.641123   -0.682116
     33          6           0      -11.262356    2.710631   -0.105816
     34          7           0       -6.023742   -0.740143    0.081222
     35          6           0       -7.360886   -0.824299    0.373231
     36          6           0       -7.759751   -2.258094    0.560044
     37          6           0       -6.545017   -2.942640    0.524667
     38          6           0       -5.528256   -1.976219    0.346528
     39          6           0       -9.116083   -2.730515    0.778632
     40          6           0       -5.941464   -4.242725    0.590339
     41          8           0       -6.503983   -5.300169    0.782189
     42          6           0       -4.305878   -4.043116    0.514818
     43          6           0       -3.715486   -4.601694    1.672815
     44          8           0       -3.943301   -4.193109    2.835993
     45          8           0       -2.872862   -5.624341    1.331167
     46          6           0       -1.983724   -6.019248    2.467792
     47          6           0        3.184494   -4.269864   -1.477653
     48          6           0        4.001719   -3.100761   -1.763153
     49          6           0        5.376042   -2.847753   -1.506616
     50          6           0        6.464485   -3.769165   -1.068887
     51          6           0        5.965817   -1.489707   -1.765608
     52          6           0        6.656555   -1.333565   -3.130513
     53          6           0        8.179506   -1.029317   -3.019298
     54          6           0        8.651964    0.267671   -3.639191
     55          6           0        8.859386    0.018484   -5.158106
     56          6           0        9.956078    0.818125   -2.995450
     57          6           0        9.619434    2.006987   -2.146556
     58          6           0       10.857274    2.267102   -1.135315
     59          6           0       10.483913    1.759750    0.201163
     60          6           0       10.809636    0.223762    0.399536
     61          6           0       11.188940    2.533152    1.320499
     62          6           0       10.455568    2.595910    2.634828
     63          6           0       10.881041    1.500368    3.645885
     64          6           0       10.605901    1.812012    5.115019
     65          6           0       11.556675    1.059235    6.096007
     66          6           0        9.134065    1.654545    5.553170
     67          1           0       -0.209527    1.471992    0.016694
     68          1           0       -5.301620    5.253017   -0.385768
     69          1           0       -9.154908    0.049179    0.606549
     70          1           0       -1.572897   -2.974087    1.146006
     71          1           0        0.093195   -1.114760   -0.178182
     72          1           0       -0.627025   -1.578191    2.649831
     73          1           0       -0.582262    0.244273    2.399375
     74          1           0        0.822987   -0.772716    1.980638
     75          1           0       -0.813705   -2.375955   -1.789332
     76          1           0       -2.278939   -3.225950   -1.646476
     77          1           0       -1.126786   -5.184006   -1.385671
     78          1           0       -0.328521   -4.488945   -0.036249
     79          1           0        0.350981    4.035036   -1.396317
     80          1           0        0.357973    3.540930    0.253901
     81          1           0        0.254242    5.132665   -0.143302
     82          1           0       -0.781154    6.310342   -1.821556
     83          1           0       -1.132925    6.792711   -0.238996
     84          1           0       -1.377672    7.842997   -1.766309
     85          1           0       -8.035609    4.405689   -1.049490
     86          1           0       -9.048890    2.758603    1.395213
     87          1           0       -7.056110    4.949280    1.745781
     88          1           0       -8.810767    5.167048    1.615583
     89          1           0       -7.768138    6.180095    0.717367
     90          1           0       -9.674388    1.732866   -1.269074
     91          1           0       -9.832612    3.374076   -1.488996
     92          1           0      -11.843416    1.791513   -0.176933
     93          1           0      -11.897106    3.373047   -0.695420
     94          1           0      -11.319878    3.052381    0.926664
     95          1           0       -9.345967   -3.757615    0.496626
     96          1           0       -9.903486   -2.067959    0.421124
     97          1           0       -9.130674   -2.702335    1.868215
     98          1           0       -3.897135   -4.364486   -0.443700
     99          1           0       -1.239233   -6.681008    2.025820
    100          1           0       -2.421446   -6.634416    3.254414
    101          1           0       -1.513985   -5.151666    2.932580
    102          1           0        3.255449   -4.950295   -2.327597
    103          1           0        3.664254   -4.817604   -0.666235
    104          1           0        3.440170   -2.223476   -2.082671
    105          1           0        6.961982   -3.428879   -0.160073
    106          1           0        7.115114   -3.852778   -1.938359
    107          1           0        6.129930   -4.766010   -0.783297
    108          1           0        6.686466   -1.192859   -1.004770
    109          1           0        5.102689   -0.828953   -1.677402
    110          1           0        6.168989   -0.480154   -3.599930
    111          1           0        6.518309   -2.178892   -3.805220
    112          1           0        8.706739   -1.864546   -3.481101
    113          1           0        8.486130   -0.925581   -1.977824
    114          1           0        7.832253    0.979416   -3.543116
    115          1           0        9.921832    0.034712   -5.401817
    116          1           0        8.444743    0.714442   -5.887810
    117          1           0        8.601457   -1.001804   -5.442370
    118          1           0       10.712544    1.188272   -3.686484
    119          1           0       10.565982    0.050986   -2.519488
    120          1           0        8.692313    1.827370   -1.603959
    121          1           0        9.450809    2.868935   -2.791536
    122          1           0       11.151625    3.316803   -1.113726
    123          1           0       11.712931    1.712180   -1.518730
    124          1           0        9.415688    1.780146    0.415440
    125          1           0       11.843985    0.011331    0.129832
    126          1           0       10.042416   -0.333696   -0.138199
    127          1           0       10.689412   -0.204362    1.394791
    128          1           0       11.334158    3.564260    0.997839
    129          1           0       12.148679    2.056465    1.518167
    130          1           0        9.408627    2.324726    2.500043
    131          1           0       10.521494    3.587143    3.082835
    132          1           0       11.960995    1.368911    3.577082
    133          1           0       10.321352    0.622615    3.322514
    134          1           0       10.640304    2.874899    5.355379
    135          1           0       12.570787    1.315691    5.788504
    136          1           0       11.417311   -0.022222    6.094409
    137          1           0       11.524023    1.400156    7.131100
    138          1           0        8.531794    1.548604    4.650883
    139          1           0        8.597021    2.394654    6.147037
    140          1           0        9.042106    0.744009    6.145430
 ---------------------------------------------------------------------

 SCF Done:  E(RB-LYP) =  -3007.34535366     A.U. after   20 cycles

 Excitation energies and oscillator strengths:

 Excited State   1:      Singlet-A      1.7864 eV  694.04 nm  f=0.3110  <S**2>=0.000
     245 -> 248        0.18688
     246 -> 247        0.69346
     246 <- 247       -0.15827
 This state for optimization and/or second-order correction.
 Total Energy, E(TD-HF/TD-DFT) =  -3007.27970457
 Copying the excited state density for this state as the 1-particle RhoCI density.

 Excited State   2:      Singlet-A      1.9587 eV  633.00 nm  f=0.0241  <S**2>=0.000
     244 -> 247        0.51976
     245 -> 247       -0.44002
     246 -> 248        0.14055

 Excited State   3:      Singlet-A      2.0406 eV  607.58 nm  f=0.0285  <S**2>=0.000
     243 -> 247        0.23529
     244 -> 247        0.46596
     245 -> 247        0.42258
     246 -> 248       -0.19803

 Excited State   4:      Singlet-A      2.1200 eV  584.83 nm  f=0.0089  <S**2>=0.000
     243 -> 247        0.65685
     245 -> 247       -0.19492
     246 -> 248        0.12610

 Excited State   5:      Singlet-A      2.2071 eV  561.75 nm  f=0.0002  <S**2>=0.000
     242 -> 247        0.70697

 The electronic state is 1-A.
 Alpha  occ. eigenvalues --  -46.26102 -18.83018 -18.82925 -18.76303 -18.76218
 Alpha  occ. eigenvalues --  -18.76109 -18.75486 -14.03327 -14.03205 -14.00620
 Alpha  occ. eigenvalues --  -14.00606 -10.04436 -10.03500  -9.99966  -9.99955
 Alpha  occ. eigenvalues --   -9.98501  -9.98144  -9.96944  -9.96253  -9.96248
 Alpha  occ. eigenvalues --   -9.95950  -9.95601  -9.95566  -9.95518  -9.94719
 Alpha  occ. eigenvalues --   -9.94638  -9.94163  -9.94069  -9.94067  -9.93847
 Alpha  occ. eigenvalues --   -9.93831  -9.93786  -9.93775  -9.93765  -9.93682
 Alpha  occ. eigenvalues --   -9.93252  -9.93132  -9.93112  -9.92973  -9.92671
 Alpha  occ. eigenvalues --   -9.92662  -9.92614  -9.92564  -9.92425  -9.92404
 Alpha  occ. eigenvalues --   -9.92107  -9.92050  -9.92011  -9.92004  -9.91989
 Alpha  occ. eigenvalues --   -9.91971  -9.91780  -9.91745  -9.91565  -9.91536
 Alpha  occ. eigenvalues --   -9.91395  -9.91324  -9.91197  -9.91151  -9.91035
 Alpha  occ. eigenvalues --   -9.90966  -9.90922  -9.90895  -9.90627  -9.90581
 Alpha  occ. eigenvalues --   -9.90575  -2.90920  -1.71339  -1.70798  -1.70645
 Alpha  occ. eigenvalues --   -0.98585  -0.97336  -0.92084  -0.91980  -0.88518
 Alpha  occ. eigenvalues --   -0.88262  -0.86554  -0.85579  -0.84886  -0.83937
 Alpha  occ. eigenvalues --   -0.75299  -0.74326  -0.73755  -0.73029  -0.72781
 Alpha  occ. eigenvalues --   -0.72468  -0.71911  -0.71265  -0.71025  -0.70638
 Alpha  occ. eigenvalues --   -0.69829  -0.69398  -0.68465  -0.67741  -0.67563
 Alpha  occ. eigenvalues --   -0.66710  -0.65953  -0.65669  -0.65335  -0.64561
 Alpha  occ. eigenvalues --   -0.64109  -0.62797  -0.62338  -0.62050  -0.61138
 Alpha  occ. eigenvalues --   -0.60651  -0.60303  -0.60166  -0.59935  -0.59103
 Alpha  occ. eigenvalues --   -0.58261  -0.57684  -0.56997  -0.55920  -0.54805
 Alpha  occ. eigenvalues --   -0.54312  -0.54096  -0.52681  -0.52564  -0.52250
 Alpha  occ. eigenvalues --   -0.51633  -0.51024  -0.50702  -0.50436  -0.50355
 Alpha  occ. eigenvalues --   -0.50111  -0.49462  -0.49046  -0.48356  -0.47202
 Alpha  occ. eigenvalues --   -0.47170  -0.45954  -0.45521  -0.45128  -0.44847
 Alpha  occ. eigenvalues --   -0.44526  -0.44302  -0.43184  -0.42740  -0.42477
 Alpha  occ. eigenvalues --   -0.42141  -0.42041  -0.41891  -0.41589  -0.41212
 Alpha  occ. eigenvalues --   -0.41090  -0.41074  -0.40704  -0.40328  -0.40134
 Alpha  occ. eigenvalues --   -0.39876  -0.39589  -0.39469  -0.39401  -0.39335
 Alpha  occ. eigenvalues --   -0.38988  -0.38713  -0.38623  -0.38571  -0.38453
 Alpha  occ. eigenvalues --   -0.38087  -0.37911  -0.37602  -0.37476  -0.37329
 Alpha  occ. eigenvalues --   -0.37257  -0.37017  -0.36800  -0.36662  -0.36505
 Alpha  occ. eigenvalues --   -0.36283  -0.36135  -0.36046  -0.35715  -0.35620
 Alpha  occ. eigenvalues --   -0.35596  -0.35408  -0.34814  -0.34688  -0.34593
 Alpha  occ. eigenvalues --   -0.34529  -0.34509  -0.34168  -0.34098  -0.33900
 Alpha  occ. eigenvalues --   -0.33745  -0.33533  -0.33514  -0.33252  -0.33188
 Alpha  occ. eigenvalues --   -0.33120  -0.32896  -0.32729  -0.32397  -0.32297
 Alpha  occ. eigenvalues --   -0.32229  -0.31998  -0.31854  -0.31815  -0.31758
 Alpha  occ. eigenvalues --   -0.31645  -0.31322  -0.31104  -0.31038  -0.30870
 Alpha  occ. eigenvalues --   -0.30657  -0.30565  -0.30556  -0.30413  -0.29984
 Alpha  occ. eigenvalues --   -0.29799  -0.29724  -0.29688  -0.29657  -0.29106
 Alpha  occ. eigenvalues --   -0.29065  -0.28739  -0.28660  -0.27976  -0.27676
 Alpha  occ. eigenvalues --   -0.27628  -0.27456  -0.27331  -0.26896  -0.26656
 Alpha  occ. eigenvalues --   -0.26423  -0.26280  -0.26268  -0.25875  -0.25742
 Alpha  occ. eigenvalues --   -0.25299  -0.25187  -0.24945  -0.23917  -0.23571
 Alpha  occ. eigenvalues --   -0.23380  -0.22106  -0.21484  -0.21220  -0.20308
 Alpha  occ. eigenvalues --   -0.20122  -0.19510  -0.19041  -0.18624  -0.17296
 Alpha  occ. eigenvalues --   -0.15524
 Alpha virt. eigenvalues --   -0.11399  -0.06842  -0.06030  -0.04673  -0.03733
 Alpha virt. eigenvalues --   -0.03461  -0.03313  -0.02100  -0.01457   0.00447
 Alpha virt. eigenvalues --    0.01448   0.01669   0.02117   0.02535   0.02719

 Mulliken charges:
               1
     1  Mg   0.712727
     2  C   -0.033405
     3  C   -0.070125
     4  C   -0.019759
     5  C   -0.062735
     6  N   -0.252648
     7  C   -0.119216
     8  C    0.034684
     9  C   -0.040382
    10  C    0.000593
    11  C    0.125124
    12  C    0.141666
    13  C    0.168214
    14  C    0.049453
    15  O   -0.220725
    16  O   -0.253732
    17  N   -0.361166
    18  C    0.192250
    19  C   -0.065713
    20  C   -0.008715
    21  C    0.077617
    22  C    0.117879
    23  C   -0.049486
    24  O   -0.149118
    25  C    0.130002
    26  N   -0.234648
    27  C    0.039262
    28  C    0.055952
    29  C    0.083335
    30  C    0.027307
    31  C    0.111039
    32  C    0.096450
    33  C    0.046176
    34  N   -0.219570
    35  C    0.025576
    36  C   -0.152530
    37  C    0.125137
    38  C    0.096570
    39  C    0.164960
    40  C   -0.079732
    41  O   -0.115107
    42  C    0.113825
    43  C    0.126609
    44  O   -0.220306
    45  O   -0.269792
    46  C    0.220757
    47  C    0.349072
    48  C   -0.096034
    49  C   -0.176092
    50  C    0.152380
    51  C    0.125273
    52  C    0.096870
    53  C    0.083440
    54  C   -0.061349
    55  C    0.107073
    56  C    0.092958
    57  C    0.056296
    58  C    0.153933
    59  C   -0.075058
    60  C    0.069803
    61  C    0.148384
    62  C    0.069992
    63  C    0.078512
    64  C   -0.053519
    65  C    0.094567
    66  C    0.077937
    67  H   -0.052460
    68  H   -0.054577
    69  H   -0.071970
    70  H   -0.025123
    71  H   -0.017064
    72  H    0.005634
    73  H    0.018492
    74  H   -0.001634
    75  H   -0.011005
    76  H   -0.015236
    77  H    0.005930
    78  H   -0.024465
    79  H    0.000556
    80  H   -0.014472
    81  H   -0.022354
    82  H   -0.017479
    83  H    0.021826
    84  H   -0.007262
    85  H   -0.002458
    86  H   -0.009306
    87  H   -0.003096
    88  H   -0.012133
    89  H   -0.001780
    90  H   -0.018665
    91  H   -0.025490
    92  H   -0.013838
    93  H   -0.020086
    94  H   -0.008732
    95  H    0.009889
    96  H   -0.003949
    97  H    0.010737
    98  H   -0.008419
    99  H    0.006201
   100  H    0.021606
   101  H    0.017395
   102  H    0.016926
   103  H   -0.012697
   104  H   -0.037752
   105  H   -0.001207
   106  H    0.007770
   107  H   -0.031227
   108  H   -0.032142
   109  H   -0.037400
   110  H   -0.029552
   111  H   -0.017087
   112  H   -0.030783
   113  H   -0.027617
   114  H   -0.036297
   115  H   -0.034264
   116  H   -0.015517
   117  H   -0.030618
   118  H   -0.040190
   119  H   -0.032803
   120  H   -0.028097
   121  H   -0.027079
   122  H   -0.039795
   123  H   -0.035133
   124  H   -0.042129
   125  H   -0.011941
   126  H   -0.020697
   127  H   -0.027862
   128  H   -0.045691
   129  H   -0.042208
   130  H   -0.038967
   131  H   -0.034512
   132  H   -0.036568
   133  H   -0.015341
   134  H   -0.036430
   135  H   -0.020989
   136  H   -0.008946
   137  H   -0.020964
   138  H   -0.032371
   139  H   -0.015013
   140  H   -0.031018
 Sum of Mulliken charges =  -0.00000

 Dipole moment (field-independent basis, Debye):
    X=              4.1897    Y=              2.1696    Z=              0.9768  Tot=              4.8182
 Quadrupole moment (field-independent basis, Debye-Ang):
   XX=           -372.7747   YY=           -428.3289   ZZ=           -421.2209
   XY=            -23.3326   XZ=              2.7192   YZ=              1.1550

 Normal termination of Gaussian 16 at Wed May  4 14:02:45 2022.
