 Gaussian 16, Revision A.03,
 Gaussian 16:  ES64L-G16RevA.03 25-Dec-2016

 -----------------------------------
 #p cam-b3lyp/Def2SVP td=(nstates=5)
 -----------------------------------

 --------------------------------------------------------
 step_1751_chromophore_27 TDDFT with cam-b3lyp functional
 --------------------------------------------------------
 Symbolic Z-matrix:
 Charge =  0 Multiplicity = 1

                         Standard orientation:
 ---------------------------------------------------------------------
 Center     Atomic      Atomic             Coordinates (Angstroms)
 Number     Number       Type             X           Y           Z
 ---------------------------------------------------------------------
      1         12           0       -4.701988    0.967811   -0.220467
      2          6           0       -4.235499   -2.492259    0.445236
      3          6           0       -1.299165    1.426182    0.056710
      4          6           0       -5.286802    4.162027   -0.351900
      5          6           0       -8.139915    0.370530    0.362535
      6          7           0       -3.060792   -0.400968    0.165328
      7          6           0       -3.093935   -1.771589    0.383954
      8          6           0       -1.652466   -2.348038    0.256325
      9          6           0       -0.733117   -1.054783    0.529619
     10          6           0       -1.725198    0.048155    0.181872
     11          6           0       -0.264266   -0.739929    2.055437
     12          6           0       -1.342442   -3.050874   -1.116780
     13          6           0       -0.553368   -4.306404   -1.086247
     14          6           0        0.810281   -4.279925   -1.833651
     15          8           0        1.021570   -4.456604   -3.055613
     16          8           0        1.807901   -3.896877   -1.031313
     17          7           0       -3.500608    2.534723   -0.447307
     18          6           0       -2.091166    2.553614   -0.226962
     19          6           0       -1.636391    3.874742   -0.468456
     20          6           0       -2.793373    4.668686   -0.771176
     21          6           0       -3.947564    3.805867   -0.537266
     22          6           0       -0.173563    4.178813   -0.452510
     23          6           0       -2.805748    6.082982   -1.338341
     24          8           0       -3.862392    6.588625   -1.642778
     25          6           0       -1.511942    6.887971   -1.256198
     26          7           0       -6.424125    2.082531    0.102915
     27          6           0       -6.433748    3.431890   -0.044178
     28          6           0       -7.814027    4.063748   -0.038157
     29          6           0       -8.706999    2.844379    0.363329
     30          6           0       -7.731644    1.690620    0.285847
     31          6           0       -7.875879    5.149221    1.055791
     32          6           0       -9.810354    2.641123   -0.682116
     33          6           0      -11.262356    2.710631   -0.105816
     34          7           0       -6.023742   -0.740143    0.081222
     35          6           0       -7.360886   -0.824299    0.373231
     36          6           0       -7.759751   -2.258094    0.560044
     37          6           0       -6.545017   -2.942640    0.524667
     38          6           0       -5.528256   -1.976219    0.346528
     39          6           0       -9.116083   -2.730515    0.778632
     40          6           0       -5.941464   -4.242725    0.590339
     41          8           0       -6.503983   -5.300169    0.782189
     42          6           0       -4.305878   -4.043116    0.514818
     43          6           0       -3.715486   -4.601694    1.672815
     44          8           0       -3.943301   -4.193109    2.835993
     45          8           0       -2.872862   -5.624341    1.331167
     46          6           0       -1.983724   -6.019248    2.467792
     47          6           0        3.184494   -4.269864   -1.477653
     48          6           0        4.001719   -3.100761   -1.763153
     49          6           0        5.376042   -2.847753   -1.506616
     50          6           0        6.464485   -3.769165   -1.068887
     51          6           0        5.965817   -1.489707   -1.765608
     52          6           0        6.656555   -1.333565   -3.130513
     53          6           0        8.179506   -1.029317   -3.019298
     54          6           0        8.651964    0.267671   -3.639191
     55          6           0        8.859386    0.018484   -5.158106
     56          6           0        9.956078    0.818125   -2.995450
     57          6           0        9.619434    2.006987   -2.146556
     58          6           0       10.857274    2.267102   -1.135315
     59          6           0       10.483913    1.759750    0.201163
     60          6           0       10.809636    0.223762    0.399536
     61          6           0       11.188940    2.533152    1.320499
     62          6           0       10.455568    2.595910    2.634828
     63          6           0       10.881041    1.500368    3.645885
     64          6           0       10.605901    1.812012    5.115019
     65          6           0       11.556675    1.059235    6.096007
     66          6           0        9.134065    1.654545    5.553170
     67          1           0       -0.209527    1.471992    0.016694
     68          1           0       -5.301620    5.253017   -0.385768
     69          1           0       -9.154908    0.049179    0.606549
     70          1           0       -1.572897   -2.974087    1.146006
     71          1           0        0.093195   -1.114760   -0.178182
     72          1           0       -0.627025   -1.578191    2.649831
     73          1           0       -0.582262    0.244273    2.399375
     74          1           0        0.822987   -0.772716    1.980638
     75          1           0       -0.813705   -2.375955   -1.789332
     76          1           0       -2.278939   -3.225950   -1.646476
     77          1           0       -1.126786   -5.184006   -1.385671
     78          1           0       -0.328521   -4.488945   -0.036249
     79          1           0        0.350981    4.035036   -1.396317
     80          1           0        0.357973    3.540930    0.253901
     81          1           0        0.254242    5.132665   -0.143302
     82          1           0       -0.781154    6.310342   -1.821556
     83          1           0       -1.132925    6.792711   -0.238996
     84          1           0       -1.377672    7.842997   -1.766309
     85          1           0       -8.035609    4.405689   -1.049490
     86          1           0       -9.048890    2.758603    1.395213
     87          1           0       -7.056110    4.949280    1.745781
     88          1           0       -8.810767    5.167048    1.615583
     89          1           0       -7.768138    6.180095    0.717367
     90          1           0       -9.674388    1.732866   -1.269074
     91          1           0       -9.832612    3.374076   -1.488996
     92          1           0      -11.843416    1.791513   -0.176933
     93          1           0      -11.897106    3.373047   -0.695420
     94          1           0      -11.319878    3.052381    0.926664
     95          1           0       -9.345967   -3.757615    0.496626
     96          1           0       -9.903486   -2.067959    0.421124
     97          1           0       -9.130674   -2.702335    1.868215
     98          1           0       -3.897135   -4.364486   -0.443700
     99          1           0       -1.239233   -6.681008    2.025820
    100          1           0       -2.421446   -6.634416    3.254414
    101          1           0       -1.513985   -5.151666    2.932580
    102          1           0        3.255449   -4.950295   -2.327597
    103          1           0        3.664254   -4.817604   -0.666235
    104          1           0        3.440170   -2.223476   -2.082671
    105          1           0        6.961982   -3.428879   -0.160073
    106          1           0        7.115114   -3.852778   -1.938359
    107          1           0        6.129930   -4.766010   -0.783297
    108          1           0        6.686466   -1.192859   -1.004770
    109          1           0        5.102689   -0.828953   -1.677402
    110          1           0        6.168989   -0.480154   -3.599930
    111          1           0        6.518309   -2.178892   -3.805220
    112          1           0        8.706739   -1.864546   -3.481101
    113          1           0        8.486130   -0.925581   -1.977824
    114          1           0        7.832253    0.979416   -3.543116
    115          1           0        9.921832    0.034712   -5.401817
    116          1           0        8.444743    0.714442   -5.887810
    117          1           0        8.601457   -1.001804   -5.442370
    118          1           0       10.712544    1.188272   -3.686484
    119          1           0       10.565982    0.050986   -2.519488
    120          1           0        8.692313    1.827370   -1.603959
    121          1           0        9.450809    2.868935   -2.791536
    122          1           0       11.151625    3.316803   -1.113726
    123          1           0       11.712931    1.712180   -1.518730
    124          1           0        9.415688    1.780146    0.415440
    125          1           0       11.843985    0.011331    0.129832
    126          1           0       10.042416   -0.333696   -0.138199
    127          1           0       10.689412   -0.204362    1.394791
    128          1           0       11.334158    3.564260    0.997839
    129          1           0       12.148679    2.056465    1.518167
    130          1           0        9.408627    2.324726    2.500043
    131          1           0       10.521494    3.587143    3.082835
    132          1           0       11.960995    1.368911    3.577082
    133          1           0       10.321352    0.622615    3.322514
    134          1           0       10.640304    2.874899    5.355379
    135          1           0       12.570787    1.315691    5.788504
    136          1           0       11.417311   -0.022222    6.094409
    137          1           0       11.524023    1.400156    7.131100
    138          1           0        8.531794    1.548604    4.650883
    139          1           0        8.597021    2.394654    6.147037
    140          1           0        9.042106    0.744009    6.145430
 ---------------------------------------------------------------------

 SCF Done:  E(RCAM-B3LYP) =  -3007.13654559     A.U. after   18 cycles

 Excitation energies and oscillator strengths:

 Excited State   1:      Singlet-A      1.6617 eV  746.14 nm  f=0.3868  <S**2>=0.000
     245 -> 248       -0.17809
     246 -> 247        0.68709
     245 <- 248       -0.10919
 This state for optimization and/or second-order correction.
 Total Energy, E(TD-HF/TD-DFT) =  -3007.07548002
 Copying the excited state density for this state as the 1-particle RhoCI density.

 Excited State   2:      Singlet-A      2.2471 eV  551.75 nm  f=0.0827  <S**2>=0.000
     245 -> 247        0.62336
     246 -> 248        0.32008

 Excited State   3:      Singlet-A      3.3384 eV  371.39 nm  f=0.0563  <S**2>=0.000
     242 -> 247        0.58883
     243 -> 247       -0.24290
     246 -> 248       -0.26927

 Excited State   4:      Singlet-A      3.4124 eV  363.34 nm  f=0.1560  <S**2>=0.000
     243 -> 247        0.55766
     245 -> 247        0.15456
     246 -> 248       -0.37658

 Excited State   5:      Singlet-A      3.5488 eV  349.37 nm  f=0.5023  <S**2>=0.000
     240 -> 247       -0.11167
     240 -> 249        0.11579
     241 -> 247        0.21314
     242 -> 247        0.31555
     243 -> 247        0.28070
     245 -> 247       -0.25648
     246 -> 248        0.38557

 The electronic state is 1-A.
 Alpha  occ. eigenvalues --  -46.87524 -19.26177 -19.25850 -19.19431 -19.19243
 Alpha  occ. eigenvalues --  -19.19162 -19.18833 -14.42295 -14.42005 -14.39051
 Alpha  occ. eigenvalues --  -14.38948 -10.39708 -10.39117 -10.35293 -10.35267
 Alpha  occ. eigenvalues --  -10.32599 -10.32336 -10.31612 -10.30746 -10.30448
 Alpha  occ. eigenvalues --  -10.30284 -10.30090 -10.30067 -10.29572 -10.28873
 Alpha  occ. eigenvalues --  -10.28735 -10.28534 -10.28338 -10.28252 -10.28247
 Alpha  occ. eigenvalues --  -10.28059 -10.27924 -10.27752 -10.27691 -10.27549
 Alpha  occ. eigenvalues --  -10.27509 -10.27351 -10.27116 -10.27024 -10.26876
 Alpha  occ. eigenvalues --  -10.26684 -10.26362 -10.26312 -10.26284 -10.26209
 Alpha  occ. eigenvalues --  -10.25904 -10.25784 -10.25745 -10.25740 -10.25733
 Alpha  occ. eigenvalues --  -10.25672 -10.25523 -10.25506 -10.25302 -10.25256
 Alpha  occ. eigenvalues --  -10.25095 -10.25036 -10.24897 -10.24867 -10.24774
 Alpha  occ. eigenvalues --  -10.24681 -10.24645 -10.24600 -10.24284 -10.24209
 Alpha  occ. eigenvalues --  -10.24201  -3.16255  -1.91148  -1.90712  -1.90574
 Alpha  occ. eigenvalues --   -1.17032  -1.15983  -1.10652  -1.10298  -1.06577
 Alpha  occ. eigenvalues --   -1.06080  -1.04192  -1.03075  -1.02533  -1.01456
 Alpha  occ. eigenvalues --   -0.92384  -0.91272  -0.90646  -0.89809  -0.89412
 Alpha  occ. eigenvalues --   -0.89231  -0.88625  -0.87903  -0.87555  -0.87174
 Alpha  occ. eigenvalues --   -0.86386  -0.85762  -0.84826  -0.83937  -0.83734
 Alpha  occ. eigenvalues --   -0.82802  -0.82023  -0.81663  -0.81261  -0.80501
 Alpha  occ. eigenvalues --   -0.79911  -0.78556  -0.78027  -0.77539  -0.76585
 Alpha  occ. eigenvalues --   -0.76054  -0.75698  -0.75559  -0.75171  -0.74375
 Alpha  occ. eigenvalues --   -0.73257  -0.72623  -0.71903  -0.70760  -0.69324
 Alpha  occ. eigenvalues --   -0.68934  -0.68697  -0.67105  -0.67029  -0.66343
 Alpha  occ. eigenvalues --   -0.65906  -0.65184  -0.64771  -0.64362  -0.64348
 Alpha  occ. eigenvalues --   -0.64029  -0.63434  -0.63008  -0.62096  -0.60918
 Alpha  occ. eigenvalues --   -0.60755  -0.59558  -0.58897  -0.58773  -0.58211
 Alpha  occ. eigenvalues --   -0.57892  -0.57778  -0.56410  -0.55866  -0.55544
 Alpha  occ. eigenvalues --   -0.55327  -0.55115  -0.54883  -0.54727  -0.54071
 Alpha  occ. eigenvalues --   -0.53985  -0.53762  -0.53589  -0.53156  -0.52747
 Alpha  occ. eigenvalues --   -0.52613  -0.52377  -0.52269  -0.52122  -0.51810
 Alpha  occ. eigenvalues --   -0.51610  -0.51259  -0.51139  -0.51022  -0.50867
 Alpha  occ. eigenvalues --   -0.50496  -0.50247  -0.50126  -0.49805  -0.49569
 Alpha  occ. eigenvalues --   -0.49480  -0.49247  -0.49219  -0.49007  -0.48878
 Alpha  occ. eigenvalues --   -0.48730  -0.48562  -0.48215  -0.48079  -0.47752
 Alpha  occ. eigenvalues --   -0.47645  -0.47524  -0.46998  -0.46719  -0.46477
 Alpha  occ. eigenvalues --   -0.46441  -0.46365  -0.46095  -0.45844  -0.45727
 Alpha  occ. eigenvalues --   -0.45496  -0.45480  -0.45175  -0.44994  -0.44820
 Alpha  occ. eigenvalues --   -0.44798  -0.44565  -0.44475  -0.44059  -0.43984
 Alpha  occ. eigenvalues --   -0.43814  -0.43705  -0.43508  -0.43282  -0.43184
 Alpha  occ. eigenvalues --   -0.43060  -0.43034  -0.42713  -0.42627  -0.42393
 Alpha  occ. eigenvalues --   -0.42356  -0.42033  -0.41902  -0.41626  -0.41512
 Alpha  occ. eigenvalues --   -0.41322  -0.40989  -0.40829  -0.40727  -0.40277
 Alpha  occ. eigenvalues --   -0.40211  -0.39770  -0.39676  -0.38953  -0.38587
 Alpha  occ. eigenvalues --   -0.38575  -0.38459  -0.38189  -0.37809  -0.37700
 Alpha  occ. eigenvalues --   -0.37198  -0.37129  -0.37088  -0.36852  -0.36562
 Alpha  occ. eigenvalues --   -0.36453  -0.36383  -0.35547  -0.34750  -0.34215
 Alpha  occ. eigenvalues --   -0.33742  -0.33555  -0.32988  -0.31495  -0.30839
 Alpha  occ. eigenvalues --   -0.30681  -0.29606  -0.29343  -0.28966  -0.24165
 Alpha  occ. eigenvalues --   -0.20687
 Alpha virt. eigenvalues --   -0.08465  -0.01646   0.00541   0.02322   0.03335
 Alpha virt. eigenvalues --    0.03938   0.04013   0.04130   0.05273   0.06878
 Alpha virt. eigenvalues --    0.08080   0.08156   0.08396   0.08797   0.09345

 Mulliken charges:
               1
     1  Mg   0.846220
     2  C   -0.059217
     3  C   -0.085271
     4  C   -0.040830
     5  C   -0.068106
     6  N   -0.319496
     7  C   -0.068710
     8  C   -0.017897
     9  C   -0.086937
    10  C    0.018232
    11  C    0.070951
    12  C    0.081715
    13  C    0.101698
    14  C    0.128279
    15  O   -0.263419
    16  O   -0.317186
    17  N   -0.450718
    18  C    0.197187
    19  C   -0.078761
    20  C   -0.065224
    21  C    0.105810
    22  C    0.056949
    23  C    0.027502
    24  O   -0.188390
    25  C    0.046050
    26  N   -0.308733
    27  C    0.059967
    28  C   -0.003134
    29  C    0.021363
    30  C    0.050363
    31  C    0.054019
    32  C    0.034880
    33  C   -0.012470
    34  N   -0.301029
    35  C    0.030797
    36  C   -0.149853
    37  C    0.047559
    38  C    0.126107
    39  C    0.107105
    40  C    0.022826
    41  O   -0.155259
    42  C    0.030470
    43  C    0.216056
    44  O   -0.255516
    45  O   -0.332165
    46  C    0.179607
    47  C    0.309645
    48  C   -0.113110
    49  C   -0.196579
    50  C    0.091027
    51  C    0.064786
    52  C    0.039966
    53  C    0.035909
    54  C   -0.120427
    55  C    0.047852
    56  C    0.040497
    57  C    0.004271
    58  C    0.090847
    59  C   -0.127608
    60  C    0.019521
    61  C    0.086197
    62  C    0.020117
    63  C    0.024320
    64  C   -0.115418
    65  C    0.036291
    66  C    0.020560
    67  H   -0.016764
    68  H   -0.015646
    69  H   -0.037942
    70  H    0.004153
    71  H    0.016344
    72  H    0.028386
    73  H    0.043432
    74  H    0.022153
    75  H    0.021037
    76  H    0.016810
    77  H    0.038284
    78  H    0.008737
    79  H    0.029528
    80  H    0.014100
    81  H    0.007259
    82  H    0.010665
    83  H    0.048162
    84  H    0.028619
    85  H    0.032615
    86  H    0.025738
    87  H    0.022757
    88  H    0.012627
    89  H    0.023175
    90  H    0.013750
    91  H    0.004137
    92  H    0.009509
    93  H    0.004425
    94  H    0.013031
    95  H    0.037906
    96  H    0.019507
    97  H    0.037352
    98  H    0.035001
    99  H    0.030512
   100  H    0.046807
   101  H    0.039825
   102  H    0.049871
   103  H    0.015787
   104  H   -0.004909
   105  H    0.024241
   106  H    0.030547
   107  H   -0.005326
   108  H   -0.002293
   109  H   -0.005935
   110  H    0.000400
   111  H    0.011771
   112  H   -0.002671
   113  H   -0.006464
   114  H   -0.004371
   115  H   -0.008882
   116  H    0.009746
   117  H   -0.005980
   118  H   -0.009324
   119  H   -0.004175
   120  H   -0.002682
   121  H    0.002484
   122  H   -0.007353
   123  H   -0.006705
   124  H   -0.010697
   125  H    0.011464
   126  H   -0.000988
   127  H   -0.002571
   128  H   -0.013798
   129  H   -0.013498
   130  H   -0.013167
   131  H   -0.004386
   132  H   -0.008916
   133  H    0.008502
   134  H   -0.004072
   135  H    0.003038
   136  H    0.013829
   137  H    0.004874
   138  H   -0.009064
   139  H    0.010282
   140  H   -0.006652
 Sum of Mulliken charges =  -0.00000

 Dipole moment (field-independent basis, Debye):
    X=              4.9837    Y=              2.5822    Z=              1.0362  Tot=              5.7078
 Quadrupole moment (field-independent basis, Debye-Ang):
   XX=           -374.5655   YY=           -423.8783   ZZ=           -421.7066
   XY=            -24.7870   XZ=              3.4320   YZ=             -0.0535

 Normal termination of Gaussian 16 at Wed May  4 13:03:41 2022.
