 Gaussian 16, Revision A.03,
 Gaussian 16:  ES64L-G16RevA.03 25-Dec-2016

 ---------------------------------
 #p PBE1PBE/Def2SVP td=(nstates=5)
 ---------------------------------

 ------------------------------------------------------
 step_1751_chromophore_27 TDDFT with PBE1PBE functional
 ------------------------------------------------------
 Symbolic Z-matrix:
 Charge =  0 Multiplicity = 1

                         Standard orientation:
 ---------------------------------------------------------------------
 Center     Atomic      Atomic             Coordinates (Angstroms)
 Number     Number       Type             X           Y           Z
 ---------------------------------------------------------------------
      1         12           0       -4.701988    0.967811   -0.220467
      2          6           0       -4.235499   -2.492259    0.445236
      3          6           0       -1.299165    1.426182    0.056710
      4          6           0       -5.286802    4.162027   -0.351900
      5          6           0       -8.139915    0.370530    0.362535
      6          7           0       -3.060792   -0.400968    0.165328
      7          6           0       -3.093935   -1.771589    0.383954
      8          6           0       -1.652466   -2.348038    0.256325
      9          6           0       -0.733117   -1.054783    0.529619
     10          6           0       -1.725198    0.048155    0.181872
     11          6           0       -0.264266   -0.739929    2.055437
     12          6           0       -1.342442   -3.050874   -1.116780
     13          6           0       -0.553368   -4.306404   -1.086247
     14          6           0        0.810281   -4.279925   -1.833651
     15          8           0        1.021570   -4.456604   -3.055613
     16          8           0        1.807901   -3.896877   -1.031313
     17          7           0       -3.500608    2.534723   -0.447307
     18          6           0       -2.091166    2.553614   -0.226962
     19          6           0       -1.636391    3.874742   -0.468456
     20          6           0       -2.793373    4.668686   -0.771176
     21          6           0       -3.947564    3.805867   -0.537266
     22          6           0       -0.173563    4.178813   -0.452510
     23          6           0       -2.805748    6.082982   -1.338341
     24          8           0       -3.862392    6.588625   -1.642778
     25          6           0       -1.511942    6.887971   -1.256198
     26          7           0       -6.424125    2.082531    0.102915
     27          6           0       -6.433748    3.431890   -0.044178
     28          6           0       -7.814027    4.063748   -0.038157
     29          6           0       -8.706999    2.844379    0.363329
     30          6           0       -7.731644    1.690620    0.285847
     31          6           0       -7.875879    5.149221    1.055791
     32          6           0       -9.810354    2.641123   -0.682116
     33          6           0      -11.262356    2.710631   -0.105816
     34          7           0       -6.023742   -0.740143    0.081222
     35          6           0       -7.360886   -0.824299    0.373231
     36          6           0       -7.759751   -2.258094    0.560044
     37          6           0       -6.545017   -2.942640    0.524667
     38          6           0       -5.528256   -1.976219    0.346528
     39          6           0       -9.116083   -2.730515    0.778632
     40          6           0       -5.941464   -4.242725    0.590339
     41          8           0       -6.503983   -5.300169    0.782189
     42          6           0       -4.305878   -4.043116    0.514818
     43          6           0       -3.715486   -4.601694    1.672815
     44          8           0       -3.943301   -4.193109    2.835993
     45          8           0       -2.872862   -5.624341    1.331167
     46          6           0       -1.983724   -6.019248    2.467792
     47          6           0        3.184494   -4.269864   -1.477653
     48          6           0        4.001719   -3.100761   -1.763153
     49          6           0        5.376042   -2.847753   -1.506616
     50          6           0        6.464485   -3.769165   -1.068887
     51          6           0        5.965817   -1.489707   -1.765608
     52          6           0        6.656555   -1.333565   -3.130513
     53          6           0        8.179506   -1.029317   -3.019298
     54          6           0        8.651964    0.267671   -3.639191
     55          6           0        8.859386    0.018484   -5.158106
     56          6           0        9.956078    0.818125   -2.995450
     57          6           0        9.619434    2.006987   -2.146556
     58          6           0       10.857274    2.267102   -1.135315
     59          6           0       10.483913    1.759750    0.201163
     60          6           0       10.809636    0.223762    0.399536
     61          6           0       11.188940    2.533152    1.320499
     62          6           0       10.455568    2.595910    2.634828
     63          6           0       10.881041    1.500368    3.645885
     64          6           0       10.605901    1.812012    5.115019
     65          6           0       11.556675    1.059235    6.096007
     66          6           0        9.134065    1.654545    5.553170
     67          1           0       -0.209527    1.471992    0.016694
     68          1           0       -5.301620    5.253017   -0.385768
     69          1           0       -9.154908    0.049179    0.606549
     70          1           0       -1.572897   -2.974087    1.146006
     71          1           0        0.093195   -1.114760   -0.178182
     72          1           0       -0.627025   -1.578191    2.649831
     73          1           0       -0.582262    0.244273    2.399375
     74          1           0        0.822987   -0.772716    1.980638
     75          1           0       -0.813705   -2.375955   -1.789332
     76          1           0       -2.278939   -3.225950   -1.646476
     77          1           0       -1.126786   -5.184006   -1.385671
     78          1           0       -0.328521   -4.488945   -0.036249
     79          1           0        0.350981    4.035036   -1.396317
     80          1           0        0.357973    3.540930    0.253901
     81          1           0        0.254242    5.132665   -0.143302
     82          1           0       -0.781154    6.310342   -1.821556
     83          1           0       -1.132925    6.792711   -0.238996
     84          1           0       -1.377672    7.842997   -1.766309
     85          1           0       -8.035609    4.405689   -1.049490
     86          1           0       -9.048890    2.758603    1.395213
     87          1           0       -7.056110    4.949280    1.745781
     88          1           0       -8.810767    5.167048    1.615583
     89          1           0       -7.768138    6.180095    0.717367
     90          1           0       -9.674388    1.732866   -1.269074
     91          1           0       -9.832612    3.374076   -1.488996
     92          1           0      -11.843416    1.791513   -0.176933
     93          1           0      -11.897106    3.373047   -0.695420
     94          1           0      -11.319878    3.052381    0.926664
     95          1           0       -9.345967   -3.757615    0.496626
     96          1           0       -9.903486   -2.067959    0.421124
     97          1           0       -9.130674   -2.702335    1.868215
     98          1           0       -3.897135   -4.364486   -0.443700
     99          1           0       -1.239233   -6.681008    2.025820
    100          1           0       -2.421446   -6.634416    3.254414
    101          1           0       -1.513985   -5.151666    2.932580
    102          1           0        3.255449   -4.950295   -2.327597
    103          1           0        3.664254   -4.817604   -0.666235
    104          1           0        3.440170   -2.223476   -2.082671
    105          1           0        6.961982   -3.428879   -0.160073
    106          1           0        7.115114   -3.852778   -1.938359
    107          1           0        6.129930   -4.766010   -0.783297
    108          1           0        6.686466   -1.192859   -1.004770
    109          1           0        5.102689   -0.828953   -1.677402
    110          1           0        6.168989   -0.480154   -3.599930
    111          1           0        6.518309   -2.178892   -3.805220
    112          1           0        8.706739   -1.864546   -3.481101
    113          1           0        8.486130   -0.925581   -1.977824
    114          1           0        7.832253    0.979416   -3.543116
    115          1           0        9.921832    0.034712   -5.401817
    116          1           0        8.444743    0.714442   -5.887810
    117          1           0        8.601457   -1.001804   -5.442370
    118          1           0       10.712544    1.188272   -3.686484
    119          1           0       10.565982    0.050986   -2.519488
    120          1           0        8.692313    1.827370   -1.603959
    121          1           0        9.450809    2.868935   -2.791536
    122          1           0       11.151625    3.316803   -1.113726
    123          1           0       11.712931    1.712180   -1.518730
    124          1           0        9.415688    1.780146    0.415440
    125          1           0       11.843985    0.011331    0.129832
    126          1           0       10.042416   -0.333696   -0.138199
    127          1           0       10.689412   -0.204362    1.394791
    128          1           0       11.334158    3.564260    0.997839
    129          1           0       12.148679    2.056465    1.518167
    130          1           0        9.408627    2.324726    2.500043
    131          1           0       10.521494    3.587143    3.082835
    132          1           0       11.960995    1.368911    3.577082
    133          1           0       10.321352    0.622615    3.322514
    134          1           0       10.640304    2.874899    5.355379
    135          1           0       12.570787    1.315691    5.788504
    136          1           0       11.417311   -0.022222    6.094409
    137          1           0       11.524023    1.400156    7.131100
    138          1           0        8.531794    1.548604    4.650883
    139          1           0        8.597021    2.394654    6.147037
    140          1           0        9.042106    0.744009    6.145430
 ---------------------------------------------------------------------

 SCF Done:  E(RPBE1PBE) =  -3005.32726794     A.U. after   15 cycles

 Excitation energies and oscillator strengths:

 Excited State   1:      Singlet-A      1.8243 eV  679.61 nm  f=0.3766  <S**2>=0.000
     245 -> 248        0.17094
     246 -> 247        0.69513
     246 <- 247       -0.11430
 This state for optimization and/or second-order correction.
 Total Energy, E(TD-HF/TD-DFT) =  -3005.26022465
 Copying the excited state density for this state as the 1-particle RhoCI density.

 Excited State   2:      Singlet-A      2.2514 eV  550.70 nm  f=0.0816  <S**2>=0.000
     245 -> 247        0.63641
     246 -> 248       -0.29228

 Excited State   3:      Singlet-A      3.0202 eV  410.51 nm  f=0.0011  <S**2>=0.000
     242 -> 247       -0.26646
     243 -> 247        0.63653

 Excited State   4:      Singlet-A      3.0601 eV  405.16 nm  f=0.0009  <S**2>=0.000
     240 -> 247        0.13549
     241 -> 247        0.28546
     242 -> 247        0.54785
     243 -> 247        0.25377
     246 -> 248        0.10526

 Excited State   5:      Singlet-A      3.1335 eV  395.68 nm  f=0.0151  <S**2>=0.000
     240 -> 247       -0.28942
     241 -> 247        0.53339
     241 -> 249        0.10678
     242 -> 247       -0.19520
     246 -> 248       -0.23180

 The electronic state is 1-A.
 Alpha  occ. eigenvalues --  -46.90953 -19.26775 -19.26550 -19.19659 -19.19602
 Alpha  occ. eigenvalues --  -19.19479 -19.18940 -14.41807 -14.41555 -14.38708
 Alpha  occ. eigenvalues --  -14.38667 -10.36811 -10.36068 -10.32525 -10.32304
 Alpha  occ. eigenvalues --  -10.29997 -10.29546 -10.29317 -10.28401 -10.28305
 Alpha  occ. eigenvalues --  -10.28113 -10.27676 -10.27626 -10.27484 -10.26725
 Alpha  occ. eigenvalues --  -10.26558 -10.26166 -10.26080 -10.26055 -10.25891
 Alpha  occ. eigenvalues --  -10.25745 -10.25713 -10.25447 -10.25363 -10.25161
 Alpha  occ. eigenvalues --  -10.25156 -10.25101 -10.24727 -10.24379 -10.24370
 Alpha  occ. eigenvalues --  -10.24232 -10.24041 -10.24000 -10.23717 -10.23491
 Alpha  occ. eigenvalues --  -10.23447 -10.23415 -10.23398 -10.23304 -10.23236
 Alpha  occ. eigenvalues --  -10.23213 -10.23194 -10.23186 -10.22813 -10.22788
 Alpha  occ. eigenvalues --  -10.22670 -10.22621 -10.22609 -10.22411 -10.22327
 Alpha  occ. eigenvalues --  -10.22206 -10.22120 -10.22066 -10.21834 -10.21603
 Alpha  occ. eigenvalues --  -10.21579  -3.13258  -1.86092  -1.85633  -1.85501
 Alpha  occ. eigenvalues --   -1.11895  -1.10709  -1.05304  -1.05139  -1.01341
 Alpha  occ. eigenvalues --   -1.00970  -0.98833  -0.97812  -0.97114  -0.96060
 Alpha  occ. eigenvalues --   -0.86776  -0.85371  -0.84752  -0.83988  -0.83741
 Alpha  occ. eigenvalues --   -0.83357  -0.82917  -0.82013  -0.81946  -0.81493
 Alpha  occ. eigenvalues --   -0.80652  -0.79988  -0.79040  -0.78215  -0.77944
 Alpha  occ. eigenvalues --   -0.77077  -0.76246  -0.75835  -0.75572  -0.74792
 Alpha  occ. eigenvalues --   -0.74070  -0.72836  -0.72274  -0.71862  -0.70893
 Alpha  occ. eigenvalues --   -0.70203  -0.69776  -0.69627  -0.69528  -0.68554
 Alpha  occ. eigenvalues --   -0.67634  -0.67072  -0.66330  -0.65045  -0.63699
 Alpha  occ. eigenvalues --   -0.63330  -0.63034  -0.61498  -0.61313  -0.60775
 Alpha  occ. eigenvalues --   -0.60051  -0.59721  -0.59261  -0.58943  -0.58734
 Alpha  occ. eigenvalues --   -0.58375  -0.57596  -0.57162  -0.56685  -0.55411
 Alpha  occ. eigenvalues --   -0.55097  -0.54093  -0.53513  -0.53199  -0.52872
 Alpha  occ. eigenvalues --   -0.52426  -0.52283  -0.51011  -0.50353  -0.50092
 Alpha  occ. eigenvalues --   -0.49859  -0.49603  -0.49328  -0.49205  -0.48687
 Alpha  occ. eigenvalues --   -0.48470  -0.48204  -0.48132  -0.47827  -0.47169
 Alpha  occ. eigenvalues --   -0.47111  -0.46875  -0.46834  -0.46563  -0.46298
 Alpha  occ. eigenvalues --   -0.46181  -0.45869  -0.45825  -0.45642  -0.45457
 Alpha  occ. eigenvalues --   -0.45001  -0.44790  -0.44665  -0.44395  -0.44182
 Alpha  occ. eigenvalues --   -0.44119  -0.43854  -0.43796  -0.43672  -0.43527
 Alpha  occ. eigenvalues --   -0.43279  -0.43162  -0.42742  -0.42685  -0.42417
 Alpha  occ. eigenvalues --   -0.42265  -0.42171  -0.41674  -0.41339  -0.41216
 Alpha  occ. eigenvalues --   -0.41114  -0.40982  -0.40807  -0.40557  -0.40434
 Alpha  occ. eigenvalues --   -0.40269  -0.40245  -0.39929  -0.39752  -0.39621
 Alpha  occ. eigenvalues --   -0.39408  -0.39353  -0.39072  -0.38872  -0.38776
 Alpha  occ. eigenvalues --   -0.38620  -0.38379  -0.38328  -0.38074  -0.38015
 Alpha  occ. eigenvalues --   -0.37820  -0.37769  -0.37525  -0.37407  -0.37244
 Alpha  occ. eigenvalues --   -0.37100  -0.36868  -0.36611  -0.36413  -0.36306
 Alpha  occ. eigenvalues --   -0.36076  -0.35934  -0.35661  -0.35576  -0.35228
 Alpha  occ. eigenvalues --   -0.34938  -0.34741  -0.34407  -0.33913  -0.33575
 Alpha  occ. eigenvalues --   -0.33381  -0.33243  -0.33014  -0.32841  -0.32512
 Alpha  occ. eigenvalues --   -0.32131  -0.32051  -0.32007  -0.31838  -0.31496
 Alpha  occ. eigenvalues --   -0.31422  -0.31314  -0.30348  -0.29978  -0.28916
 Alpha  occ. eigenvalues --   -0.28726  -0.28596  -0.28356  -0.26991  -0.25832
 Alpha  occ. eigenvalues --   -0.25642  -0.25127  -0.25044  -0.24343  -0.21045
 Alpha  occ. eigenvalues --   -0.18380
 Alpha virt. eigenvalues --   -0.10950  -0.05165  -0.03706  -0.02084  -0.00623
 Alpha virt. eigenvalues --   -0.00552  -0.00426   0.00544   0.01008   0.03434
 Alpha virt. eigenvalues --    0.04088   0.04756   0.04945   0.05274   0.05581

 Mulliken charges:
               1
     1  Mg   1.000537
     2  C   -0.077517
     3  C   -0.079715
     4  C   -0.031350
     5  C   -0.062389
     6  N   -0.418632
     7  C    0.024011
     8  C   -0.099123
     9  C   -0.156960
    10  C    0.050800
    11  C    0.013287
    12  C    0.032318
    13  C    0.028157
    14  C    0.191815
    15  O   -0.294934
    16  O   -0.345863
    17  N   -0.563941
    18  C    0.212601
    19  C   -0.114223
    20  C   -0.107446
    21  C    0.137016
    22  C    0.003308
    23  C    0.079680
    24  O   -0.226664
    25  C   -0.030814
    26  N   -0.414168
    27  C    0.089591
    28  C   -0.086115
    29  C   -0.061268
    30  C    0.088944
    31  C    0.001071
    32  C   -0.019590
    33  C   -0.081410
    34  N   -0.417875
    35  C    0.060544
    36  C   -0.178428
    37  C   -0.000461
    38  C    0.170011
    39  C    0.055050
    40  C    0.126536
    41  O   -0.199843
    42  C   -0.088235
    43  C    0.309403
    44  O   -0.288982
    45  O   -0.364512
    46  C    0.122246
    47  C    0.262699
    48  C   -0.124180
    49  C   -0.239303
    50  C    0.029901
    51  C   -0.002524
    52  C   -0.015208
    53  C   -0.028946
    54  C   -0.212227
    55  C   -0.006637
    56  C   -0.007388
    57  C   -0.061184
    58  C    0.033359
    59  C   -0.211878
    60  C   -0.042958
    61  C    0.026041
    62  C   -0.038807
    63  C   -0.038587
    64  C   -0.204440
    65  C   -0.027572
    66  C   -0.036420
    67  H    0.013376
    68  H    0.017713
    69  H   -0.003072
    70  H    0.048634
    71  H    0.051366
    72  H    0.055745
    73  H    0.070905
    74  H    0.049830
    75  H    0.053029
    76  H    0.049345
    77  H    0.069210
    78  H    0.043971
    79  H    0.056788
    80  H    0.040276
    81  H    0.032851
    82  H    0.039644
    83  H    0.075645
    84  H    0.054965
    85  H    0.067068
    86  H    0.060648
    87  H    0.051034
    88  H    0.040383
    89  H    0.050626
    90  H    0.045966
    91  H    0.036419
    92  H    0.036793
    93  H    0.032469
    94  H    0.039974
    95  H    0.065585
    96  H    0.045681
    97  H    0.067352
    98  H    0.073340
    99  H    0.051958
   100  H    0.068724
   101  H    0.060759
   102  H    0.076446
   103  H    0.044107
   104  H    0.024632
   105  H    0.050891
   106  H    0.059441
   107  H    0.022526
   108  H    0.029858
   109  H    0.026732
   110  H    0.033034
   111  H    0.042905
   112  H    0.030030
   113  H    0.033919
   114  H    0.032811
   115  H    0.018742
   116  H    0.037037
   117  H    0.021274
   118  H    0.023724
   119  H    0.026901
   120  H    0.029970
   121  H    0.035851
   122  H    0.024710
   123  H    0.025761
   124  H    0.026960
   125  H    0.038250
   126  H    0.031980
   127  H    0.026657
   128  H    0.019445
   129  H    0.020248
   130  H    0.020267
   131  H    0.027436
   132  H    0.023375
   133  H    0.041807
   134  H    0.034091
   135  H    0.031624
   136  H    0.041107
   137  H    0.032954
   138  H    0.019135
   139  H    0.036894
   140  H    0.021258
 Sum of Mulliken charges =  -0.00000

 Dipole moment (field-independent basis, Debye):
    X=              4.7305    Y=              2.4465    Z=              1.0788  Tot=              5.4339
 Quadrupole moment (field-independent basis, Debye-Ang):
   XX=           -366.3748   YY=           -421.9274   ZZ=           -419.2223
   XY=            -24.8999   XZ=              2.9724   YZ=              0.1193

 Normal termination of Gaussian 16 at Wed May  4 13:24:30 2022.
