 Gaussian 16, Revision A.03,
 Gaussian 16:  ES64L-G16RevA.03 25-Dec-2016

 --------------------------------
 #p wB97XD/Def2SVP td=(nstates=5)
 --------------------------------

 -----------------------------------------------------
 step_1751_chromophore_27 TDDFT with wB97XD functional
 -----------------------------------------------------
 Symbolic Z-matrix:
 Charge =  0 Multiplicity = 1

                         Standard orientation:
 ---------------------------------------------------------------------
 Center     Atomic      Atomic             Coordinates (Angstroms)
 Number     Number       Type             X           Y           Z
 ---------------------------------------------------------------------
      1         12           0       -4.701988    0.967811   -0.220467
      2          6           0       -4.235499   -2.492259    0.445236
      3          6           0       -1.299165    1.426182    0.056710
      4          6           0       -5.286802    4.162027   -0.351900
      5          6           0       -8.139915    0.370530    0.362535
      6          7           0       -3.060792   -0.400968    0.165328
      7          6           0       -3.093935   -1.771589    0.383954
      8          6           0       -1.652466   -2.348038    0.256325
      9          6           0       -0.733117   -1.054783    0.529619
     10          6           0       -1.725198    0.048155    0.181872
     11          6           0       -0.264266   -0.739929    2.055437
     12          6           0       -1.342442   -3.050874   -1.116780
     13          6           0       -0.553368   -4.306404   -1.086247
     14          6           0        0.810281   -4.279925   -1.833651
     15          8           0        1.021570   -4.456604   -3.055613
     16          8           0        1.807901   -3.896877   -1.031313
     17          7           0       -3.500608    2.534723   -0.447307
     18          6           0       -2.091166    2.553614   -0.226962
     19          6           0       -1.636391    3.874742   -0.468456
     20          6           0       -2.793373    4.668686   -0.771176
     21          6           0       -3.947564    3.805867   -0.537266
     22          6           0       -0.173563    4.178813   -0.452510
     23          6           0       -2.805748    6.082982   -1.338341
     24          8           0       -3.862392    6.588625   -1.642778
     25          6           0       -1.511942    6.887971   -1.256198
     26          7           0       -6.424125    2.082531    0.102915
     27          6           0       -6.433748    3.431890   -0.044178
     28          6           0       -7.814027    4.063748   -0.038157
     29          6           0       -8.706999    2.844379    0.363329
     30          6           0       -7.731644    1.690620    0.285847
     31          6           0       -7.875879    5.149221    1.055791
     32          6           0       -9.810354    2.641123   -0.682116
     33          6           0      -11.262356    2.710631   -0.105816
     34          7           0       -6.023742   -0.740143    0.081222
     35          6           0       -7.360886   -0.824299    0.373231
     36          6           0       -7.759751   -2.258094    0.560044
     37          6           0       -6.545017   -2.942640    0.524667
     38          6           0       -5.528256   -1.976219    0.346528
     39          6           0       -9.116083   -2.730515    0.778632
     40          6           0       -5.941464   -4.242725    0.590339
     41          8           0       -6.503983   -5.300169    0.782189
     42          6           0       -4.305878   -4.043116    0.514818
     43          6           0       -3.715486   -4.601694    1.672815
     44          8           0       -3.943301   -4.193109    2.835993
     45          8           0       -2.872862   -5.624341    1.331167
     46          6           0       -1.983724   -6.019248    2.467792
     47          6           0        3.184494   -4.269864   -1.477653
     48          6           0        4.001719   -3.100761   -1.763153
     49          6           0        5.376042   -2.847753   -1.506616
     50          6           0        6.464485   -3.769165   -1.068887
     51          6           0        5.965817   -1.489707   -1.765608
     52          6           0        6.656555   -1.333565   -3.130513
     53          6           0        8.179506   -1.029317   -3.019298
     54          6           0        8.651964    0.267671   -3.639191
     55          6           0        8.859386    0.018484   -5.158106
     56          6           0        9.956078    0.818125   -2.995450
     57          6           0        9.619434    2.006987   -2.146556
     58          6           0       10.857274    2.267102   -1.135315
     59          6           0       10.483913    1.759750    0.201163
     60          6           0       10.809636    0.223762    0.399536
     61          6           0       11.188940    2.533152    1.320499
     62          6           0       10.455568    2.595910    2.634828
     63          6           0       10.881041    1.500368    3.645885
     64          6           0       10.605901    1.812012    5.115019
     65          6           0       11.556675    1.059235    6.096007
     66          6           0        9.134065    1.654545    5.553170
     67          1           0       -0.209527    1.471992    0.016694
     68          1           0       -5.301620    5.253017   -0.385768
     69          1           0       -9.154908    0.049179    0.606549
     70          1           0       -1.572897   -2.974087    1.146006
     71          1           0        0.093195   -1.114760   -0.178182
     72          1           0       -0.627025   -1.578191    2.649831
     73          1           0       -0.582262    0.244273    2.399375
     74          1           0        0.822987   -0.772716    1.980638
     75          1           0       -0.813705   -2.375955   -1.789332
     76          1           0       -2.278939   -3.225950   -1.646476
     77          1           0       -1.126786   -5.184006   -1.385671
     78          1           0       -0.328521   -4.488945   -0.036249
     79          1           0        0.350981    4.035036   -1.396317
     80          1           0        0.357973    3.540930    0.253901
     81          1           0        0.254242    5.132665   -0.143302
     82          1           0       -0.781154    6.310342   -1.821556
     83          1           0       -1.132925    6.792711   -0.238996
     84          1           0       -1.377672    7.842997   -1.766309
     85          1           0       -8.035609    4.405689   -1.049490
     86          1           0       -9.048890    2.758603    1.395213
     87          1           0       -7.056110    4.949280    1.745781
     88          1           0       -8.810767    5.167048    1.615583
     89          1           0       -7.768138    6.180095    0.717367
     90          1           0       -9.674388    1.732866   -1.269074
     91          1           0       -9.832612    3.374076   -1.488996
     92          1           0      -11.843416    1.791513   -0.176933
     93          1           0      -11.897106    3.373047   -0.695420
     94          1           0      -11.319878    3.052381    0.926664
     95          1           0       -9.345967   -3.757615    0.496626
     96          1           0       -9.903486   -2.067959    0.421124
     97          1           0       -9.130674   -2.702335    1.868215
     98          1           0       -3.897135   -4.364486   -0.443700
     99          1           0       -1.239233   -6.681008    2.025820
    100          1           0       -2.421446   -6.634416    3.254414
    101          1           0       -1.513985   -5.151666    2.932580
    102          1           0        3.255449   -4.950295   -2.327597
    103          1           0        3.664254   -4.817604   -0.666235
    104          1           0        3.440170   -2.223476   -2.082671
    105          1           0        6.961982   -3.428879   -0.160073
    106          1           0        7.115114   -3.852778   -1.938359
    107          1           0        6.129930   -4.766010   -0.783297
    108          1           0        6.686466   -1.192859   -1.004770
    109          1           0        5.102689   -0.828953   -1.677402
    110          1           0        6.168989   -0.480154   -3.599930
    111          1           0        6.518309   -2.178892   -3.805220
    112          1           0        8.706739   -1.864546   -3.481101
    113          1           0        8.486130   -0.925581   -1.977824
    114          1           0        7.832253    0.979416   -3.543116
    115          1           0        9.921832    0.034712   -5.401817
    116          1           0        8.444743    0.714442   -5.887810
    117          1           0        8.601457   -1.001804   -5.442370
    118          1           0       10.712544    1.188272   -3.686484
    119          1           0       10.565982    0.050986   -2.519488
    120          1           0        8.692313    1.827370   -1.603959
    121          1           0        9.450809    2.868935   -2.791536
    122          1           0       11.151625    3.316803   -1.113726
    123          1           0       11.712931    1.712180   -1.518730
    124          1           0        9.415688    1.780146    0.415440
    125          1           0       11.843985    0.011331    0.129832
    126          1           0       10.042416   -0.333696   -0.138199
    127          1           0       10.689412   -0.204362    1.394791
    128          1           0       11.334158    3.564260    0.997839
    129          1           0       12.148679    2.056465    1.518167
    130          1           0        9.408627    2.324726    2.500043
    131          1           0       10.521494    3.587143    3.082835
    132          1           0       11.960995    1.368911    3.577082
    133          1           0       10.321352    0.622615    3.322514
    134          1           0       10.640304    2.874899    5.355379
    135          1           0       12.570787    1.315691    5.788504
    136          1           0       11.417311   -0.022222    6.094409
    137          1           0       11.524023    1.400156    7.131100
    138          1           0        8.531794    1.548604    4.650883
    139          1           0        8.597021    2.394654    6.147037
    140          1           0        9.042106    0.744009    6.145430
 ---------------------------------------------------------------------

 SCF Done:  E(RwB97XD) =  -3007.83538553     A.U. after   20 cycles

 Excitation energies and oscillator strengths:

 Excited State   1:      Singlet-A      1.6037 eV  773.09 nm  f=0.3854  <S**2>=0.000
     245 -> 248        0.18366
     246 -> 247        0.68469
     245 <- 248        0.11826
 This state for optimization and/or second-order correction.
 Total Energy, E(TD-HF/TD-DFT) =  -3007.77644888
 Copying the excited state density for this state as the 1-particle RhoCI density.

 Excited State   2:      Singlet-A      2.1896 eV  566.23 nm  f=0.0808  <S**2>=0.000
     245 -> 247        0.62205
     246 -> 248       -0.32077

 Excited State   3:      Singlet-A      3.3404 eV  371.16 nm  f=0.0715  <S**2>=0.000
     242 -> 247        0.58936
     243 -> 247       -0.18967
     246 -> 248        0.29830

 Excited State   4:      Singlet-A      3.4366 eV  360.77 nm  f=0.1932  <S**2>=0.000
     243 -> 247        0.54394
     245 -> 247        0.16791
     246 -> 248        0.38722

 Excited State   5:      Singlet-A      3.5815 eV  346.18 nm  f=0.4415  <S**2>=0.000
     240 -> 247       -0.16284
     240 -> 249       -0.15630
     241 -> 247       -0.22436
     242 -> 247       -0.29449
     243 -> 247       -0.30805
     245 -> 247        0.24013
     246 -> 248        0.34222

 The electronic state is 1-A.
 Alpha  occ. eigenvalues --  -46.93868 -19.31379 -19.31098 -19.24392 -19.24244
 Alpha  occ. eigenvalues --  -19.24212 -19.23881 -14.46936 -14.46608 -14.43700
 Alpha  occ. eigenvalues --  -14.43543 -10.43560 -10.42945 -10.39315 -10.39258
 Alpha  occ. eigenvalues --  -10.36497 -10.36095 -10.35686 -10.34779 -10.34427
 Alpha  occ. eigenvalues --  -10.34288 -10.34183 -10.34123 -10.33571 -10.32961
 Alpha  occ. eigenvalues --  -10.32802 -10.32721 -10.32437 -10.32276 -10.32218
 Alpha  occ. eigenvalues --  -10.32088 -10.31966 -10.31719 -10.31605 -10.31594
 Alpha  occ. eigenvalues --  -10.31593 -10.31453 -10.31256 -10.31012 -10.30755
 Alpha  occ. eigenvalues --  -10.30640 -10.30330 -10.30232 -10.30191 -10.30097
 Alpha  occ. eigenvalues --  -10.29792 -10.29749 -10.29702 -10.29689 -10.29621
 Alpha  occ. eigenvalues --  -10.29595 -10.29580 -10.29491 -10.29195 -10.29120
 Alpha  occ. eigenvalues --  -10.29051 -10.28979 -10.28810 -10.28806 -10.28793
 Alpha  occ. eigenvalues --  -10.28600 -10.28515 -10.28511 -10.28211 -10.28045
 Alpha  occ. eigenvalues --  -10.28017  -3.20015  -1.93603  -1.93146  -1.93004
 Alpha  occ. eigenvalues --   -1.19254  -1.18147  -1.12895  -1.12540  -1.08760
 Alpha  occ. eigenvalues --   -1.08304  -1.06186  -1.05085  -1.04591  -1.03478
 Alpha  occ. eigenvalues --   -0.94345  -0.93062  -0.92438  -0.91644  -0.91294
 Alpha  occ. eigenvalues --   -0.91035  -0.90563  -0.89689  -0.89484  -0.89109
 Alpha  occ. eigenvalues --   -0.88330  -0.87655  -0.86712  -0.85837  -0.85604
 Alpha  occ. eigenvalues --   -0.84708  -0.83928  -0.83525  -0.83205  -0.82465
 Alpha  occ. eigenvalues --   -0.81749  -0.80522  -0.79955  -0.79453  -0.78508
 Alpha  occ. eigenvalues --   -0.77899  -0.77506  -0.77344  -0.77110  -0.76226
 Alpha  occ. eigenvalues --   -0.75209  -0.74600  -0.73872  -0.72678  -0.71218
 Alpha  occ. eigenvalues --   -0.70883  -0.70639  -0.69072  -0.68957  -0.68259
 Alpha  occ. eigenvalues --   -0.67742  -0.67171  -0.66773  -0.66380  -0.66253
 Alpha  occ. eigenvalues --   -0.65971  -0.65271  -0.64833  -0.64087  -0.62941
 Alpha  occ. eigenvalues --   -0.62649  -0.61505  -0.60888  -0.60713  -0.60214
 Alpha  occ. eigenvalues --   -0.59807  -0.59750  -0.58408  -0.57801  -0.57470
 Alpha  occ. eigenvalues --   -0.57288  -0.57027  -0.56742  -0.56707  -0.56021
 Alpha  occ. eigenvalues --   -0.55892  -0.55635  -0.55533  -0.55131  -0.54611
 Alpha  occ. eigenvalues --   -0.54567  -0.54308  -0.54193  -0.54088  -0.53697
 Alpha  occ. eigenvalues --   -0.53525  -0.53186  -0.53084  -0.52932  -0.52793
 Alpha  occ. eigenvalues --   -0.52385  -0.52160  -0.52072  -0.51735  -0.51497
 Alpha  occ. eigenvalues --   -0.51395  -0.51175  -0.51137  -0.50905  -0.50792
 Alpha  occ. eigenvalues --   -0.50651  -0.50450  -0.50154  -0.49959  -0.49666
 Alpha  occ. eigenvalues --   -0.49540  -0.49445  -0.48953  -0.48654  -0.48412
 Alpha  occ. eigenvalues --   -0.48340  -0.48251  -0.48034  -0.47761  -0.47647
 Alpha  occ. eigenvalues --   -0.47425  -0.47405  -0.47085  -0.46911  -0.46766
 Alpha  occ. eigenvalues --   -0.46662  -0.46534  -0.46322  -0.45998  -0.45928
 Alpha  occ. eigenvalues --   -0.45751  -0.45571  -0.45454  -0.45205  -0.45105
 Alpha  occ. eigenvalues --   -0.44935  -0.44905  -0.44643  -0.44597  -0.44298
 Alpha  occ. eigenvalues --   -0.44234  -0.43944  -0.43777  -0.43528  -0.43434
 Alpha  occ. eigenvalues --   -0.43246  -0.42973  -0.42685  -0.42639  -0.42183
 Alpha  occ. eigenvalues --   -0.42055  -0.41656  -0.41518  -0.40862  -0.40505
 Alpha  occ. eigenvalues --   -0.40451  -0.40283  -0.40060  -0.39771  -0.39568
 Alpha  occ. eigenvalues --   -0.39198  -0.39106  -0.38983  -0.38873  -0.38456
 Alpha  occ. eigenvalues --   -0.38430  -0.38317  -0.37381  -0.36750  -0.36115
 Alpha  occ. eigenvalues --   -0.35590  -0.35482  -0.35250  -0.33659  -0.32849
 Alpha  occ. eigenvalues --   -0.32718  -0.31800  -0.31505  -0.31020  -0.26102
 Alpha  occ. eigenvalues --   -0.22489
 Alpha virt. eigenvalues --   -0.06816   0.00266   0.02584   0.04435   0.06092
 Alpha virt. eigenvalues --    0.06147   0.06347   0.06518   0.07632   0.09789
 Alpha virt. eigenvalues --    0.10665   0.11496   0.11645   0.11917   0.12324

 Mulliken charges:
               1
     1  Mg   0.987979
     2  C   -0.073186
     3  C   -0.097616
     4  C   -0.051245
     5  C   -0.077435
     6  N   -0.387701
     7  C   -0.018553
     8  C   -0.060667
     9  C   -0.135437
    10  C    0.042097
    11  C    0.025079
    12  C    0.038054
    13  C    0.045607
    14  C    0.181465
    15  O   -0.292646
    16  O   -0.345792
    17  N   -0.535628
    18  C    0.210270
    19  C   -0.101686
    20  C   -0.100235
    21  C    0.130868
    22  C    0.012130
    23  C    0.072386
    24  O   -0.220225
    25  C   -0.013286
    26  N   -0.382345
    27  C    0.082695
    28  C   -0.060975
    29  C   -0.037046
    30  C    0.080058
    31  C    0.009586
    32  C   -0.007260
    33  C   -0.065517
    34  N   -0.382470
    35  C    0.047902
    36  C   -0.168013
    37  C    0.003937
    38  C    0.153214
    39  C    0.062081
    40  C    0.104250
    41  O   -0.191585
    42  C   -0.042635
    43  C    0.283171
    44  O   -0.283303
    45  O   -0.362486
    46  C    0.136791
    47  C    0.278596
    48  C   -0.134365
    49  C   -0.224868
    50  C    0.042289
    51  C    0.021744
    52  C   -0.008227
    53  C    0.001056
    54  C   -0.180087
    55  C    0.003461
    56  C    0.005793
    57  C   -0.041610
    58  C    0.048912
    59  C   -0.181508
    60  C   -0.026046
    61  C    0.045128
    62  C   -0.022006
    63  C   -0.016654
    64  C   -0.177517
    65  C   -0.013734
    66  C   -0.026382
    67  H    0.008006
    68  H    0.011310
    69  H   -0.012776
    70  H    0.025154
    71  H    0.042891
    72  H    0.050536
    73  H    0.064199
    74  H    0.044481
    75  H    0.045392
    76  H    0.041875
    77  H    0.065738
    78  H    0.034283
    79  H    0.053437
    80  H    0.035654
    81  H    0.028886
    82  H    0.030772
    83  H    0.068269
    84  H    0.055084
    85  H    0.058937
    86  H    0.050883
    87  H    0.043969
    88  H    0.034792
    89  H    0.045827
    90  H    0.037554
    91  H    0.028282
    92  H    0.030830
    93  H    0.026490
    94  H    0.033151
    95  H    0.062567
    96  H    0.040605
    97  H    0.060796
    98  H    0.064053
    99  H    0.048917
   100  H    0.065713
   101  H    0.056701
   102  H    0.072342
   103  H    0.038502
   104  H    0.021196
   105  H    0.046096
   106  H    0.052095
   107  H    0.017167
   108  H    0.020579
   109  H    0.019120
   110  H    0.025139
   111  H    0.035688
   112  H    0.020765
   113  H    0.010145
   114  H    0.019432
   115  H    0.011839
   116  H    0.032675
   117  H    0.014366
   118  H    0.014640
   119  H    0.015353
   120  H    0.017415
   121  H    0.028994
   122  H    0.018000
   123  H    0.014879
   124  H    0.011870
   125  H    0.031959
   126  H    0.020796
   127  H    0.019355
   128  H    0.011512
   129  H    0.008603
   130  H    0.007530
   131  H    0.020623
   132  H    0.012370
   133  H    0.028611
   134  H    0.022517
   135  H    0.024568
   136  H    0.034896
   137  H    0.027890
   138  H    0.011426
   139  H    0.032667
   140  H    0.014500
 Sum of Mulliken charges =  -0.00000

 Dipole moment (field-independent basis, Debye):
    X=              5.1157    Y=              2.6812    Z=              1.0412  Tot=              5.8688
 Quadrupole moment (field-independent basis, Debye-Ang):
   XX=           -369.6816   YY=           -419.7909   ZZ=           -418.8767
   XY=            -25.1478   XZ=              3.4763   YZ=             -0.3990

 Normal termination of Gaussian 16 at Wed May  4 13:51:03 2022.
