 Gaussian 16, Revision A.03,
 Gaussian 16:  ES64L-G16RevA.03 25-Dec-2016

 --------------------
 #p ZINDO=(nstates=5)
 --------------------

 ------------------------------
 step_1751_chromophore_27 ZINDO
 ------------------------------
 Symbolic Z-matrix:
 Charge =  0 Multiplicity = 1

                         Standard orientation:
 ---------------------------------------------------------------------
 Center     Atomic      Atomic             Coordinates (Angstroms)
 Number     Number       Type             X           Y           Z
 ---------------------------------------------------------------------
      1         12           0       -4.701988    0.967811   -0.220467
      2          6           0       -4.235499   -2.492259    0.445236
      3          6           0       -1.299165    1.426182    0.056710
      4          6           0       -5.286802    4.162027   -0.351900
      5          6           0       -8.139915    0.370530    0.362535
      6          7           0       -3.060792   -0.400968    0.165328
      7          6           0       -3.093935   -1.771589    0.383954
      8          6           0       -1.652466   -2.348038    0.256325
      9          6           0       -0.733117   -1.054783    0.529619
     10          6           0       -1.725198    0.048155    0.181872
     11          6           0       -0.264266   -0.739929    2.055437
     12          6           0       -1.342442   -3.050874   -1.116780
     13          6           0       -0.553368   -4.306404   -1.086247
     14          6           0        0.810281   -4.279925   -1.833651
     15          8           0        1.021570   -4.456604   -3.055613
     16          8           0        1.807901   -3.896877   -1.031313
     17          7           0       -3.500608    2.534723   -0.447307
     18          6           0       -2.091166    2.553614   -0.226962
     19          6           0       -1.636391    3.874742   -0.468456
     20          6           0       -2.793373    4.668686   -0.771176
     21          6           0       -3.947564    3.805867   -0.537266
     22          6           0       -0.173563    4.178813   -0.452510
     23          6           0       -2.805748    6.082982   -1.338341
     24          8           0       -3.862392    6.588625   -1.642778
     25          6           0       -1.511942    6.887971   -1.256198
     26          7           0       -6.424125    2.082531    0.102915
     27          6           0       -6.433748    3.431890   -0.044178
     28          6           0       -7.814027    4.063748   -0.038157
     29          6           0       -8.706999    2.844379    0.363329
     30          6           0       -7.731644    1.690620    0.285847
     31          6           0       -7.875879    5.149221    1.055791
     32          6           0       -9.810354    2.641123   -0.682116
     33          6           0      -11.262356    2.710631   -0.105816
     34          7           0       -6.023742   -0.740143    0.081222
     35          6           0       -7.360886   -0.824299    0.373231
     36          6           0       -7.759751   -2.258094    0.560044
     37          6           0       -6.545017   -2.942640    0.524667
     38          6           0       -5.528256   -1.976219    0.346528
     39          6           0       -9.116083   -2.730515    0.778632
     40          6           0       -5.941464   -4.242725    0.590339
     41          8           0       -6.503983   -5.300169    0.782189
     42          6           0       -4.305878   -4.043116    0.514818
     43          6           0       -3.715486   -4.601694    1.672815
     44          8           0       -3.943301   -4.193109    2.835993
     45          8           0       -2.872862   -5.624341    1.331167
     46          6           0       -1.983724   -6.019248    2.467792
     47          6           0        3.184494   -4.269864   -1.477653
     48          6           0        4.001719   -3.100761   -1.763153
     49          6           0        5.376042   -2.847753   -1.506616
     50          6           0        6.464485   -3.769165   -1.068887
     51          6           0        5.965817   -1.489707   -1.765608
     52          6           0        6.656555   -1.333565   -3.130513
     53          6           0        8.179506   -1.029317   -3.019298
     54          6           0        8.651964    0.267671   -3.639191
     55          6           0        8.859386    0.018484   -5.158106
     56          6           0        9.956078    0.818125   -2.995450
     57          6           0        9.619434    2.006987   -2.146556
     58          6           0       10.857274    2.267102   -1.135315
     59          6           0       10.483913    1.759750    0.201163
     60          6           0       10.809636    0.223762    0.399536
     61          6           0       11.188940    2.533152    1.320499
     62          6           0       10.455568    2.595910    2.634828
     63          6           0       10.881041    1.500368    3.645885
     64          6           0       10.605901    1.812012    5.115019
     65          6           0       11.556675    1.059235    6.096007
     66          6           0        9.134065    1.654545    5.553170
     67          1           0       -0.209527    1.471992    0.016694
     68          1           0       -5.301620    5.253017   -0.385768
     69          1           0       -9.154908    0.049179    0.606549
     70          1           0       -1.572897   -2.974087    1.146006
     71          1           0        0.093195   -1.114760   -0.178182
     72          1           0       -0.627025   -1.578191    2.649831
     73          1           0       -0.582262    0.244273    2.399375
     74          1           0        0.822987   -0.772716    1.980638
     75          1           0       -0.813705   -2.375955   -1.789332
     76          1           0       -2.278939   -3.225950   -1.646476
     77          1           0       -1.126786   -5.184006   -1.385671
     78          1           0       -0.328521   -4.488945   -0.036249
     79          1           0        0.350981    4.035036   -1.396317
     80          1           0        0.357973    3.540930    0.253901
     81          1           0        0.254242    5.132665   -0.143302
     82          1           0       -0.781154    6.310342   -1.821556
     83          1           0       -1.132925    6.792711   -0.238996
     84          1           0       -1.377672    7.842997   -1.766309
     85          1           0       -8.035609    4.405689   -1.049490
     86          1           0       -9.048890    2.758603    1.395213
     87          1           0       -7.056110    4.949280    1.745781
     88          1           0       -8.810767    5.167048    1.615583
     89          1           0       -7.768138    6.180095    0.717367
     90          1           0       -9.674388    1.732866   -1.269074
     91          1           0       -9.832612    3.374076   -1.488996
     92          1           0      -11.843416    1.791513   -0.176933
     93          1           0      -11.897106    3.373047   -0.695420
     94          1           0      -11.319878    3.052381    0.926664
     95          1           0       -9.345967   -3.757615    0.496626
     96          1           0       -9.903486   -2.067959    0.421124
     97          1           0       -9.130674   -2.702335    1.868215
     98          1           0       -3.897135   -4.364486   -0.443700
     99          1           0       -1.239233   -6.681008    2.025820
    100          1           0       -2.421446   -6.634416    3.254414
    101          1           0       -1.513985   -5.151666    2.932580
    102          1           0        3.255449   -4.950295   -2.327597
    103          1           0        3.664254   -4.817604   -0.666235
    104          1           0        3.440170   -2.223476   -2.082671
    105          1           0        6.961982   -3.428879   -0.160073
    106          1           0        7.115114   -3.852778   -1.938359
    107          1           0        6.129930   -4.766010   -0.783297
    108          1           0        6.686466   -1.192859   -1.004770
    109          1           0        5.102689   -0.828953   -1.677402
    110          1           0        6.168989   -0.480154   -3.599930
    111          1           0        6.518309   -2.178892   -3.805220
    112          1           0        8.706739   -1.864546   -3.481101
    113          1           0        8.486130   -0.925581   -1.977824
    114          1           0        7.832253    0.979416   -3.543116
    115          1           0        9.921832    0.034712   -5.401817
    116          1           0        8.444743    0.714442   -5.887810
    117          1           0        8.601457   -1.001804   -5.442370
    118          1           0       10.712544    1.188272   -3.686484
    119          1           0       10.565982    0.050986   -2.519488
    120          1           0        8.692313    1.827370   -1.603959
    121          1           0        9.450809    2.868935   -2.791536
    122          1           0       11.151625    3.316803   -1.113726
    123          1           0       11.712931    1.712180   -1.518730
    124          1           0        9.415688    1.780146    0.415440
    125          1           0       11.843985    0.011331    0.129832
    126          1           0       10.042416   -0.333696   -0.138199
    127          1           0       10.689412   -0.204362    1.394791
    128          1           0       11.334158    3.564260    0.997839
    129          1           0       12.148679    2.056465    1.518167
    130          1           0        9.408627    2.324726    2.500043
    131          1           0       10.521494    3.587143    3.082835
    132          1           0       11.960995    1.368911    3.577082
    133          1           0       10.321352    0.622615    3.322514
    134          1           0       10.640304    2.874899    5.355379
    135          1           0       12.570787    1.315691    5.788504
    136          1           0       11.417311   -0.022222    6.094409
    137          1           0       11.524023    1.400156    7.131100
    138          1           0        8.531794    1.548604    4.650883
    139          1           0        8.597021    2.394654    6.147037
    140          1           0        9.042106    0.744009    6.145430
 ---------------------------------------------------------------------

 SCF Done:  E(RZINDO/S) =  -474.356744222     A.U. after   20 cycles

 Excitation energies and oscillator strengths:

 Excited State   1:      Singlet-A      1.1882 eV 1043.50 nm  f=0.6251  <S**2>=0.000
     175 ->178        -0.18865
     176 ->177         0.66367
 This state for optimization and/or second-order correction.
 Total Energy, E(CIS/TDA) =  -474.313080217
 Copying the excited state density for this state as the 1-particle RhoCI density.

 Excited State   2:      Singlet-A      1.9089 eV  649.50 nm  f=0.0093  <S**2>=0.000
     175 ->177         0.50428
     176 ->178         0.47391

 Excited State   3:      Singlet-A      2.8822 eV  430.18 nm  f=0.1438  <S**2>=0.000
     175 ->177         0.17107
     176 ->178        -0.20947
     176 ->179         0.60055
     176 ->182         0.15261

 Excited State   4:      Singlet-A      2.9541 eV  419.70 nm  f=0.7191  <S**2>=0.000
     172 ->177        -0.24148
     175 ->177        -0.35053
     176 ->178         0.40508
     176 ->179         0.26931
     176 ->180         0.12623

 Excited State   5:      Singlet-A      2.9972 eV  413.67 nm  f=0.0906  <S**2>=0.000
     168 ->177         0.28037
     168 ->179         0.30887
     168 ->180         0.33167
     168 ->182        -0.12666
     168 ->186         0.24305
     168 ->187        -0.10495
     172 ->177         0.15271
     175 ->177        -0.11764
     176 ->178         0.11871

 The electronic state is 1-A.
 Alpha  occ. eigenvalues --   -1.83647  -1.82041  -1.79313  -1.73746  -1.72016
 Alpha  occ. eigenvalues --   -1.70207  -1.67928  -1.62753  -1.58730  -1.58348
 Alpha  occ. eigenvalues --   -1.56145  -1.51626  -1.48871  -1.48156  -1.46811
 Alpha  occ. eigenvalues --   -1.43134  -1.42755  -1.40950  -1.40313  -1.39518
 Alpha  occ. eigenvalues --   -1.35835  -1.34417  -1.32265  -1.31250  -1.28389
 Alpha  occ. eigenvalues --   -1.26019  -1.25393  -1.22776  -1.21478  -1.18878
 Alpha  occ. eigenvalues --   -1.17494  -1.16622  -1.15997  -1.15271  -1.14282
 Alpha  occ. eigenvalues --   -1.13269  -1.10580  -1.10248  -1.05377  -1.04148
 Alpha  occ. eigenvalues --   -1.02211  -1.01912  -0.99187  -0.98024  -0.97220
 Alpha  occ. eigenvalues --   -0.96723  -0.95175  -0.94921  -0.93477  -0.92732
 Alpha  occ. eigenvalues --   -0.91094  -0.90067  -0.88911  -0.88694  -0.87773
 Alpha  occ. eigenvalues --   -0.86088  -0.84572  -0.83426  -0.81757  -0.81229
 Alpha  occ. eigenvalues --   -0.81116  -0.79397  -0.78167  -0.76956  -0.76323
 Alpha  occ. eigenvalues --   -0.75944  -0.75625  -0.75514  -0.74734  -0.73902
 Alpha  occ. eigenvalues --   -0.73479  -0.72840  -0.72339  -0.71848  -0.71540
 Alpha  occ. eigenvalues --   -0.70706  -0.70268  -0.69127  -0.68508  -0.67720
 Alpha  occ. eigenvalues --   -0.67371  -0.67075  -0.66684  -0.66280  -0.65734
 Alpha  occ. eigenvalues --   -0.65096  -0.64689  -0.64602  -0.63957  -0.63704
 Alpha  occ. eigenvalues --   -0.63185  -0.62722  -0.62304  -0.62058  -0.61869
 Alpha  occ. eigenvalues --   -0.61388  -0.60909  -0.60727  -0.60549  -0.60165
 Alpha  occ. eigenvalues --   -0.59798  -0.58710  -0.58571  -0.57932  -0.57482
 Alpha  occ. eigenvalues --   -0.57309  -0.56763  -0.56689  -0.56517  -0.56328
 Alpha  occ. eigenvalues --   -0.56179  -0.55686  -0.55374  -0.54518  -0.54494
 Alpha  occ. eigenvalues --   -0.54115  -0.53743  -0.53684  -0.53543  -0.53126
 Alpha  occ. eigenvalues --   -0.52644  -0.52413  -0.52183  -0.52009  -0.51923
 Alpha  occ. eigenvalues --   -0.51713  -0.51466  -0.51367  -0.50999  -0.50661
 Alpha  occ. eigenvalues --   -0.50241  -0.50093  -0.49632  -0.49453  -0.49261
 Alpha  occ. eigenvalues --   -0.49057  -0.48852  -0.48575  -0.47878  -0.47606
 Alpha  occ. eigenvalues --   -0.47364  -0.46996  -0.46811  -0.46540  -0.46449
 Alpha  occ. eigenvalues --   -0.46446  -0.46052  -0.45475  -0.45392  -0.45292
 Alpha  occ. eigenvalues --   -0.44961  -0.44634  -0.44530  -0.44449  -0.44201
 Alpha  occ. eigenvalues --   -0.43658  -0.43587  -0.43063  -0.42710  -0.42276
 Alpha  occ. eigenvalues --   -0.41838  -0.41638  -0.40830  -0.39020  -0.38760
 Alpha  occ. eigenvalues --   -0.38430  -0.37891  -0.35570  -0.35086  -0.34590
 Alpha  occ. eigenvalues --   -0.32401  -0.32244  -0.31981  -0.30784  -0.26877
 Alpha  occ. eigenvalues --   -0.21130
 Alpha virt. eigenvalues --   -0.08332  -0.02003  -0.00454   0.01044   0.01210
 Alpha virt. eigenvalues --    0.02142   0.02552   0.03148   0.03681   0.04986
 Alpha virt. eigenvalues --    0.06295   0.07206   0.07538   0.07945   0.08165

 Mulliken charges:
               1
     1  Mg   0.420312
     2  C   -0.029512
     3  C   -0.083425
     4  C   -0.077955
     5  C   -0.075995
     6  N   -0.292899
     7  C    0.106988
     8  C   -0.004850
     9  C   -0.010691
    10  C    0.131589
    11  C   -0.049090
    12  C   -0.007241
    13  C    0.015437
    14  C    0.469570
    15  O   -0.535459
    16  O   -0.261240
    17  N   -0.338393
    18  C    0.101909
    19  C    0.014100
    20  C   -0.049036
    21  C    0.161602
    22  C   -0.045843
    23  C    0.330295
    24  O   -0.512954
    25  C   -0.037800
    26  N   -0.271784
    27  C    0.151146
    28  C    0.012449
    29  C    0.007234
    30  C    0.126013
    31  C   -0.050328
    32  C   -0.028683
    33  C   -0.065086
    34  N   -0.323710
    35  C    0.086262
    36  C    0.050653
    37  C   -0.052610
    38  C    0.116090
    39  C   -0.032013
    40  C    0.334935
    41  O   -0.508936
    42  C    0.048440
    43  C    0.503474
    44  O   -0.542677
    45  O   -0.264665
    46  C    0.073669
    47  C    0.120752
    48  C   -0.095323
    49  C   -0.013679
    50  C   -0.038309
    51  C   -0.019605
    52  C   -0.029347
    53  C   -0.031898
    54  C   -0.005976
    55  C   -0.066981
    56  C   -0.031600
    57  C   -0.039471
    58  C   -0.032174
    59  C   -0.003345
    60  C   -0.067751
    61  C   -0.033171
    62  C   -0.039240
    63  C   -0.028336
    64  C   -0.011780
    65  C   -0.056576
    66  C   -0.063734
    67  H    0.029735
    68  H    0.036196
    69  H    0.020575
    70  H    0.030696
    71  H    0.036090
    72  H    0.031858
    73  H    0.040816
    74  H    0.019338
    75  H    0.031151
    76  H    0.025519
    77  H    0.042830
    78  H    0.026000
    79  H    0.030967
    80  H    0.015071
    81  H    0.022355
    82  H    0.020996
    83  H    0.043503
    84  H    0.047565
    85  H    0.049275
    86  H    0.048972
    87  H    0.024144
    88  H    0.016663
    89  H    0.021931
    90  H    0.025612
    91  H    0.018548
    92  H    0.017986
    93  H    0.013317
    94  H    0.020440
    95  H    0.039000
    96  H    0.025061
    97  H    0.037754
    98  H    0.052446
    99  H    0.023032
   100  H    0.052471
   101  H    0.045290
   102  H    0.063463
   103  H    0.031530
   104  H    0.031267
   105  H    0.029821
   106  H    0.036399
   107  H    0.009495
   108  H    0.025023
   109  H    0.013457
   110  H    0.016986
   111  H    0.026039
   112  H    0.019453
   113  H    0.013212
   114  H    0.023415
   115  H    0.008260
   116  H    0.020920
   117  H    0.015304
   118  H    0.012723
   119  H    0.023128
   120  H    0.021012
   121  H    0.018652
   122  H    0.018938
   123  H    0.021340
   124  H    0.021197
   125  H    0.023099
   126  H    0.012933
   127  H    0.015974
   128  H    0.011225
   129  H    0.020009
   130  H    0.015118
   131  H    0.019939
   132  H    0.017255
   133  H    0.026099
   134  H    0.020459
   135  H    0.009369
   136  H    0.023845
   137  H    0.016986
   138  H    0.009067
   139  H    0.022718
   140  H    0.009923
 Sum of Mulliken charges =  -0.00000

 Dipole moment (field-independent basis, Debye):
    X=              6.8874    Y=              2.5028    Z=              1.9913  Tot=              7.5938
 N-N= 4.349812979843D+03 E-N= 0.000000000000D+00  KE=-9.373582513434D+03
 Leave Link  601 at Wed May  4 14:02:51 2022, MaxMem=  6710886400 cpu:               0.8 elap:               0.0
 (Enter /sw/apps/gaussian-16.0/g16/l9999.exe)
 1\1\GINC-BP1-COMPUTE065\SP\RZINDO CIS\STO-3G\C55H74Mg1N4O6\OF15641\04-
 May-2022\0\\#p ZINDO=(nstates=5)\\step_1751_chromophore_27 ZINDO\\0,1\
 Mg,0,-5.722,25.286,26.529\C,0,-4.,27.315,28.885\C,0,-6.548,23.12,29.07
 7\C,0,-6.839,23.273,24.235\C,0,-4.068,27.186,24.045\N,0,-5.32,25.305,2
 8.663\C,0,-4.62,26.238,29.416\C,0,-4.91,26.001,30.928\C,0,-5.379,24.46
 1,30.957\C,0,-5.824,24.297,29.509\C,0,-4.255,23.308,31.19\C,0,-5.965,2
 6.983,31.559\C,0,-5.694,27.504,32.921\C,0,-6.735,27.138,34.017\O,0,-7.

 Normal termination of Gaussian 16 at Wed May  4 14:02:51 2022.
