 Gaussian 16, Revision A.03,
 Gaussian 16:  ES64L-G16RevA.03 25-Dec-2016

 ------------------------------
 #p blyp/Def2SVP td=(nstates=5)
 ------------------------------

 -------------------------------------------------
 step_201_chromophore_9 TDDFT with blyp functional
 -------------------------------------------------
 Symbolic Z-matrix:
 Charge =  0 Multiplicity = 1

                         Standard orientation:
 ---------------------------------------------------------------------
 Center     Atomic      Atomic             Coordinates (Angstroms)
 Number     Number       Type             X           Y           Z
 ---------------------------------------------------------------------
      1         12           0       -5.061880    0.775603   -0.076686
      2          6           0       -3.771888   -2.359613    0.305057
      3          6           0       -1.758141    1.907310   -0.230211
      4          6           0       -6.180543    3.995892   -0.267709
      5          6           0       -8.289011   -0.344848    0.481545
      6          7           0       -2.974405   -0.117190    0.029547
      7          6           0       -2.723273   -1.499583    0.080979
      8          6           0       -1.232764   -1.817076   -0.078727
      9          6           0       -0.561571   -0.400914    0.092825
     10          6           0       -1.875439    0.562910   -0.050259
     11          6           0        0.204713   -0.139062    1.449675
     12          6           0       -0.950101   -2.364333   -1.545989
     13          6           0        0.284613   -3.407683   -1.647468
     14          6           0        1.326349   -3.621340   -0.417204
     15          8           0        1.511763   -4.699645    0.199986
     16          8           0        2.089891   -2.498285   -0.227034
     17          7           0       -4.115463    2.705791   -0.276366
     18          6           0       -2.762381    2.948009   -0.386347
     19          6           0       -2.524800    4.340647   -0.637532
     20          6           0       -3.794861    5.021930   -0.632172
     21          6           0       -4.779637    3.935244   -0.458739
     22          6           0       -1.201130    4.966955   -0.914139
     23          6           0       -4.183748    6.456594   -0.677598
     24          8           0       -5.321629    6.886620   -0.755963
     25          6           0       -3.092139    7.489748   -0.533344
     26          7           0       -6.952506    1.681066   -0.105404
     27          6           0       -7.198398    2.979194   -0.039874
     28          6           0       -8.702134    3.301056    0.050984
     29          6           0       -9.350611    1.882401    0.264830
     30          6           0       -8.094725    0.947078    0.141839
     31          6           0       -9.171696    4.306946    1.179774
     32          6           0      -10.476921    1.434587   -0.747032
     33          6           0      -10.016560    1.010710   -2.190085
     34          7           0       -5.903652   -0.969484    0.321239
     35          6           0       -7.218273   -1.317552    0.534170
     36          6           0       -7.319109   -2.749143    0.775276
     37          6           0       -5.947973   -3.257512    0.621088
     38          6           0       -5.179208   -2.131807    0.336215
     39          6           0       -8.622876   -3.524635    1.047204
     40          6           0       -5.081316   -4.422491    0.558200
     41          8           0       -5.371230   -5.616645    0.641325
     42          6           0       -3.596888   -3.890821    0.314741
     43          6           0       -2.766595   -4.589432    1.304614
     44          8           0       -2.609184   -4.179351    2.521477
     45          8           0       -2.099710   -5.666105    0.729626
     46          6           0       -1.409644   -6.551499    1.693247
     47          6           0        3.317770   -2.663054    0.594448
     48          6           0        4.442817   -2.437842   -0.413333
     49          6           0        5.265951   -3.319452   -1.070073
     50          6           0        5.246582   -4.855595   -1.103407
     51          6           0        6.249774   -2.870730   -2.235804
     52          6           0        7.524796   -2.120526   -1.830077
     53          6           0        8.663777   -2.069846   -2.886864
     54          6           0        8.895671   -0.472267   -3.315721
     55          6           0        9.089437   -0.440284   -4.871225
     56          6           0       10.149610    0.014146   -2.559912
     57          6           0        9.840845    1.302513   -1.962234
     58          6           0       11.017506    2.250241   -1.748932
     59          6           0       10.961779    2.931775   -0.339624
     60          6           0       11.666583    4.322799   -0.245844
     61          6           0       11.621783    1.962853    0.792147
     62          6           0       10.572286    1.884255    1.943380
     63          6           0       10.866181    2.505073    3.274097
     64          6           0       10.267635    1.711128    4.404612
     65          6           0        8.733510    2.044665    4.585132
     66          6           0       11.094183    1.836224    5.744196
     67          1           0       -0.752644    2.330520   -0.271209
     68          1           0       -6.598704    5.004439   -0.238676
     69          1           0       -9.327945   -0.581367    0.718527
     70          1           0       -0.925589   -2.508506    0.705541
     71          1           0        0.170953   -0.260372   -0.702065
     72          1           0       -0.131101   -0.860436    2.194974
     73          1           0       -0.018678    0.854978    1.836869
     74          1           0        1.260031   -0.300712    1.232672
     75          1           0       -0.986522   -1.566626   -2.286871
     76          1           0       -1.875113   -2.938167   -1.608957
     77          1           0        0.799521   -3.229417   -2.592004
     78          1           0       -0.230512   -4.350090   -1.836454
     79          1           0       -0.409804    4.217977   -0.895831
     80          1           0       -1.020500    5.828604   -0.271315
     81          1           0       -1.255694    5.336346   -1.938642
     82          1           0       -2.380439    7.265352   -1.328338
     83          1           0       -2.710100    7.317566    0.472860
     84          1           0       -3.365202    8.542572   -0.597600
     85          1           0       -8.877746    3.604325   -0.980952
     86          1           0       -9.707786    1.870206    1.294893
     87          1           0       -9.529828    5.254972    0.778253
     88          1           0       -8.445376    4.437119    1.982183
     89          1           0      -10.005817    3.905561    1.755092
     90          1           0      -11.122276    2.307114   -0.848581
     91          1           0      -11.093662    0.618199   -0.370830
     92          1           0      -10.342507    1.821468   -2.841717
     93          1           0      -10.337414    0.008833   -2.473214
     94          1           0       -8.930880    0.938646   -2.258443
     95          1           0       -9.432989   -2.802022    1.150139
     96          1           0       -8.472001   -4.153214    1.924795
     97          1           0       -8.725870   -4.206573    0.203069
     98          1           0       -3.319508   -4.292695   -0.659878
     99          1           0       -0.599074   -6.054472    2.225066
    100          1           0       -1.108728   -7.475849    1.199457
    101          1           0       -2.036541   -6.777854    2.555967
    102          1           0        3.339071   -3.619189    1.117133
    103          1           0        3.370671   -1.897495    1.368703
    104          1           0        4.578604   -1.401135   -0.720886
    105          1           0        5.508979   -5.238328   -2.089300
    106          1           0        4.262656   -5.214433   -0.800570
    107          1           0        5.993404   -5.225177   -0.400869
    108          1           0        5.646233   -2.196012   -2.842316
    109          1           0        6.623316   -3.666931   -2.879269
    110          1           0        7.921557   -2.627129   -0.950777
    111          1           0        7.184478   -1.131229   -1.523397
    112          1           0        8.460303   -2.730413   -3.729961
    113          1           0        9.456684   -2.604594   -2.363145
    114          1           0        8.030856    0.104681   -2.989566
    115          1           0        8.098452   -0.567849   -5.305542
    116          1           0        9.753828   -1.238477   -5.203287
    117          1           0        9.400350    0.537592   -5.238583
    118          1           0       11.020549   -0.047493   -3.213319
    119          1           0       10.346563   -0.638834   -1.708975
    120          1           0        9.326363    1.145965   -1.013322
    121          1           0        9.283407    1.981755   -2.606643
    122          1           0       11.041925    3.065758   -2.470988
    123          1           0       11.968888    1.719438   -1.757884
    124          1           0        9.930341    3.272981   -0.251679
    125          1           0       12.162801    4.339950    0.725065
    126          1           0       10.940281    5.122168   -0.387786
    127          1           0       12.363217    4.440322   -1.075664
    128          1           0       12.520337    2.339463    1.279593
    129          1           0       11.823556    0.957044    0.423640
    130          1           0       10.281092    0.834510    1.912992
    131          1           0        9.713760    2.474024    1.623713
    132          1           0       10.519252    3.536971    3.315154
    133          1           0       11.935645    2.549378    3.481015
    134          1           0       10.186890    0.657603    4.135809
    135          1           0        8.108166    1.270960    4.140653
    136          1           0        8.404408    2.969052    4.108442
    137          1           0        8.477819    2.217502    5.630362
    138          1           0       12.176710    1.908332    5.639100
    139          1           0       10.913320    0.864692    6.203869
    140          1           0       10.718078    2.723266    6.254712
 ---------------------------------------------------------------------

 SCF Done:  E(RB-LYP) =  -3007.35741003     A.U. after   21 cycles

 Excitation energies and oscillator strengths:

 Excited State   1:      Singlet-A      1.7793 eV  696.79 nm  f=0.0464  <S**2>=0.000
     244 -> 247        0.63776
     245 -> 247       -0.13144
     246 -> 247        0.26897
 This state for optimization and/or second-order correction.
 Total Energy, E(TD-HF/TD-DFT) =  -3007.29202012
 Copying the excited state density for this state as the 1-particle RhoCI density.

 Excited State   2:      Singlet-A      1.8301 eV  677.48 nm  f=0.2449  <S**2>=0.000
     243 -> 247        0.23225
     244 -> 247       -0.25941
     245 -> 248        0.15595
     246 -> 247        0.59923
     246 <- 247       -0.12711

 Excited State   3:      Singlet-A      1.8470 eV  671.29 nm  f=0.0318  <S**2>=0.000
     243 -> 247        0.66486
     246 -> 247       -0.20718

 Excited State   4:      Singlet-A      1.9731 eV  628.37 nm  f=0.1024  <S**2>=0.000
     244 -> 247        0.12426
     245 -> 247        0.65262
     246 -> 248       -0.18808
     245 <- 247       -0.10476

 Excited State   5:      Singlet-A      2.2844 eV  542.74 nm  f=0.0028  <S**2>=0.000
     241 -> 247       -0.36109
     242 -> 247        0.60158

 The electronic state is 1-A.
 Alpha  occ. eigenvalues --  -46.26928 -18.83273 -18.82174 -18.77799 -18.75739
 Alpha  occ. eigenvalues --  -18.75515 -18.75462 -14.03449 -14.03088 -14.01169
 Alpha  occ. eigenvalues --  -14.01149 -10.05769 -10.03683  -9.99809  -9.99768
 Alpha  occ. eigenvalues --   -9.98844  -9.97269  -9.96545  -9.96313  -9.96311
 Alpha  occ. eigenvalues --   -9.96235  -9.96166  -9.95791  -9.95760  -9.94907
 Alpha  occ. eigenvalues --   -9.94899  -9.94670  -9.94417  -9.94401  -9.94240
 Alpha  occ. eigenvalues --   -9.94217  -9.94078  -9.93927  -9.93873  -9.93844
 Alpha  occ. eigenvalues --   -9.93724  -9.93390  -9.93236  -9.93120  -9.92995
 Alpha  occ. eigenvalues --   -9.92847  -9.92831  -9.92703  -9.92687  -9.92554
 Alpha  occ. eigenvalues --   -9.92523  -9.92247  -9.92185  -9.91932  -9.91919
 Alpha  occ. eigenvalues --   -9.91891  -9.91876  -9.91840  -9.91774  -9.91556
 Alpha  occ. eigenvalues --   -9.91530  -9.91499  -9.91454  -9.91061  -9.90859
 Alpha  occ. eigenvalues --   -9.90731  -9.90664  -9.90597  -9.90580  -9.90496
 Alpha  occ. eigenvalues --   -9.90355  -2.91624  -1.72057  -1.71488  -1.71352
 Alpha  occ. eigenvalues --   -0.97737  -0.95400  -0.91801  -0.90613  -0.89249
 Alpha  occ. eigenvalues --   -0.86743  -0.86361  -0.86187  -0.85308  -0.84201
 Alpha  occ. eigenvalues --   -0.75373  -0.73558  -0.72663  -0.72242  -0.72130
 Alpha  occ. eigenvalues --   -0.71906  -0.71265  -0.70724  -0.70375  -0.70246
 Alpha  occ. eigenvalues --   -0.69012  -0.68714  -0.67579  -0.67138  -0.66985
 Alpha  occ. eigenvalues --   -0.66229  -0.65809  -0.65364  -0.65076  -0.64336
 Alpha  occ. eigenvalues --   -0.64253  -0.62683  -0.61964  -0.61289  -0.60371
 Alpha  occ. eigenvalues --   -0.60121  -0.60039  -0.59914  -0.59694  -0.59297
 Alpha  occ. eigenvalues --   -0.58286  -0.57721  -0.56501  -0.55453  -0.55259
 Alpha  occ. eigenvalues --   -0.53825  -0.53161  -0.52941  -0.51621  -0.51349
 Alpha  occ. eigenvalues --   -0.51061  -0.50916  -0.50661  -0.50397  -0.50223
 Alpha  occ. eigenvalues --   -0.49838  -0.49216  -0.49020  -0.48005  -0.46531
 Alpha  occ. eigenvalues --   -0.46137  -0.45698  -0.45584  -0.44533  -0.44052
 Alpha  occ. eigenvalues --   -0.43656  -0.43187  -0.42876  -0.42545  -0.42377
 Alpha  occ. eigenvalues --   -0.41953  -0.41789  -0.41276  -0.41047  -0.40895
 Alpha  occ. eigenvalues --   -0.40627  -0.40428  -0.40414  -0.40174  -0.40002
 Alpha  occ. eigenvalues --   -0.39965  -0.39444  -0.39303  -0.39120  -0.38903
 Alpha  occ. eigenvalues --   -0.38738  -0.38675  -0.38285  -0.38055  -0.38017
 Alpha  occ. eigenvalues --   -0.37882  -0.37516  -0.37156  -0.37116  -0.36985
 Alpha  occ. eigenvalues --   -0.36807  -0.36679  -0.36566  -0.36480  -0.36225
 Alpha  occ. eigenvalues --   -0.36009  -0.35951  -0.35854  -0.35798  -0.35631
 Alpha  occ. eigenvalues --   -0.35318  -0.35233  -0.35074  -0.34876  -0.34822
 Alpha  occ. eigenvalues --   -0.34595  -0.34475  -0.34355  -0.34239  -0.34205
 Alpha  occ. eigenvalues --   -0.34040  -0.33666  -0.33452  -0.33426  -0.33267
 Alpha  occ. eigenvalues --   -0.33053  -0.32793  -0.32572  -0.32509  -0.32243
 Alpha  occ. eigenvalues --   -0.32126  -0.31954  -0.31786  -0.31718  -0.31643
 Alpha  occ. eigenvalues --   -0.31247  -0.30959  -0.30861  -0.30426  -0.30317
 Alpha  occ. eigenvalues --   -0.30142  -0.30010  -0.29864  -0.29809  -0.29578
 Alpha  occ. eigenvalues --   -0.29541  -0.29429  -0.29331  -0.29255  -0.29022
 Alpha  occ. eigenvalues --   -0.28954  -0.28835  -0.28547  -0.28002  -0.27659
 Alpha  occ. eigenvalues --   -0.27628  -0.27275  -0.27205  -0.26877  -0.26743
 Alpha  occ. eigenvalues --   -0.26462  -0.26195  -0.25843  -0.25730  -0.25299
 Alpha  occ. eigenvalues --   -0.24822  -0.23897  -0.23800  -0.23634  -0.23330
 Alpha  occ. eigenvalues --   -0.22609  -0.22391  -0.22293  -0.20903  -0.20787
 Alpha  occ. eigenvalues --   -0.20375  -0.20297  -0.18673  -0.18449  -0.17206
 Alpha  occ. eigenvalues --   -0.16332
 Alpha virt. eigenvalues --   -0.11961  -0.06859  -0.06185  -0.04988  -0.04410
 Alpha virt. eigenvalues --   -0.03397  -0.02941  -0.01555  -0.00552   0.00013
 Alpha virt. eigenvalues --    0.00768   0.01645   0.02387   0.02567   0.02811

 Mulliken charges:
               1
     1  Mg   0.702748
     2  C    0.093897
     3  C   -0.059470
     4  C   -0.029373
     5  C   -0.072300
     6  N   -0.172558
     7  C   -0.091901
     8  C    0.002353
     9  C   -0.013728
    10  C    0.027870
    11  C    0.115042
    12  C    0.114416
    13  C    0.125847
    14  C    0.130555
    15  O   -0.212632
    16  O   -0.274475
    17  N   -0.286908
    18  C    0.112069
    19  C   -0.138165
    20  C    0.047650
    21  C    0.093506
    22  C    0.176661
    23  C   -0.087169
    24  O   -0.152947
    25  C    0.120076
    26  N   -0.208880
    27  C   -0.032479
    28  C    0.056512
    29  C    0.004216
    30  C    0.024622
    31  C    0.130550
    32  C    0.061773
    33  C    0.052394
    34  N   -0.323375
    35  C    0.151625
    36  C   -0.202549
    37  C    0.094821
    38  C    0.070340
    39  C    0.185187
    40  C   -0.084287
    41  O   -0.138960
    42  C    0.030080
    43  C    0.145050
    44  O   -0.256518
    45  O   -0.273126
    46  C    0.246648
    47  C    0.319985
    48  C   -0.097678
    49  C   -0.130792
    50  C    0.129041
    51  C    0.084550
    52  C    0.041364
    53  C    0.091803
    54  C   -0.079504
    55  C    0.106244
    56  C    0.165797
    57  C    0.052494
    58  C    0.112863
    59  C   -0.132377
    60  C    0.108845
    61  C    0.107271
    62  C    0.039812
    63  C    0.149789
    64  C   -0.115095
    65  C    0.078984
    66  C    0.106303
    67  H   -0.074231
    68  H   -0.045452
    69  H   -0.056791
    70  H    0.007293
    71  H   -0.026596
    72  H    0.000691
    73  H   -0.007940
    74  H   -0.001208
    75  H   -0.011176
    76  H   -0.025641
    77  H    0.002719
    78  H   -0.003533
    79  H   -0.018309
    80  H    0.010977
    81  H    0.010749
    82  H   -0.001723
    83  H    0.014751
    84  H   -0.012167
    85  H   -0.014090
    86  H   -0.024202
    87  H    0.005478
    88  H   -0.003374
    89  H   -0.017275
    90  H   -0.020741
    91  H   -0.014018
    92  H   -0.000717
    93  H   -0.001370
    94  H    0.000634
    95  H   -0.010358
    96  H    0.012226
    97  H    0.011828
    98  H    0.012622
    99  H    0.008850
   100  H    0.020735
   101  H    0.002010
   102  H    0.009371
   103  H    0.001636
   104  H   -0.036018
   105  H   -0.000414
   106  H    0.005579
   107  H    0.000472
   108  H   -0.019702
   109  H   -0.030510
   110  H   -0.038356
   111  H   -0.023022
   112  H   -0.039700
   113  H   -0.028432
   114  H   -0.020384
   115  H   -0.019056
   116  H    0.000275
   117  H   -0.020593
   118  H   -0.034702
   119  H   -0.040427
   120  H   -0.017460
   121  H   -0.030985
   122  H   -0.044595
   123  H   -0.039965
   124  H   -0.026701
   125  H   -0.009919
   126  H   -0.024187
   127  H   -0.024538
   128  H   -0.026494
   129  H   -0.028137
   130  H   -0.032834
   131  H   -0.028703
   132  H   -0.032801
   133  H   -0.050362
   134  H   -0.033556
   135  H   -0.011979
   136  H   -0.025168
   137  H   -0.021385
   138  H   -0.015383
   139  H   -0.011902
   140  H   -0.004024
 Sum of Mulliken charges =  -0.00000

 Dipole moment (field-independent basis, Debye):
    X=              3.0137    Y=              2.8664    Z=             -2.6786  Tot=              4.9471
 Quadrupole moment (field-independent basis, Debye-Ang):
   XX=           -374.9560   YY=           -438.3357   ZZ=           -407.5659
   XY=            -16.6003   XZ=             -1.2640   YZ=             12.0751

 Normal termination of Gaussian 16 at Fri Apr 29 09:57:40 2022.
