 Gaussian 16, Revision A.03,
 Gaussian 16:  ES64L-G16RevA.03 25-Dec-2016

 -----------------------------------
 #p cam-b3lyp/Def2SVP td=(nstates=5)
 -----------------------------------

 ------------------------------------------------------
 step_201_chromophore_9 TDDFT with cam-b3lyp functional
 ------------------------------------------------------
 Symbolic Z-matrix:
 Charge =  0 Multiplicity = 1

                         Standard orientation:
 ---------------------------------------------------------------------
 Center     Atomic      Atomic             Coordinates (Angstroms)
 Number     Number       Type             X           Y           Z
 ---------------------------------------------------------------------
      1         12           0       -5.061880    0.775603   -0.076686
      2          6           0       -3.771888   -2.359613    0.305057
      3          6           0       -1.758141    1.907310   -0.230211
      4          6           0       -6.180543    3.995892   -0.267709
      5          6           0       -8.289011   -0.344848    0.481545
      6          7           0       -2.974405   -0.117190    0.029547
      7          6           0       -2.723273   -1.499583    0.080979
      8          6           0       -1.232764   -1.817076   -0.078727
      9          6           0       -0.561571   -0.400914    0.092825
     10          6           0       -1.875439    0.562910   -0.050259
     11          6           0        0.204713   -0.139062    1.449675
     12          6           0       -0.950101   -2.364333   -1.545989
     13          6           0        0.284613   -3.407683   -1.647468
     14          6           0        1.326349   -3.621340   -0.417204
     15          8           0        1.511763   -4.699645    0.199986
     16          8           0        2.089891   -2.498285   -0.227034
     17          7           0       -4.115463    2.705791   -0.276366
     18          6           0       -2.762381    2.948009   -0.386347
     19          6           0       -2.524800    4.340647   -0.637532
     20          6           0       -3.794861    5.021930   -0.632172
     21          6           0       -4.779637    3.935244   -0.458739
     22          6           0       -1.201130    4.966955   -0.914139
     23          6           0       -4.183748    6.456594   -0.677598
     24          8           0       -5.321629    6.886620   -0.755963
     25          6           0       -3.092139    7.489748   -0.533344
     26          7           0       -6.952506    1.681066   -0.105404
     27          6           0       -7.198398    2.979194   -0.039874
     28          6           0       -8.702134    3.301056    0.050984
     29          6           0       -9.350611    1.882401    0.264830
     30          6           0       -8.094725    0.947078    0.141839
     31          6           0       -9.171696    4.306946    1.179774
     32          6           0      -10.476921    1.434587   -0.747032
     33          6           0      -10.016560    1.010710   -2.190085
     34          7           0       -5.903652   -0.969484    0.321239
     35          6           0       -7.218273   -1.317552    0.534170
     36          6           0       -7.319109   -2.749143    0.775276
     37          6           0       -5.947973   -3.257512    0.621088
     38          6           0       -5.179208   -2.131807    0.336215
     39          6           0       -8.622876   -3.524635    1.047204
     40          6           0       -5.081316   -4.422491    0.558200
     41          8           0       -5.371230   -5.616645    0.641325
     42          6           0       -3.596888   -3.890821    0.314741
     43          6           0       -2.766595   -4.589432    1.304614
     44          8           0       -2.609184   -4.179351    2.521477
     45          8           0       -2.099710   -5.666105    0.729626
     46          6           0       -1.409644   -6.551499    1.693247
     47          6           0        3.317770   -2.663054    0.594448
     48          6           0        4.442817   -2.437842   -0.413333
     49          6           0        5.265951   -3.319452   -1.070073
     50          6           0        5.246582   -4.855595   -1.103407
     51          6           0        6.249774   -2.870730   -2.235804
     52          6           0        7.524796   -2.120526   -1.830077
     53          6           0        8.663777   -2.069846   -2.886864
     54          6           0        8.895671   -0.472267   -3.315721
     55          6           0        9.089437   -0.440284   -4.871225
     56          6           0       10.149610    0.014146   -2.559912
     57          6           0        9.840845    1.302513   -1.962234
     58          6           0       11.017506    2.250241   -1.748932
     59          6           0       10.961779    2.931775   -0.339624
     60          6           0       11.666583    4.322799   -0.245844
     61          6           0       11.621783    1.962853    0.792147
     62          6           0       10.572286    1.884255    1.943380
     63          6           0       10.866181    2.505073    3.274097
     64          6           0       10.267635    1.711128    4.404612
     65          6           0        8.733510    2.044665    4.585132
     66          6           0       11.094183    1.836224    5.744196
     67          1           0       -0.752644    2.330520   -0.271209
     68          1           0       -6.598704    5.004439   -0.238676
     69          1           0       -9.327945   -0.581367    0.718527
     70          1           0       -0.925589   -2.508506    0.705541
     71          1           0        0.170953   -0.260372   -0.702065
     72          1           0       -0.131101   -0.860436    2.194974
     73          1           0       -0.018678    0.854978    1.836869
     74          1           0        1.260031   -0.300712    1.232672
     75          1           0       -0.986522   -1.566626   -2.286871
     76          1           0       -1.875113   -2.938167   -1.608957
     77          1           0        0.799521   -3.229417   -2.592004
     78          1           0       -0.230512   -4.350090   -1.836454
     79          1           0       -0.409804    4.217977   -0.895831
     80          1           0       -1.020500    5.828604   -0.271315
     81          1           0       -1.255694    5.336346   -1.938642
     82          1           0       -2.380439    7.265352   -1.328338
     83          1           0       -2.710100    7.317566    0.472860
     84          1           0       -3.365202    8.542572   -0.597600
     85          1           0       -8.877746    3.604325   -0.980952
     86          1           0       -9.707786    1.870206    1.294893
     87          1           0       -9.529828    5.254972    0.778253
     88          1           0       -8.445376    4.437119    1.982183
     89          1           0      -10.005817    3.905561    1.755092
     90          1           0      -11.122276    2.307114   -0.848581
     91          1           0      -11.093662    0.618199   -0.370830
     92          1           0      -10.342507    1.821468   -2.841717
     93          1           0      -10.337414    0.008833   -2.473214
     94          1           0       -8.930880    0.938646   -2.258443
     95          1           0       -9.432989   -2.802022    1.150139
     96          1           0       -8.472001   -4.153214    1.924795
     97          1           0       -8.725870   -4.206573    0.203069
     98          1           0       -3.319508   -4.292695   -0.659878
     99          1           0       -0.599074   -6.054472    2.225066
    100          1           0       -1.108728   -7.475849    1.199457
    101          1           0       -2.036541   -6.777854    2.555967
    102          1           0        3.339071   -3.619189    1.117133
    103          1           0        3.370671   -1.897495    1.368703
    104          1           0        4.578604   -1.401135   -0.720886
    105          1           0        5.508979   -5.238328   -2.089300
    106          1           0        4.262656   -5.214433   -0.800570
    107          1           0        5.993404   -5.225177   -0.400869
    108          1           0        5.646233   -2.196012   -2.842316
    109          1           0        6.623316   -3.666931   -2.879269
    110          1           0        7.921557   -2.627129   -0.950777
    111          1           0        7.184478   -1.131229   -1.523397
    112          1           0        8.460303   -2.730413   -3.729961
    113          1           0        9.456684   -2.604594   -2.363145
    114          1           0        8.030856    0.104681   -2.989566
    115          1           0        8.098452   -0.567849   -5.305542
    116          1           0        9.753828   -1.238477   -5.203287
    117          1           0        9.400350    0.537592   -5.238583
    118          1           0       11.020549   -0.047493   -3.213319
    119          1           0       10.346563   -0.638834   -1.708975
    120          1           0        9.326363    1.145965   -1.013322
    121          1           0        9.283407    1.981755   -2.606643
    122          1           0       11.041925    3.065758   -2.470988
    123          1           0       11.968888    1.719438   -1.757884
    124          1           0        9.930341    3.272981   -0.251679
    125          1           0       12.162801    4.339950    0.725065
    126          1           0       10.940281    5.122168   -0.387786
    127          1           0       12.363217    4.440322   -1.075664
    128          1           0       12.520337    2.339463    1.279593
    129          1           0       11.823556    0.957044    0.423640
    130          1           0       10.281092    0.834510    1.912992
    131          1           0        9.713760    2.474024    1.623713
    132          1           0       10.519252    3.536971    3.315154
    133          1           0       11.935645    2.549378    3.481015
    134          1           0       10.186890    0.657603    4.135809
    135          1           0        8.108166    1.270960    4.140653
    136          1           0        8.404408    2.969052    4.108442
    137          1           0        8.477819    2.217502    5.630362
    138          1           0       12.176710    1.908332    5.639100
    139          1           0       10.913320    0.864692    6.203869
    140          1           0       10.718078    2.723266    6.254712
 ---------------------------------------------------------------------

 SCF Done:  E(RCAM-B3LYP) =  -3007.12982749     A.U. after   17 cycles

 Excitation energies and oscillator strengths:

 Excited State   1:      Singlet-A      1.8173 eV  682.26 nm  f=0.3915  <S**2>=0.000
     245 -> 248        0.15630
     246 -> 247        0.68849
 This state for optimization and/or second-order correction.
 Total Energy, E(TD-HF/TD-DFT) =  -3007.06304473
 Copying the excited state density for this state as the 1-particle RhoCI density.

 Excited State   2:      Singlet-A      2.1714 eV  571.00 nm  f=0.1807  <S**2>=0.000
     245 -> 247        0.66595
     246 -> 248       -0.20880

 Excited State   3:      Singlet-A      3.2959 eV  376.18 nm  f=0.0038  <S**2>=0.000
     239 -> 247        0.11173
     241 -> 247        0.53304
     242 -> 247        0.28860
     243 -> 247       -0.12269
     244 -> 247       -0.24741
     246 -> 248        0.16861

 Excited State   4:      Singlet-A      3.3976 eV  364.92 nm  f=0.0012  <S**2>=0.000
     240 -> 247        0.55077
     240 -> 248       -0.17264
     240 -> 249       -0.21881
     240 -> 250        0.14853
     244 -> 247       -0.25902

 Excited State   5:      Singlet-A      3.4352 eV  360.92 nm  f=0.0146  <S**2>=0.000
     239 -> 247        0.11715
     240 -> 247        0.23937
     241 -> 247        0.18724
     244 -> 247        0.59007

 The electronic state is 1-A.
 Alpha  occ. eigenvalues --  -46.88413 -19.26069 -19.24953 -19.20663 -19.19287
 Alpha  occ. eigenvalues --  -19.18620 -19.18113 -14.42411 -14.41847 -14.39941
 Alpha  occ. eigenvalues --  -14.39183 -10.41170 -10.39155 -10.35569 -10.34648
 Alpha  occ. eigenvalues --  -10.32980 -10.32420 -10.31510 -10.31359 -10.31055
 Alpha  occ. eigenvalues --  -10.30392 -10.30353 -10.30286 -10.29720 -10.29203
 Alpha  occ. eigenvalues --  -10.28960 -10.28626 -10.28575 -10.28573 -10.28431
 Alpha  occ. eigenvalues --  -10.28241 -10.28134 -10.28123 -10.27947 -10.27885
 Alpha  occ. eigenvalues --  -10.27879 -10.27657 -10.27644 -10.26961 -10.26948
 Alpha  occ. eigenvalues --  -10.26840 -10.26805 -10.26738 -10.26683 -10.26580
 Alpha  occ. eigenvalues --  -10.26310 -10.25973 -10.25772 -10.25759 -10.25706
 Alpha  occ. eigenvalues --  -10.25699 -10.25641 -10.25589 -10.25392 -10.25318
 Alpha  occ. eigenvalues --  -10.25145 -10.25137 -10.24831 -10.24694 -10.24500
 Alpha  occ. eigenvalues --  -10.24321 -10.24288 -10.24258 -10.24226 -10.24119
 Alpha  occ. eigenvalues --  -10.24006  -3.17019  -1.91928  -1.91457  -1.91345
 Alpha  occ. eigenvalues --   -1.16032  -1.13608  -1.10813  -1.08463  -1.06979
 Alpha  occ. eigenvalues --   -1.04506  -1.04068  -1.03871  -1.02528  -1.02078
 Alpha  occ. eigenvalues --   -0.92156  -0.90395  -0.89428  -0.89004  -0.88926
 Alpha  occ. eigenvalues --   -0.88586  -0.88318  -0.87549  -0.86944  -0.86839
 Alpha  occ. eigenvalues --   -0.85093  -0.84931  -0.83835  -0.83246  -0.83104
 Alpha  occ. eigenvalues --   -0.82326  -0.82198  -0.81302  -0.80898  -0.80218
 Alpha  occ. eigenvalues --   -0.80068  -0.78867  -0.77412  -0.76628  -0.75579
 Alpha  occ. eigenvalues --   -0.75413  -0.75395  -0.75280  -0.74978  -0.74591
 Alpha  occ. eigenvalues --   -0.73267  -0.72534  -0.71547  -0.70247  -0.69845
 Alpha  occ. eigenvalues --   -0.68465  -0.67667  -0.67456  -0.65907  -0.65528
 Alpha  occ. eigenvalues --   -0.65139  -0.65075  -0.64662  -0.64482  -0.64123
 Alpha  occ. eigenvalues --   -0.63616  -0.63197  -0.63000  -0.61494  -0.60198
 Alpha  occ. eigenvalues --   -0.59989  -0.59157  -0.59088  -0.57770  -0.57322
 Alpha  occ. eigenvalues --   -0.57003  -0.56456  -0.56000  -0.55391  -0.55362
 Alpha  occ. eigenvalues --   -0.55004  -0.54842  -0.54419  -0.54099  -0.53580
 Alpha  occ. eigenvalues --   -0.53541  -0.53304  -0.53151  -0.53007  -0.52915
 Alpha  occ. eigenvalues --   -0.52570  -0.52483  -0.52001  -0.51866  -0.51590
 Alpha  occ. eigenvalues --   -0.51222  -0.51070  -0.50857  -0.50599  -0.50460
 Alpha  occ. eigenvalues --   -0.50319  -0.50156  -0.49702  -0.49289  -0.49179
 Alpha  occ. eigenvalues --   -0.49114  -0.48974  -0.48906  -0.48738  -0.48383
 Alpha  occ. eigenvalues --   -0.48208  -0.48100  -0.47993  -0.47897  -0.47693
 Alpha  occ. eigenvalues --   -0.47467  -0.47223  -0.47134  -0.46864  -0.46657
 Alpha  occ. eigenvalues --   -0.46585  -0.46361  -0.46326  -0.45949  -0.45833
 Alpha  occ. eigenvalues --   -0.45637  -0.45412  -0.45390  -0.45274  -0.44867
 Alpha  occ. eigenvalues --   -0.44753  -0.44549  -0.44251  -0.44101  -0.43955
 Alpha  occ. eigenvalues --   -0.43796  -0.43592  -0.43273  -0.43247  -0.43210
 Alpha  occ. eigenvalues --   -0.42852  -0.42578  -0.42269  -0.41971  -0.41886
 Alpha  occ. eigenvalues --   -0.41833  -0.41394  -0.41334  -0.41099  -0.40967
 Alpha  occ. eigenvalues --   -0.40746  -0.40646  -0.40356  -0.40346  -0.40042
 Alpha  occ. eigenvalues --   -0.39995  -0.39843  -0.39517  -0.39069  -0.38598
 Alpha  occ. eigenvalues --   -0.38506  -0.38238  -0.38147  -0.38069  -0.37581
 Alpha  occ. eigenvalues --   -0.37291  -0.37036  -0.36618  -0.36419  -0.36157
 Alpha  occ. eigenvalues --   -0.35341  -0.35052  -0.34602  -0.34488  -0.33586
 Alpha  occ. eigenvalues --   -0.33339  -0.32700  -0.32640  -0.31663  -0.31264
 Alpha  occ. eigenvalues --   -0.30588  -0.30506  -0.30101  -0.28978  -0.23989
 Alpha  occ. eigenvalues --   -0.21941
 Alpha virt. eigenvalues --   -0.09178  -0.01453   0.00373   0.02467   0.02631
 Alpha virt. eigenvalues --    0.03508   0.04392   0.04739   0.05638   0.06832
 Alpha virt. eigenvalues --    0.07633   0.08705   0.08803   0.08959   0.09290

 Mulliken charges:
               1
     1  Mg   0.835770
     2  C    0.077444
     3  C   -0.077912
     4  C   -0.054339
     5  C   -0.065332
     6  N   -0.243796
     7  C   -0.058023
     8  C   -0.051790
     9  C   -0.052800
    10  C    0.044461
    11  C    0.062587
    12  C    0.070245
    13  C    0.065893
    14  C    0.200520
    15  O   -0.255878
    16  O   -0.338221
    17  N   -0.373562
    18  C    0.131749
    19  C   -0.140090
    20  C   -0.019899
    21  C    0.123216
    22  C    0.115920
    23  C   -0.005487
    24  O   -0.190360
    25  C    0.039046
    26  N   -0.282556
    27  C    0.008883
    28  C   -0.008421
    29  C   -0.043724
    30  C    0.024933
    31  C    0.067808
    32  C    0.009120
    33  C   -0.007846
    34  N   -0.414357
    35  C    0.142732
    36  C   -0.202011
    37  C    0.018061
    38  C    0.099050
    39  C    0.140067
    40  C    0.014648
    41  O   -0.182755
    42  C   -0.055606
    43  C    0.234896
    44  O   -0.294462
    45  O   -0.336706
    46  C    0.203263
    47  C    0.285478
    48  C   -0.120942
    49  C   -0.151854
    50  C    0.068750
    51  C    0.030508
    52  C   -0.003324
    53  C    0.035360
    54  C   -0.136571
    55  C    0.050404
    56  C    0.109549
    57  C   -0.003493
    58  C    0.061819
    59  C   -0.185084
    60  C    0.056177
    61  C    0.052002
    62  C   -0.011809
    63  C    0.092634
    64  C   -0.175123
    65  C    0.020936
    66  C    0.048692
    67  H   -0.040742
    68  H   -0.004238
    69  H   -0.022169
    70  H    0.038240
    71  H    0.008820
    72  H    0.026344
    73  H    0.016422
    74  H    0.020071
    75  H    0.017962
    76  H    0.003897
    77  H    0.034080
    78  H    0.029584
    79  H    0.013927
    80  H    0.040333
    81  H    0.040637
    82  H    0.024566
    83  H    0.042218
    84  H    0.026004
    85  H    0.021680
    86  H    0.011114
    87  H    0.030495
    88  H    0.022917
    89  H    0.009566
    90  H    0.006340
    91  H    0.013764
    92  H    0.020762
    93  H    0.023713
    94  H    0.022689
    95  H    0.008526
    96  H    0.034753
    97  H    0.034028
    98  H    0.053699
    99  H    0.032918
   100  H    0.044489
   101  H    0.026914
   102  H    0.044296
   103  H    0.027436
   104  H   -0.004735
   105  H    0.023909
   106  H    0.028633
   107  H    0.024804
   108  H    0.008168
   109  H   -0.002375
   110  H   -0.009782
   111  H   -0.000741
   112  H   -0.010743
   113  H    0.000700
   114  H    0.010567
   115  H    0.004839
   116  H    0.022164
   117  H    0.003438
   118  H   -0.004346
   119  H   -0.011720
   120  H    0.008324
   121  H   -0.002908
   122  H   -0.014772
   123  H   -0.011782
   124  H    0.002877
   125  H    0.011832
   126  H   -0.000016
   127  H   -0.000178
   128  H    0.001764
   129  H   -0.000076
   130  H   -0.004595
   131  H   -0.002194
   132  H   -0.005092
   133  H   -0.021709
   134  H   -0.001478
   135  H    0.011685
   136  H   -0.001819
   137  H    0.003775
   138  H    0.008887
   139  H    0.012292
   140  H    0.017856
 Sum of Mulliken charges =  -0.00000

 Dipole moment (field-independent basis, Debye):
    X=              3.6819    Y=              4.8267    Z=             -3.0055  Tot=              6.7739
 Quadrupole moment (field-independent basis, Debye-Ang):
   XX=           -379.6088   YY=           -432.0485   ZZ=           -407.7035
   XY=            -24.2431   XZ=             -0.3420   YZ=             12.1103

 Normal termination of Gaussian 16 at Fri Apr 29 09:03:55 2022.
