 Gaussian 16, Revision A.03,
 Gaussian 16:  ES64L-G16RevA.03 25-Dec-2016

 ---------------------------------
 #p PBE1PBE/Def2SVP td=(nstates=5)
 ---------------------------------

 ----------------------------------------------------
 step_201_chromophore_9 TDDFT with PBE1PBE functional
 ----------------------------------------------------
 Symbolic Z-matrix:
 Charge =  0 Multiplicity = 1

                         Standard orientation:
 ---------------------------------------------------------------------
 Center     Atomic      Atomic             Coordinates (Angstroms)
 Number     Number       Type             X           Y           Z
 ---------------------------------------------------------------------
      1         12           0       -5.061880    0.775603   -0.076686
      2          6           0       -3.771888   -2.359613    0.305057
      3          6           0       -1.758141    1.907310   -0.230211
      4          6           0       -6.180543    3.995892   -0.267709
      5          6           0       -8.289011   -0.344848    0.481545
      6          7           0       -2.974405   -0.117190    0.029547
      7          6           0       -2.723273   -1.499583    0.080979
      8          6           0       -1.232764   -1.817076   -0.078727
      9          6           0       -0.561571   -0.400914    0.092825
     10          6           0       -1.875439    0.562910   -0.050259
     11          6           0        0.204713   -0.139062    1.449675
     12          6           0       -0.950101   -2.364333   -1.545989
     13          6           0        0.284613   -3.407683   -1.647468
     14          6           0        1.326349   -3.621340   -0.417204
     15          8           0        1.511763   -4.699645    0.199986
     16          8           0        2.089891   -2.498285   -0.227034
     17          7           0       -4.115463    2.705791   -0.276366
     18          6           0       -2.762381    2.948009   -0.386347
     19          6           0       -2.524800    4.340647   -0.637532
     20          6           0       -3.794861    5.021930   -0.632172
     21          6           0       -4.779637    3.935244   -0.458739
     22          6           0       -1.201130    4.966955   -0.914139
     23          6           0       -4.183748    6.456594   -0.677598
     24          8           0       -5.321629    6.886620   -0.755963
     25          6           0       -3.092139    7.489748   -0.533344
     26          7           0       -6.952506    1.681066   -0.105404
     27          6           0       -7.198398    2.979194   -0.039874
     28          6           0       -8.702134    3.301056    0.050984
     29          6           0       -9.350611    1.882401    0.264830
     30          6           0       -8.094725    0.947078    0.141839
     31          6           0       -9.171696    4.306946    1.179774
     32          6           0      -10.476921    1.434587   -0.747032
     33          6           0      -10.016560    1.010710   -2.190085
     34          7           0       -5.903652   -0.969484    0.321239
     35          6           0       -7.218273   -1.317552    0.534170
     36          6           0       -7.319109   -2.749143    0.775276
     37          6           0       -5.947973   -3.257512    0.621088
     38          6           0       -5.179208   -2.131807    0.336215
     39          6           0       -8.622876   -3.524635    1.047204
     40          6           0       -5.081316   -4.422491    0.558200
     41          8           0       -5.371230   -5.616645    0.641325
     42          6           0       -3.596888   -3.890821    0.314741
     43          6           0       -2.766595   -4.589432    1.304614
     44          8           0       -2.609184   -4.179351    2.521477
     45          8           0       -2.099710   -5.666105    0.729626
     46          6           0       -1.409644   -6.551499    1.693247
     47          6           0        3.317770   -2.663054    0.594448
     48          6           0        4.442817   -2.437842   -0.413333
     49          6           0        5.265951   -3.319452   -1.070073
     50          6           0        5.246582   -4.855595   -1.103407
     51          6           0        6.249774   -2.870730   -2.235804
     52          6           0        7.524796   -2.120526   -1.830077
     53          6           0        8.663777   -2.069846   -2.886864
     54          6           0        8.895671   -0.472267   -3.315721
     55          6           0        9.089437   -0.440284   -4.871225
     56          6           0       10.149610    0.014146   -2.559912
     57          6           0        9.840845    1.302513   -1.962234
     58          6           0       11.017506    2.250241   -1.748932
     59          6           0       10.961779    2.931775   -0.339624
     60          6           0       11.666583    4.322799   -0.245844
     61          6           0       11.621783    1.962853    0.792147
     62          6           0       10.572286    1.884255    1.943380
     63          6           0       10.866181    2.505073    3.274097
     64          6           0       10.267635    1.711128    4.404612
     65          6           0        8.733510    2.044665    4.585132
     66          6           0       11.094183    1.836224    5.744196
     67          1           0       -0.752644    2.330520   -0.271209
     68          1           0       -6.598704    5.004439   -0.238676
     69          1           0       -9.327945   -0.581367    0.718527
     70          1           0       -0.925589   -2.508506    0.705541
     71          1           0        0.170953   -0.260372   -0.702065
     72          1           0       -0.131101   -0.860436    2.194974
     73          1           0       -0.018678    0.854978    1.836869
     74          1           0        1.260031   -0.300712    1.232672
     75          1           0       -0.986522   -1.566626   -2.286871
     76          1           0       -1.875113   -2.938167   -1.608957
     77          1           0        0.799521   -3.229417   -2.592004
     78          1           0       -0.230512   -4.350090   -1.836454
     79          1           0       -0.409804    4.217977   -0.895831
     80          1           0       -1.020500    5.828604   -0.271315
     81          1           0       -1.255694    5.336346   -1.938642
     82          1           0       -2.380439    7.265352   -1.328338
     83          1           0       -2.710100    7.317566    0.472860
     84          1           0       -3.365202    8.542572   -0.597600
     85          1           0       -8.877746    3.604325   -0.980952
     86          1           0       -9.707786    1.870206    1.294893
     87          1           0       -9.529828    5.254972    0.778253
     88          1           0       -8.445376    4.437119    1.982183
     89          1           0      -10.005817    3.905561    1.755092
     90          1           0      -11.122276    2.307114   -0.848581
     91          1           0      -11.093662    0.618199   -0.370830
     92          1           0      -10.342507    1.821468   -2.841717
     93          1           0      -10.337414    0.008833   -2.473214
     94          1           0       -8.930880    0.938646   -2.258443
     95          1           0       -9.432989   -2.802022    1.150139
     96          1           0       -8.472001   -4.153214    1.924795
     97          1           0       -8.725870   -4.206573    0.203069
     98          1           0       -3.319508   -4.292695   -0.659878
     99          1           0       -0.599074   -6.054472    2.225066
    100          1           0       -1.108728   -7.475849    1.199457
    101          1           0       -2.036541   -6.777854    2.555967
    102          1           0        3.339071   -3.619189    1.117133
    103          1           0        3.370671   -1.897495    1.368703
    104          1           0        4.578604   -1.401135   -0.720886
    105          1           0        5.508979   -5.238328   -2.089300
    106          1           0        4.262656   -5.214433   -0.800570
    107          1           0        5.993404   -5.225177   -0.400869
    108          1           0        5.646233   -2.196012   -2.842316
    109          1           0        6.623316   -3.666931   -2.879269
    110          1           0        7.921557   -2.627129   -0.950777
    111          1           0        7.184478   -1.131229   -1.523397
    112          1           0        8.460303   -2.730413   -3.729961
    113          1           0        9.456684   -2.604594   -2.363145
    114          1           0        8.030856    0.104681   -2.989566
    115          1           0        8.098452   -0.567849   -5.305542
    116          1           0        9.753828   -1.238477   -5.203287
    117          1           0        9.400350    0.537592   -5.238583
    118          1           0       11.020549   -0.047493   -3.213319
    119          1           0       10.346563   -0.638834   -1.708975
    120          1           0        9.326363    1.145965   -1.013322
    121          1           0        9.283407    1.981755   -2.606643
    122          1           0       11.041925    3.065758   -2.470988
    123          1           0       11.968888    1.719438   -1.757884
    124          1           0        9.930341    3.272981   -0.251679
    125          1           0       12.162801    4.339950    0.725065
    126          1           0       10.940281    5.122168   -0.387786
    127          1           0       12.363217    4.440322   -1.075664
    128          1           0       12.520337    2.339463    1.279593
    129          1           0       11.823556    0.957044    0.423640
    130          1           0       10.281092    0.834510    1.912992
    131          1           0        9.713760    2.474024    1.623713
    132          1           0       10.519252    3.536971    3.315154
    133          1           0       11.935645    2.549378    3.481015
    134          1           0       10.186890    0.657603    4.135809
    135          1           0        8.108166    1.270960    4.140653
    136          1           0        8.404408    2.969052    4.108442
    137          1           0        8.477819    2.217502    5.630362
    138          1           0       12.176710    1.908332    5.639100
    139          1           0       10.913320    0.864692    6.203869
    140          1           0       10.718078    2.723266    6.254712
 ---------------------------------------------------------------------

 SCF Done:  E(RPBE1PBE) =  -3005.31627795     A.U. after   16 cycles

 Excitation energies and oscillator strengths:

 Excited State   1:      Singlet-A      1.8881 eV  656.67 nm  f=0.3763  <S**2>=0.000
     245 -> 248        0.15937
     246 -> 247        0.69330
     246 <- 247       -0.10117
 This state for optimization and/or second-order correction.
 Total Energy, E(TD-HF/TD-DFT) =  -3005.24689238
 Copying the excited state density for this state as the 1-particle RhoCI density.

 Excited State   2:      Singlet-A      2.1690 eV  571.62 nm  f=0.1604  <S**2>=0.000
     245 -> 247        0.67343
     246 -> 248       -0.19731

 Excited State   3:      Singlet-A      2.8692 eV  432.12 nm  f=0.0003  <S**2>=0.000
     240 -> 247        0.10171
     242 -> 247        0.66761
     242 -> 248       -0.10477
     242 -> 249       -0.10830

 Excited State   4:      Singlet-A      2.9488 eV  420.45 nm  f=0.0029  <S**2>=0.000
     240 -> 247       -0.12365
     243 -> 247        0.12367
     244 -> 247        0.67051

 Excited State   5:      Singlet-A      2.9760 eV  416.62 nm  f=0.0011  <S**2>=0.000
     243 -> 247        0.67218
     243 -> 249        0.15039
     244 -> 247       -0.12089

 The electronic state is 1-A.
 Alpha  occ. eigenvalues --  -46.91839 -19.26792 -19.25754 -19.21024 -19.19115
 Alpha  occ. eigenvalues --  -19.19064 -19.18773 -14.41845 -14.41400 -14.39433
 Alpha  occ. eigenvalues --  -14.39154 -10.38289 -10.36350 -10.32307 -10.32193
 Alpha  occ. eigenvalues --  -10.30390 -10.29729 -10.28748 -10.28519 -10.28464
 Alpha  occ. eigenvalues --  -10.28442 -10.27758 -10.27696 -10.27528 -10.27324
 Alpha  occ. eigenvalues --  -10.26731 -10.26536 -10.26357 -10.26259 -10.26132
 Alpha  occ. eigenvalues --  -10.26022 -10.25882 -10.25880 -10.25866 -10.25840
 Alpha  occ. eigenvalues --  -10.25645 -10.25557 -10.24936 -10.24602 -10.24512
 Alpha  occ. eigenvalues --  -10.24503 -10.24482 -10.24451 -10.24339 -10.23958
 Alpha  occ. eigenvalues --  -10.23566 -10.23524 -10.23506 -10.23301 -10.23289
 Alpha  occ. eigenvalues --  -10.23242 -10.23193 -10.23113 -10.23109 -10.22911
 Alpha  occ. eigenvalues --  -10.22869 -10.22710 -10.22533 -10.22078 -10.21877
 Alpha  occ. eigenvalues --  -10.21832 -10.21829 -10.21744 -10.21614 -10.21600
 Alpha  occ. eigenvalues --  -10.21518  -3.14024  -1.86876  -1.86380  -1.86276
 Alpha  occ. eigenvalues --   -1.10874  -1.08518  -1.05173  -1.03591  -1.01877
 Alpha  occ. eigenvalues --   -0.99094  -0.98882  -0.98584  -0.97405  -0.96550
 Alpha  occ. eigenvalues --   -0.86780  -0.84478  -0.83545  -0.83165  -0.83067
 Alpha  occ. eigenvalues --   -0.82830  -0.82353  -0.81722  -0.81194  -0.80979
 Alpha  occ. eigenvalues --   -0.79679  -0.79131  -0.78102  -0.77532  -0.77368
 Alpha  occ. eigenvalues --   -0.76459  -0.76214  -0.75575  -0.75195  -0.74516
 Alpha  occ. eigenvalues --   -0.74241  -0.72900  -0.71763  -0.70990  -0.69992
 Alpha  occ. eigenvalues --   -0.69620  -0.69502  -0.69461  -0.69160  -0.68732
 Alpha  occ. eigenvalues --   -0.67616  -0.67105  -0.65860  -0.64550  -0.64252
 Alpha  occ. eigenvalues --   -0.62914  -0.62201  -0.61685  -0.60150  -0.59882
 Alpha  occ. eigenvalues --   -0.59729  -0.59290  -0.59136  -0.58707  -0.58589
 Alpha  occ. eigenvalues --   -0.58169  -0.57331  -0.57159  -0.56214  -0.54473
 Alpha  occ. eigenvalues --   -0.54380  -0.53749  -0.53699  -0.52419  -0.52079
 Alpha  occ. eigenvalues --   -0.51558  -0.50898  -0.50528  -0.49959  -0.49734
 Alpha  occ. eigenvalues --   -0.49606  -0.49417  -0.49008  -0.48687  -0.47954
 Alpha  occ. eigenvalues --   -0.47831  -0.47787  -0.47573  -0.47398  -0.47372
 Alpha  occ. eigenvalues --   -0.47140  -0.47054  -0.46510  -0.46472  -0.46098
 Alpha  occ. eigenvalues --   -0.45844  -0.45555  -0.45312  -0.45284  -0.44980
 Alpha  occ. eigenvalues --   -0.44741  -0.44666  -0.44496  -0.43783  -0.43743
 Alpha  occ. eigenvalues --   -0.43609  -0.43572  -0.43488  -0.43341  -0.43091
 Alpha  occ. eigenvalues --   -0.42930  -0.42764  -0.42547  -0.42455  -0.42328
 Alpha  occ. eigenvalues --   -0.42180  -0.41825  -0.41756  -0.41545  -0.41268
 Alpha  occ. eigenvalues --   -0.41187  -0.41112  -0.41016  -0.40843  -0.40566
 Alpha  occ. eigenvalues --   -0.40499  -0.40106  -0.40006  -0.39949  -0.39644
 Alpha  occ. eigenvalues --   -0.39483  -0.39276  -0.39020  -0.38837  -0.38651
 Alpha  occ. eigenvalues --   -0.38563  -0.38370  -0.38045  -0.38037  -0.37885
 Alpha  occ. eigenvalues --   -0.37766  -0.37285  -0.36992  -0.36896  -0.36773
 Alpha  occ. eigenvalues --   -0.36735  -0.36286  -0.36116  -0.36006  -0.35754
 Alpha  occ. eigenvalues --   -0.35617  -0.35452  -0.35314  -0.35068  -0.34978
 Alpha  occ. eigenvalues --   -0.34781  -0.34712  -0.34468  -0.34007  -0.33391
 Alpha  occ. eigenvalues --   -0.33337  -0.33300  -0.33118  -0.32835  -0.32334
 Alpha  occ. eigenvalues --   -0.32132  -0.31970  -0.31746  -0.31266  -0.31243
 Alpha  occ. eigenvalues --   -0.30231  -0.30122  -0.29765  -0.29460  -0.28938
 Alpha  occ. eigenvalues --   -0.28626  -0.27713  -0.27578  -0.27136  -0.25936
 Alpha  occ. eigenvalues --   -0.25846  -0.25642  -0.25369  -0.25067  -0.20882
 Alpha  occ. eigenvalues --   -0.19405
 Alpha virt. eigenvalues --   -0.11642  -0.05103  -0.03893  -0.01984  -0.01868
 Alpha virt. eigenvalues --   -0.00414   0.00192   0.00741   0.02157   0.02740
 Alpha virt. eigenvalues --    0.03536   0.04800   0.05374   0.05497   0.05779

 Mulliken charges:
               1
     1  Mg   0.989563
     2  C    0.070785
     3  C   -0.065942
     4  C   -0.049581
     5  C   -0.049377
     6  N   -0.347545
     7  C    0.008016
     8  C   -0.127944
     9  C   -0.111949
    10  C    0.074868
    11  C    0.002605
    12  C    0.013848
    13  C    0.002922
    14  C    0.254203
    15  O   -0.288158
    16  O   -0.362299
    17  N   -0.480126
    18  C    0.158191
    19  C   -0.174877
    20  C   -0.068249
    21  C    0.152173
    22  C    0.055844
    23  C    0.044708
    24  O   -0.231907
    25  C   -0.036702
    26  N   -0.393059
    27  C    0.048428
    28  C   -0.087807
    29  C   -0.115258
    30  C    0.051867
    31  C    0.009026
    32  C   -0.053379
    33  C   -0.079068
    34  N   -0.541565
    35  C    0.167487
    36  C   -0.213772
    37  C   -0.019472
    38  C    0.141813
    39  C    0.083089
    40  C    0.106477
    41  O   -0.224394
    42  C   -0.167499
    43  C    0.320347
    44  O   -0.325514
    45  O   -0.367955
    46  C    0.147686
    47  C    0.240190
    48  C   -0.140957
    49  C   -0.184254
    50  C    0.004631
    51  C   -0.032418
    52  C   -0.064463
    53  C   -0.015614
    54  C   -0.225854
    55  C   -0.011624
    56  C    0.059857
    57  C   -0.070226
    58  C    0.006529
    59  C   -0.268913
    60  C   -0.001231
    61  C   -0.003252
    62  C   -0.069292
    63  C    0.032864
    64  C   -0.265799
    65  C   -0.034478
    66  C   -0.015606
    67  H   -0.007145
    68  H    0.027890
    69  H    0.008461
    70  H    0.078950
    71  H    0.043959
    72  H    0.052585
    73  H    0.044739
    74  H    0.050043
    75  H    0.048973
    76  H    0.042735
    77  H    0.065217
    78  H    0.060697
    79  H    0.039926
    80  H    0.065274
    81  H    0.067117
    82  H    0.051200
    83  H    0.068865
    84  H    0.052428
    85  H    0.059516
    86  H    0.048662
    87  H    0.057193
    88  H    0.050122
    89  H    0.035238
    90  H    0.041467
    91  H    0.044534
    92  H    0.048561
    93  H    0.050546
    94  H    0.053136
    95  H    0.038733
    96  H    0.064551
    97  H    0.064151
    98  H    0.091655
    99  H    0.055562
   100  H    0.066339
   101  H    0.049000
   102  H    0.069585
   103  H    0.053096
   104  H    0.025673
   105  H    0.050146
   106  H    0.057301
   107  H    0.053659
   108  H    0.042167
   109  H    0.028332
   110  H    0.024368
   111  H    0.031597
   112  H    0.019962
   113  H    0.032065
   114  H    0.046182
   115  H    0.034130
   116  H    0.048918
   117  H    0.032097
   118  H    0.026572
   119  H    0.022443
   120  H    0.042381
   121  H    0.030787
   122  H    0.018296
   123  H    0.021701
   124  H    0.039267
   125  H    0.039553
   126  H    0.027599
   127  H    0.027398
   128  H    0.033309
   129  H    0.031974
   130  H    0.025725
   131  H    0.031079
   132  H    0.027534
   133  H    0.011276
   134  H    0.036688
   135  H    0.038394
   136  H    0.024994
   137  H    0.030840
   138  H    0.035959
   139  H    0.040321
   140  H    0.045117
 Sum of Mulliken charges =  -0.00000

 Dipole moment (field-independent basis, Debye):
    X=              3.3339    Y=              3.7941    Z=             -2.8884  Tot=              5.8183
 Quadrupole moment (field-independent basis, Debye-Ang):
   XX=           -370.4184   YY=           -430.7843   ZZ=           -405.2485
   XY=            -19.9190   XZ=             -1.5551   YZ=             12.2779

 Normal termination of Gaussian 16 at Fri Apr 29 09:21:42 2022.
