 Gaussian 16, Revision A.03,
 Gaussian 16:  ES64L-G16RevA.03 25-Dec-2016

 --------------------------------
 #p wB97XD/Def2SVP td=(nstates=5)
 --------------------------------

 ---------------------------------------------------
 step_201_chromophore_9 TDDFT with wB97XD functional
 ---------------------------------------------------
 Symbolic Z-matrix:
 Charge =  0 Multiplicity = 1

                         Standard orientation:
 ---------------------------------------------------------------------
 Center     Atomic      Atomic             Coordinates (Angstroms)
 Number     Number       Type             X           Y           Z
 ---------------------------------------------------------------------
      1         12           0       -5.061880    0.775603   -0.076686
      2          6           0       -3.771888   -2.359613    0.305057
      3          6           0       -1.758141    1.907310   -0.230211
      4          6           0       -6.180543    3.995892   -0.267709
      5          6           0       -8.289011   -0.344848    0.481545
      6          7           0       -2.974405   -0.117190    0.029547
      7          6           0       -2.723273   -1.499583    0.080979
      8          6           0       -1.232764   -1.817076   -0.078727
      9          6           0       -0.561571   -0.400914    0.092825
     10          6           0       -1.875439    0.562910   -0.050259
     11          6           0        0.204713   -0.139062    1.449675
     12          6           0       -0.950101   -2.364333   -1.545989
     13          6           0        0.284613   -3.407683   -1.647468
     14          6           0        1.326349   -3.621340   -0.417204
     15          8           0        1.511763   -4.699645    0.199986
     16          8           0        2.089891   -2.498285   -0.227034
     17          7           0       -4.115463    2.705791   -0.276366
     18          6           0       -2.762381    2.948009   -0.386347
     19          6           0       -2.524800    4.340647   -0.637532
     20          6           0       -3.794861    5.021930   -0.632172
     21          6           0       -4.779637    3.935244   -0.458739
     22          6           0       -1.201130    4.966955   -0.914139
     23          6           0       -4.183748    6.456594   -0.677598
     24          8           0       -5.321629    6.886620   -0.755963
     25          6           0       -3.092139    7.489748   -0.533344
     26          7           0       -6.952506    1.681066   -0.105404
     27          6           0       -7.198398    2.979194   -0.039874
     28          6           0       -8.702134    3.301056    0.050984
     29          6           0       -9.350611    1.882401    0.264830
     30          6           0       -8.094725    0.947078    0.141839
     31          6           0       -9.171696    4.306946    1.179774
     32          6           0      -10.476921    1.434587   -0.747032
     33          6           0      -10.016560    1.010710   -2.190085
     34          7           0       -5.903652   -0.969484    0.321239
     35          6           0       -7.218273   -1.317552    0.534170
     36          6           0       -7.319109   -2.749143    0.775276
     37          6           0       -5.947973   -3.257512    0.621088
     38          6           0       -5.179208   -2.131807    0.336215
     39          6           0       -8.622876   -3.524635    1.047204
     40          6           0       -5.081316   -4.422491    0.558200
     41          8           0       -5.371230   -5.616645    0.641325
     42          6           0       -3.596888   -3.890821    0.314741
     43          6           0       -2.766595   -4.589432    1.304614
     44          8           0       -2.609184   -4.179351    2.521477
     45          8           0       -2.099710   -5.666105    0.729626
     46          6           0       -1.409644   -6.551499    1.693247
     47          6           0        3.317770   -2.663054    0.594448
     48          6           0        4.442817   -2.437842   -0.413333
     49          6           0        5.265951   -3.319452   -1.070073
     50          6           0        5.246582   -4.855595   -1.103407
     51          6           0        6.249774   -2.870730   -2.235804
     52          6           0        7.524796   -2.120526   -1.830077
     53          6           0        8.663777   -2.069846   -2.886864
     54          6           0        8.895671   -0.472267   -3.315721
     55          6           0        9.089437   -0.440284   -4.871225
     56          6           0       10.149610    0.014146   -2.559912
     57          6           0        9.840845    1.302513   -1.962234
     58          6           0       11.017506    2.250241   -1.748932
     59          6           0       10.961779    2.931775   -0.339624
     60          6           0       11.666583    4.322799   -0.245844
     61          6           0       11.621783    1.962853    0.792147
     62          6           0       10.572286    1.884255    1.943380
     63          6           0       10.866181    2.505073    3.274097
     64          6           0       10.267635    1.711128    4.404612
     65          6           0        8.733510    2.044665    4.585132
     66          6           0       11.094183    1.836224    5.744196
     67          1           0       -0.752644    2.330520   -0.271209
     68          1           0       -6.598704    5.004439   -0.238676
     69          1           0       -9.327945   -0.581367    0.718527
     70          1           0       -0.925589   -2.508506    0.705541
     71          1           0        0.170953   -0.260372   -0.702065
     72          1           0       -0.131101   -0.860436    2.194974
     73          1           0       -0.018678    0.854978    1.836869
     74          1           0        1.260031   -0.300712    1.232672
     75          1           0       -0.986522   -1.566626   -2.286871
     76          1           0       -1.875113   -2.938167   -1.608957
     77          1           0        0.799521   -3.229417   -2.592004
     78          1           0       -0.230512   -4.350090   -1.836454
     79          1           0       -0.409804    4.217977   -0.895831
     80          1           0       -1.020500    5.828604   -0.271315
     81          1           0       -1.255694    5.336346   -1.938642
     82          1           0       -2.380439    7.265352   -1.328338
     83          1           0       -2.710100    7.317566    0.472860
     84          1           0       -3.365202    8.542572   -0.597600
     85          1           0       -8.877746    3.604325   -0.980952
     86          1           0       -9.707786    1.870206    1.294893
     87          1           0       -9.529828    5.254972    0.778253
     88          1           0       -8.445376    4.437119    1.982183
     89          1           0      -10.005817    3.905561    1.755092
     90          1           0      -11.122276    2.307114   -0.848581
     91          1           0      -11.093662    0.618199   -0.370830
     92          1           0      -10.342507    1.821468   -2.841717
     93          1           0      -10.337414    0.008833   -2.473214
     94          1           0       -8.930880    0.938646   -2.258443
     95          1           0       -9.432989   -2.802022    1.150139
     96          1           0       -8.472001   -4.153214    1.924795
     97          1           0       -8.725870   -4.206573    0.203069
     98          1           0       -3.319508   -4.292695   -0.659878
     99          1           0       -0.599074   -6.054472    2.225066
    100          1           0       -1.108728   -7.475849    1.199457
    101          1           0       -2.036541   -6.777854    2.555967
    102          1           0        3.339071   -3.619189    1.117133
    103          1           0        3.370671   -1.897495    1.368703
    104          1           0        4.578604   -1.401135   -0.720886
    105          1           0        5.508979   -5.238328   -2.089300
    106          1           0        4.262656   -5.214433   -0.800570
    107          1           0        5.993404   -5.225177   -0.400869
    108          1           0        5.646233   -2.196012   -2.842316
    109          1           0        6.623316   -3.666931   -2.879269
    110          1           0        7.921557   -2.627129   -0.950777
    111          1           0        7.184478   -1.131229   -1.523397
    112          1           0        8.460303   -2.730413   -3.729961
    113          1           0        9.456684   -2.604594   -2.363145
    114          1           0        8.030856    0.104681   -2.989566
    115          1           0        8.098452   -0.567849   -5.305542
    116          1           0        9.753828   -1.238477   -5.203287
    117          1           0        9.400350    0.537592   -5.238583
    118          1           0       11.020549   -0.047493   -3.213319
    119          1           0       10.346563   -0.638834   -1.708975
    120          1           0        9.326363    1.145965   -1.013322
    121          1           0        9.283407    1.981755   -2.606643
    122          1           0       11.041925    3.065758   -2.470988
    123          1           0       11.968888    1.719438   -1.757884
    124          1           0        9.930341    3.272981   -0.251679
    125          1           0       12.162801    4.339950    0.725065
    126          1           0       10.940281    5.122168   -0.387786
    127          1           0       12.363217    4.440322   -1.075664
    128          1           0       12.520337    2.339463    1.279593
    129          1           0       11.823556    0.957044    0.423640
    130          1           0       10.281092    0.834510    1.912992
    131          1           0        9.713760    2.474024    1.623713
    132          1           0       10.519252    3.536971    3.315154
    133          1           0       11.935645    2.549378    3.481015
    134          1           0       10.186890    0.657603    4.135809
    135          1           0        8.108166    1.270960    4.140653
    136          1           0        8.404408    2.969052    4.108442
    137          1           0        8.477819    2.217502    5.630362
    138          1           0       12.176710    1.908332    5.639100
    139          1           0       10.913320    0.864692    6.203869
    140          1           0       10.718078    2.723266    6.254712
 ---------------------------------------------------------------------

 SCF Done:  E(RwB97XD) =  -3007.82904268     A.U. after   17 cycles

 Excitation energies and oscillator strengths:

 Excited State   1:      Singlet-A      1.8061 eV  686.48 nm  f=0.3927  <S**2>=0.000
     245 -> 248        0.15729
     246 -> 247        0.68632
 This state for optimization and/or second-order correction.
 Total Energy, E(TD-HF/TD-DFT) =  -3007.76267051
 Copying the excited state density for this state as the 1-particle RhoCI density.

 Excited State   2:      Singlet-A      2.1272 eV  582.86 nm  f=0.1759  <S**2>=0.000
     245 -> 247        0.66209
     246 -> 248       -0.21158

 Excited State   3:      Singlet-A      3.2954 eV  376.24 nm  f=0.0049  <S**2>=0.000
     239 -> 247        0.15726
     241 -> 247        0.61870
     244 -> 247       -0.16303
     246 -> 248        0.17846

 Excited State   4:      Singlet-A      3.3970 eV  364.99 nm  f=0.0000  <S**2>=0.000
     240 -> 247        0.58939
     240 -> 248       -0.18446
     240 -> 249        0.25249
     240 -> 250       -0.16312

 Excited State   5:      Singlet-A      3.5276 eV  351.47 nm  f=0.0133  <S**2>=0.000
     239 -> 247        0.13778
     241 -> 247        0.11474
     244 -> 247        0.65559

 The electronic state is 1-A.
 Alpha  occ. eigenvalues --  -46.94758 -19.31278 -19.30124 -19.25588 -19.24408
 Alpha  occ. eigenvalues --  -19.23557 -19.23079 -14.47024 -14.46418 -14.44638
 Alpha  occ. eigenvalues --  -14.43730 -10.45009 -10.42987 -10.39617 -10.38591
 Alpha  occ. eigenvalues --  -10.36873 -10.36549 -10.35726 -10.35559 -10.35138
 Alpha  occ. eigenvalues --  -10.34592 -10.34362 -10.34044 -10.33681 -10.33105
 Alpha  occ. eigenvalues --  -10.32867 -10.32671 -10.32666 -10.32650 -10.32477
 Alpha  occ. eigenvalues --  -10.32292 -10.32199 -10.32103 -10.31943 -10.31932
 Alpha  occ. eigenvalues --  -10.31918 -10.31716 -10.31653 -10.31102 -10.31038
 Alpha  occ. eigenvalues --  -10.30865 -10.30745 -10.30690 -10.30667 -10.30483
 Alpha  occ. eigenvalues --  -10.30252 -10.29915 -10.29765 -10.29598 -10.29587
 Alpha  occ. eigenvalues --  -10.29576 -10.29566 -10.29481 -10.29262 -10.29197
 Alpha  occ. eigenvalues --  -10.29065 -10.28975 -10.28779 -10.28514 -10.28312
 Alpha  occ. eigenvalues --  -10.28221 -10.28208 -10.28151 -10.28046 -10.28009
 Alpha  occ. eigenvalues --  -10.27903  -3.20795  -1.94398  -1.93906  -1.93788
 Alpha  occ. eigenvalues --   -1.18197  -1.15738  -1.13119  -1.10612  -1.09155
 Alpha  occ. eigenvalues --   -1.06523  -1.06136  -1.05948  -1.04605  -1.04108
 Alpha  occ. eigenvalues --   -0.94066  -0.92152  -0.91211  -0.90977  -0.90724
 Alpha  occ. eigenvalues --   -0.90432  -0.90255  -0.89524  -0.88848  -0.88656
 Alpha  occ. eigenvalues --   -0.86989  -0.86772  -0.85712  -0.85136  -0.84978
 Alpha  occ. eigenvalues --   -0.84237  -0.84090  -0.83170  -0.82782  -0.82176
 Alpha  occ. eigenvalues --   -0.81910  -0.80902  -0.79280  -0.78518  -0.77485
 Alpha  occ. eigenvalues --   -0.77281  -0.77202  -0.77179  -0.76828  -0.76414
 Alpha  occ. eigenvalues --   -0.75183  -0.74476  -0.73544  -0.72168  -0.71773
 Alpha  occ. eigenvalues --   -0.70512  -0.69664  -0.69327  -0.67772  -0.67463
 Alpha  occ. eigenvalues --   -0.67141  -0.66932  -0.66604  -0.66294  -0.66129
 Alpha  occ. eigenvalues --   -0.65589  -0.65005  -0.64825  -0.63454  -0.62293
 Alpha  occ. eigenvalues --   -0.61891  -0.61128  -0.61056  -0.59752  -0.59294
 Alpha  occ. eigenvalues --   -0.58920  -0.58376  -0.57985  -0.57340  -0.57202
 Alpha  occ. eigenvalues --   -0.56942  -0.56806  -0.56357  -0.56007  -0.55589
 Alpha  occ. eigenvalues --   -0.55384  -0.55188  -0.55093  -0.54891  -0.54794
 Alpha  occ. eigenvalues --   -0.54524  -0.54366  -0.53951  -0.53794  -0.53485
 Alpha  occ. eigenvalues --   -0.53155  -0.52946  -0.52801  -0.52550  -0.52354
 Alpha  occ. eigenvalues --   -0.52305  -0.52042  -0.51563  -0.51197  -0.51126
 Alpha  occ. eigenvalues --   -0.51001  -0.50889  -0.50812  -0.50647  -0.50287
 Alpha  occ. eigenvalues --   -0.50117  -0.50052  -0.49895  -0.49771  -0.49571
 Alpha  occ. eigenvalues --   -0.49379  -0.49122  -0.49020  -0.48791  -0.48595
 Alpha  occ. eigenvalues --   -0.48496  -0.48268  -0.48218  -0.47775  -0.47692
 Alpha  occ. eigenvalues --   -0.47533  -0.47338  -0.47251  -0.47151  -0.46733
 Alpha  occ. eigenvalues --   -0.46658  -0.46484  -0.46163  -0.46040  -0.45892
 Alpha  occ. eigenvalues --   -0.45695  -0.45516  -0.45273  -0.45184  -0.45056
 Alpha  occ. eigenvalues --   -0.44775  -0.44621  -0.44130  -0.43870  -0.43791
 Alpha  occ. eigenvalues --   -0.43747  -0.43304  -0.43200  -0.42980  -0.42839
 Alpha  occ. eigenvalues --   -0.42637  -0.42504  -0.42245  -0.42195  -0.41926
 Alpha  occ. eigenvalues --   -0.41843  -0.41715  -0.41412  -0.40987  -0.40435
 Alpha  occ. eigenvalues --   -0.40387  -0.40148  -0.40092  -0.39923  -0.39410
 Alpha  occ. eigenvalues --   -0.39170  -0.38992  -0.38724  -0.38258  -0.38073
 Alpha  occ. eigenvalues --   -0.37181  -0.37010  -0.36543  -0.36435  -0.35595
 Alpha  occ. eigenvalues --   -0.35434  -0.34609  -0.34472  -0.33859  -0.33293
 Alpha  occ. eigenvalues --   -0.32837  -0.32554  -0.32010  -0.31067  -0.25958
 Alpha  occ. eigenvalues --   -0.23794
 Alpha virt. eigenvalues --   -0.07499   0.00497   0.02412   0.04579   0.04846
 Alpha virt. eigenvalues --    0.06492   0.06626   0.07015   0.08546   0.09153
 Alpha virt. eigenvalues --    0.10174   0.11710   0.12211   0.12245   0.12518

 Mulliken charges:
               1
     1  Mg   0.977161
     2  C    0.065415
     3  C   -0.088910
     4  C   -0.067286
     5  C   -0.065749
     6  N   -0.313516
     7  C   -0.018972
     8  C   -0.100748
     9  C   -0.095335
    10  C    0.067077
    11  C    0.016805
    12  C    0.031081
    13  C    0.015003
    14  C    0.242638
    15  O   -0.285081
    16  O   -0.362186
    17  N   -0.452528
    18  C    0.154756
    19  C   -0.158178
    20  C   -0.062759
    21  C    0.149386
    22  C    0.066728
    23  C    0.043141
    24  O   -0.222716
    25  C   -0.023096
    26  N   -0.358026
    27  C    0.039470
    28  C   -0.066392
    29  C   -0.088304
    30  C    0.040409
    31  C    0.019165
    32  C   -0.039231
    33  C   -0.061910
    34  N   -0.505634
    35  C    0.153342
    36  C   -0.217179
    37  C   -0.020738
    38  C    0.126240
    39  C    0.098472
    40  C    0.088755
    41  O   -0.219335
    42  C   -0.124108
    43  C    0.296189
    44  O   -0.320700
    45  O   -0.367558
    46  C    0.162014
    47  C    0.253833
    48  C   -0.146448
    49  C   -0.179060
    50  C    0.021321
    51  C   -0.010570
    52  C   -0.045630
    53  C   -0.004192
    54  C   -0.193528
    55  C    0.001736
    56  C    0.068311
    57  C   -0.048962
    58  C    0.021467
    59  C   -0.238023
    60  C    0.010615
    61  C    0.010916
    62  C   -0.051847
    63  C    0.049592
    64  C   -0.235836
    65  C   -0.026204
    66  C   -0.001575
    67  H   -0.015977
    68  H    0.023305
    69  H    0.001266
    70  H    0.063351
    71  H    0.035318
    72  H    0.048613
    73  H    0.037850
    74  H    0.041429
    75  H    0.042636
    76  H    0.026771
    77  H    0.060128
    78  H    0.056745
    79  H    0.039166
    80  H    0.062311
    81  H    0.064183
    82  H    0.044622
    83  H    0.063611
    84  H    0.053544
    85  H    0.049760
    86  H    0.037607
    87  H    0.052955
    88  H    0.044834
    89  H    0.030466
    90  H    0.031779
    91  H    0.038111
    92  H    0.042516
    93  H    0.046607
    94  H    0.042375
    95  H    0.029844
    96  H    0.057265
    97  H    0.056291
    98  H    0.082695
    99  H    0.052008
   100  H    0.063479
   101  H    0.044138
   102  H    0.065707
   103  H    0.049847
   104  H    0.022208
   105  H    0.044768
   106  H    0.050612
   107  H    0.047636
   108  H    0.033091
   109  H    0.018346
   110  H    0.015484
   111  H    0.019509
   112  H    0.011615
   113  H    0.024682
   114  H    0.032831
   115  H    0.027379
   116  H    0.042806
   117  H    0.025949
   118  H    0.019805
   119  H    0.011960
   120  H    0.030624
   121  H    0.020644
   122  H    0.010779
   123  H    0.010915
   124  H    0.025211
   125  H    0.031627
   126  H    0.022610
   127  H    0.021262
   128  H    0.023569
   129  H    0.024030
   130  H    0.018093
   131  H    0.018087
   132  H    0.018846
   133  H    0.000250
   134  H    0.024161
   135  H    0.033425
   136  H    0.018123
   137  H    0.025235
   138  H    0.030571
   139  H    0.034631
   140  H    0.038481
 Sum of Mulliken charges =  -0.00000

 Dipole moment (field-independent basis, Debye):
    X=              3.8153    Y=              5.1659    Z=             -3.0877  Tot=              7.1258
 Quadrupole moment (field-independent basis, Debye-Ang):
   XX=           -375.6532   YY=           -427.1539   ZZ=           -404.7923
   XY=            -25.5215   XZ=             -0.4415   YZ=             12.1442

 Normal termination of Gaussian 16 at Fri Apr 29 09:43:26 2022.
