 Gaussian 16, Revision A.03,
 Gaussian 16:  ES64L-G16RevA.03 25-Dec-2016

 --------------------
 #p ZINDO=(nstates=5)
 --------------------

 ----------------------------
 step_201_chromophore_9 ZINDO
 ----------------------------
 Symbolic Z-matrix:
 Charge =  0 Multiplicity = 1

                         Standard orientation:
 ---------------------------------------------------------------------
 Center     Atomic      Atomic             Coordinates (Angstroms)
 Number     Number       Type             X           Y           Z
 ---------------------------------------------------------------------
      1         12           0       -5.061880    0.775603   -0.076686
      2          6           0       -3.771888   -2.359613    0.305057
      3          6           0       -1.758141    1.907310   -0.230211
      4          6           0       -6.180543    3.995892   -0.267709
      5          6           0       -8.289011   -0.344848    0.481545
      6          7           0       -2.974405   -0.117190    0.029547
      7          6           0       -2.723273   -1.499583    0.080979
      8          6           0       -1.232764   -1.817076   -0.078727
      9          6           0       -0.561571   -0.400914    0.092825
     10          6           0       -1.875439    0.562910   -0.050259
     11          6           0        0.204713   -0.139062    1.449675
     12          6           0       -0.950101   -2.364333   -1.545989
     13          6           0        0.284613   -3.407683   -1.647468
     14          6           0        1.326349   -3.621340   -0.417204
     15          8           0        1.511763   -4.699645    0.199986
     16          8           0        2.089891   -2.498285   -0.227034
     17          7           0       -4.115463    2.705791   -0.276366
     18          6           0       -2.762381    2.948009   -0.386347
     19          6           0       -2.524800    4.340647   -0.637532
     20          6           0       -3.794861    5.021930   -0.632172
     21          6           0       -4.779637    3.935244   -0.458739
     22          6           0       -1.201130    4.966955   -0.914139
     23          6           0       -4.183748    6.456594   -0.677598
     24          8           0       -5.321629    6.886620   -0.755963
     25          6           0       -3.092139    7.489748   -0.533344
     26          7           0       -6.952506    1.681066   -0.105404
     27          6           0       -7.198398    2.979194   -0.039874
     28          6           0       -8.702134    3.301056    0.050984
     29          6           0       -9.350611    1.882401    0.264830
     30          6           0       -8.094725    0.947078    0.141839
     31          6           0       -9.171696    4.306946    1.179774
     32          6           0      -10.476921    1.434587   -0.747032
     33          6           0      -10.016560    1.010710   -2.190085
     34          7           0       -5.903652   -0.969484    0.321239
     35          6           0       -7.218273   -1.317552    0.534170
     36          6           0       -7.319109   -2.749143    0.775276
     37          6           0       -5.947973   -3.257512    0.621088
     38          6           0       -5.179208   -2.131807    0.336215
     39          6           0       -8.622876   -3.524635    1.047204
     40          6           0       -5.081316   -4.422491    0.558200
     41          8           0       -5.371230   -5.616645    0.641325
     42          6           0       -3.596888   -3.890821    0.314741
     43          6           0       -2.766595   -4.589432    1.304614
     44          8           0       -2.609184   -4.179351    2.521477
     45          8           0       -2.099710   -5.666105    0.729626
     46          6           0       -1.409644   -6.551499    1.693247
     47          6           0        3.317770   -2.663054    0.594448
     48          6           0        4.442817   -2.437842   -0.413333
     49          6           0        5.265951   -3.319452   -1.070073
     50          6           0        5.246582   -4.855595   -1.103407
     51          6           0        6.249774   -2.870730   -2.235804
     52          6           0        7.524796   -2.120526   -1.830077
     53          6           0        8.663777   -2.069846   -2.886864
     54          6           0        8.895671   -0.472267   -3.315721
     55          6           0        9.089437   -0.440284   -4.871225
     56          6           0       10.149610    0.014146   -2.559912
     57          6           0        9.840845    1.302513   -1.962234
     58          6           0       11.017506    2.250241   -1.748932
     59          6           0       10.961779    2.931775   -0.339624
     60          6           0       11.666583    4.322799   -0.245844
     61          6           0       11.621783    1.962853    0.792147
     62          6           0       10.572286    1.884255    1.943380
     63          6           0       10.866181    2.505073    3.274097
     64          6           0       10.267635    1.711128    4.404612
     65          6           0        8.733510    2.044665    4.585132
     66          6           0       11.094183    1.836224    5.744196
     67          1           0       -0.752644    2.330520   -0.271209
     68          1           0       -6.598704    5.004439   -0.238676
     69          1           0       -9.327945   -0.581367    0.718527
     70          1           0       -0.925589   -2.508506    0.705541
     71          1           0        0.170953   -0.260372   -0.702065
     72          1           0       -0.131101   -0.860436    2.194974
     73          1           0       -0.018678    0.854978    1.836869
     74          1           0        1.260031   -0.300712    1.232672
     75          1           0       -0.986522   -1.566626   -2.286871
     76          1           0       -1.875113   -2.938167   -1.608957
     77          1           0        0.799521   -3.229417   -2.592004
     78          1           0       -0.230512   -4.350090   -1.836454
     79          1           0       -0.409804    4.217977   -0.895831
     80          1           0       -1.020500    5.828604   -0.271315
     81          1           0       -1.255694    5.336346   -1.938642
     82          1           0       -2.380439    7.265352   -1.328338
     83          1           0       -2.710100    7.317566    0.472860
     84          1           0       -3.365202    8.542572   -0.597600
     85          1           0       -8.877746    3.604325   -0.980952
     86          1           0       -9.707786    1.870206    1.294893
     87          1           0       -9.529828    5.254972    0.778253
     88          1           0       -8.445376    4.437119    1.982183
     89          1           0      -10.005817    3.905561    1.755092
     90          1           0      -11.122276    2.307114   -0.848581
     91          1           0      -11.093662    0.618199   -0.370830
     92          1           0      -10.342507    1.821468   -2.841717
     93          1           0      -10.337414    0.008833   -2.473214
     94          1           0       -8.930880    0.938646   -2.258443
     95          1           0       -9.432989   -2.802022    1.150139
     96          1           0       -8.472001   -4.153214    1.924795
     97          1           0       -8.725870   -4.206573    0.203069
     98          1           0       -3.319508   -4.292695   -0.659878
     99          1           0       -0.599074   -6.054472    2.225066
    100          1           0       -1.108728   -7.475849    1.199457
    101          1           0       -2.036541   -6.777854    2.555967
    102          1           0        3.339071   -3.619189    1.117133
    103          1           0        3.370671   -1.897495    1.368703
    104          1           0        4.578604   -1.401135   -0.720886
    105          1           0        5.508979   -5.238328   -2.089300
    106          1           0        4.262656   -5.214433   -0.800570
    107          1           0        5.993404   -5.225177   -0.400869
    108          1           0        5.646233   -2.196012   -2.842316
    109          1           0        6.623316   -3.666931   -2.879269
    110          1           0        7.921557   -2.627129   -0.950777
    111          1           0        7.184478   -1.131229   -1.523397
    112          1           0        8.460303   -2.730413   -3.729961
    113          1           0        9.456684   -2.604594   -2.363145
    114          1           0        8.030856    0.104681   -2.989566
    115          1           0        8.098452   -0.567849   -5.305542
    116          1           0        9.753828   -1.238477   -5.203287
    117          1           0        9.400350    0.537592   -5.238583
    118          1           0       11.020549   -0.047493   -3.213319
    119          1           0       10.346563   -0.638834   -1.708975
    120          1           0        9.326363    1.145965   -1.013322
    121          1           0        9.283407    1.981755   -2.606643
    122          1           0       11.041925    3.065758   -2.470988
    123          1           0       11.968888    1.719438   -1.757884
    124          1           0        9.930341    3.272981   -0.251679
    125          1           0       12.162801    4.339950    0.725065
    126          1           0       10.940281    5.122168   -0.387786
    127          1           0       12.363217    4.440322   -1.075664
    128          1           0       12.520337    2.339463    1.279593
    129          1           0       11.823556    0.957044    0.423640
    130          1           0       10.281092    0.834510    1.912992
    131          1           0        9.713760    2.474024    1.623713
    132          1           0       10.519252    3.536971    3.315154
    133          1           0       11.935645    2.549378    3.481015
    134          1           0       10.186890    0.657603    4.135809
    135          1           0        8.108166    1.270960    4.140653
    136          1           0        8.404408    2.969052    4.108442
    137          1           0        8.477819    2.217502    5.630362
    138          1           0       12.176710    1.908332    5.639100
    139          1           0       10.913320    0.864692    6.203869
    140          1           0       10.718078    2.723266    6.254712
 ---------------------------------------------------------------------

 SCF Done:  E(RZINDO/S) =  -473.656276939     A.U. after   18 cycles

 Excitation energies and oscillator strengths:

 Excited State   1:      Singlet-A      1.4109 eV  878.74 nm  f=0.5175  <S**2>=0.000
     175 ->178         0.13299
     176 ->177         0.67721
 This state for optimization and/or second-order correction.
 Total Energy, E(CIS/TDA) =  -473.604426238
 Copying the excited state density for this state as the 1-particle RhoCI density.

 Excited State   2:      Singlet-A      1.9604 eV  632.44 nm  f=0.1502  <S**2>=0.000
     175 ->177         0.59449
     176 ->178        -0.31622
     176 ->179         0.10496

 Excited State   3:      Singlet-A      2.8666 eV  432.51 nm  f=0.0022  <S**2>=0.000
     168 ->177         0.37883
     168 ->178        -0.23442
     168 ->179        -0.33670
     168 ->181        -0.22401
     168 ->182         0.12005
     168 ->186        -0.21120

 Excited State   4:      Singlet-A      3.0487 eV  406.68 nm  f=0.6804  <S**2>=0.000
     170 ->177        -0.27573
     172 ->177        -0.14411
     175 ->177         0.26951
     176 ->178         0.49478
     176 ->179        -0.18501

 Excited State   5:      Singlet-A      3.1154 eV  397.97 nm  f=0.0115  <S**2>=0.000
     171 ->177         0.22887
     171 ->179         0.35361
     171 ->181        -0.35826
     171 ->182         0.12959
     171 ->186         0.20062
     171 ->188         0.15853
     171 ->190        -0.13040
     171 ->205        -0.12745

 The electronic state is 1-A.
 Alpha  occ. eigenvalues --   -1.82260  -1.80216  -1.79034  -1.71080  -1.69401
 Alpha  occ. eigenvalues --   -1.68231  -1.65680  -1.60657  -1.60490  -1.56096
 Alpha  occ. eigenvalues --   -1.54458  -1.49046  -1.46508  -1.45730  -1.45052
 Alpha  occ. eigenvalues --   -1.43654  -1.40893  -1.39826  -1.37969  -1.37577
 Alpha  occ. eigenvalues --   -1.34715  -1.32206  -1.31540  -1.30604  -1.28534
 Alpha  occ. eigenvalues --   -1.27640  -1.24036  -1.22975  -1.20888  -1.18351
 Alpha  occ. eigenvalues --   -1.16543  -1.15773  -1.14903  -1.14486  -1.12581
 Alpha  occ. eigenvalues --   -1.12043  -1.11700  -1.10946  -1.04891  -1.02789
 Alpha  occ. eigenvalues --   -1.02069  -1.00950  -0.98689  -0.96930  -0.96326
 Alpha  occ. eigenvalues --   -0.96076  -0.94140  -0.93495  -0.92824  -0.92064
 Alpha  occ. eigenvalues --   -0.90652  -0.89862  -0.89504  -0.87937  -0.87889
 Alpha  occ. eigenvalues --   -0.85501  -0.83610  -0.82769  -0.81497  -0.79942
 Alpha  occ. eigenvalues --   -0.79597  -0.78419  -0.78225  -0.76243  -0.75920
 Alpha  occ. eigenvalues --   -0.75218  -0.74924  -0.74558  -0.73901  -0.73752
 Alpha  occ. eigenvalues --   -0.72732  -0.72085  -0.71489  -0.71020  -0.70312
 Alpha  occ. eigenvalues --   -0.70098  -0.69004  -0.68732  -0.68279  -0.67939
 Alpha  occ. eigenvalues --   -0.67729  -0.66626  -0.66093  -0.65931  -0.65445
 Alpha  occ. eigenvalues --   -0.65230  -0.65007  -0.64912  -0.63636  -0.63111
 Alpha  occ. eigenvalues --   -0.62971  -0.62523  -0.62436  -0.61565  -0.61432
 Alpha  occ. eigenvalues --   -0.61193  -0.61032  -0.60252  -0.60182  -0.59930
 Alpha  occ. eigenvalues --   -0.59784  -0.59694  -0.59314  -0.59146  -0.58926
 Alpha  occ. eigenvalues --   -0.58490  -0.58161  -0.57488  -0.56667  -0.56401
 Alpha  occ. eigenvalues --   -0.56077  -0.55613  -0.55515  -0.54781  -0.54661
 Alpha  occ. eigenvalues --   -0.54304  -0.54109  -0.53951  -0.53300  -0.53138
 Alpha  occ. eigenvalues --   -0.52461  -0.52266  -0.52092  -0.51547  -0.51501
 Alpha  occ. eigenvalues --   -0.51466  -0.51183  -0.50945  -0.50762  -0.50341
 Alpha  occ. eigenvalues --   -0.50269  -0.49805  -0.49537  -0.49465  -0.49307
 Alpha  occ. eigenvalues --   -0.48843  -0.48706  -0.48374  -0.48172  -0.47844
 Alpha  occ. eigenvalues --   -0.47561  -0.47509  -0.46717  -0.46704  -0.46535
 Alpha  occ. eigenvalues --   -0.46513  -0.46453  -0.46083  -0.45946  -0.45759
 Alpha  occ. eigenvalues --   -0.45603  -0.44890  -0.44632  -0.44274  -0.43871
 Alpha  occ. eigenvalues --   -0.43746  -0.42534  -0.42332  -0.42265  -0.41936
 Alpha  occ. eigenvalues --   -0.40981  -0.40123  -0.39825  -0.39467  -0.38928
 Alpha  occ. eigenvalues --   -0.37436  -0.37168  -0.36297  -0.34825  -0.34289
 Alpha  occ. eigenvalues --   -0.33829  -0.32928  -0.32526  -0.30855  -0.26842
 Alpha  occ. eigenvalues --   -0.22682
 Alpha virt. eigenvalues --   -0.08826  -0.01817  -0.00601   0.00728   0.01264
 Alpha virt. eigenvalues --    0.02712   0.03135   0.03400   0.03979   0.04672
 Alpha virt. eigenvalues --    0.05773   0.06348   0.06501   0.07048   0.07866

 Mulliken charges:
               1
     1  Mg   0.426297
     2  C   -0.024351
     3  C   -0.104078
     4  C   -0.070953
     5  C   -0.049930
     6  N   -0.282784
     7  C    0.085629
     8  C    0.005003
     9  C   -0.012808
    10  C    0.187834
    11  C   -0.053272
    12  C   -0.034034
    13  C   -0.002159
    14  C    0.465180
    15  O   -0.510342
    16  O   -0.259639
    17  N   -0.353199
    18  C    0.151983
    19  C    0.045652
    20  C   -0.035622
    21  C    0.145645
    22  C   -0.040368
    23  C    0.337759
    24  O   -0.515891
    25  C   -0.030900
    26  N   -0.247346
    27  C    0.194898
    28  C    0.007076
    29  C   -0.014833
    30  C    0.074446
    31  C   -0.050629
    32  C   -0.030386
    33  C   -0.060276
    34  N   -0.316904
    35  C    0.055241
    36  C   -0.018715
    37  C   -0.068157
    38  C    0.099409
    39  C   -0.042138
    40  C    0.334613
    41  O   -0.535154
    42  C    0.051444
    43  C    0.492261
    44  O   -0.555144
    45  O   -0.255955
    46  C    0.072365
    47  C    0.112743
    48  C   -0.082082
    49  C   -0.013184
    50  C   -0.042843
    51  C   -0.031694
    52  C   -0.036974
    53  C   -0.053890
    54  C   -0.018194
    55  C   -0.056608
    56  C   -0.022681
    57  C   -0.027881
    58  C   -0.043098
    59  C   -0.030560
    60  C   -0.067706
    61  C   -0.040971
    62  C   -0.043559
    63  C   -0.017233
    64  C   -0.015249
    65  C   -0.063198
    66  C   -0.062816
    67  H    0.016199
    68  H    0.039542
    69  H    0.037527
    70  H    0.051217
    71  H    0.028111
    72  H    0.030447
    73  H    0.025016
    74  H    0.024755
    75  H    0.038934
    76  H    0.025238
    77  H    0.040547
    78  H    0.036220
    79  H    0.029807
    80  H    0.038930
    81  H    0.032513
    82  H    0.033048
    83  H    0.037684
    84  H    0.041008
    85  H    0.044497
    86  H    0.030701
    87  H    0.027428
    88  H    0.028383
    89  H    0.017943
    90  H    0.010627
    91  H    0.023926
    92  H    0.021196
    93  H    0.027677
    94  H    0.021132
    95  H    0.025857
    96  H    0.035989
    97  H    0.033941
    98  H    0.051865
    99  H    0.047309
   100  H    0.039685
   101  H    0.042270
   102  H    0.062023
   103  H    0.037552
   104  H    0.026657
   105  H    0.028121
   106  H    0.028310
   107  H    0.029550
   108  H    0.015421
   109  H    0.025232
   110  H    0.013104
   111  H    0.017567
   112  H    0.020306
   113  H    0.023940
   114  H    0.035316
   115  H    0.010886
   116  H    0.028472
   117  H    0.016589
   118  H    0.024304
   119  H    0.014861
   120  H    0.023745
   121  H    0.016212
   122  H    0.017355
   123  H    0.015065
   124  H    0.028415
   125  H    0.025371
   126  H    0.015508
   127  H    0.016429
   128  H    0.028234
   129  H    0.021824
   130  H    0.020270
   131  H    0.012603
   132  H    0.020644
   133  H    0.009374
   134  H    0.018314
   135  H    0.018425
   136  H    0.013124
   137  H    0.016978
   138  H    0.020508
   139  H    0.019844
   140  H    0.027286
 Sum of Mulliken charges =  -0.00000

 Dipole moment (field-independent basis, Debye):
    X=              5.6984    Y=              9.7536    Z=             -5.0318  Tot=             12.3662
 N-N= 4.350508598348D+03 E-N= 0.000000000000D+00  KE=-9.374936218802D+03
 Leave Link  601 at Fri Apr 29 09:57:47 2022, MaxMem=  6710886400 cpu:               0.9 elap:               0.1
 (Enter /sw/apps/gaussian-16.0/g16/l9999.exe)
 1\1\GINC-BP1-COMPUTE070\SP\RZINDO CIS\STO-3G\C55H74Mg1N4O6\OF15641\29-
 Apr-2022\0\\#p ZINDO=(nstates=5)\\step_201_chromophore_9 ZINDO\\0,1\Mg
 ,0,35.81,1.355,30.04\C,0,33.748,2.071,32.662\C,0,38.448,1.481,32.33\C,
 0,38.032,0.841,27.499\C,0,33.221,1.638,27.76\N,0,36.087,1.739,32.263\C
 ,0,35.018,1.905,33.161\C,0,35.492,1.925,34.618\C,0,37.054,2.076,34.467
 \C,0,37.227,1.733,32.877\C,0,37.668,3.487,34.826\C,0,35.158,0.534,35.3
 15\C,0,34.876,0.631,36.907\C,0,35.217,1.976,37.755\O,0,34.379,2.677,38

 Normal termination of Gaussian 16 at Fri Apr 29 09:57:48 2022.
