 Gaussian 16, Revision A.03,
 Gaussian 16:  ES64L-G16RevA.03 25-Dec-2016

 ------------------------------
 #p blyp/Def2SVP td=(nstates=5)
 ------------------------------

 ---------------------------------------------------
 step_1301_chromophore_14 TDDFT with blyp functional
 ---------------------------------------------------
 Symbolic Z-matrix:
 Charge =  0 Multiplicity = 1

                         Standard orientation:
 ---------------------------------------------------------------------
 Center     Atomic      Atomic             Coordinates (Angstroms)
 Number     Number       Type             X           Y           Z
 ---------------------------------------------------------------------
      1         12           0        5.008099    1.036449   -0.156540
      2          6           0        4.812643   -2.373784    0.363662
      3          6           0        3.848251    0.631563   -3.282046
      4          6           0        4.688205    4.316218   -0.280966
      5          6           0        5.778491    1.319901    3.312262
      6          7           0        4.474211   -0.698082   -1.277277
      7          6           0        4.623918   -1.978346   -0.970746
      8          6           0        4.259233   -2.874760   -2.198795
      9          6           0        4.210809   -1.870103   -3.376696
     10          6           0        4.282085   -0.547093   -2.599939
     11          6           0        5.423675   -2.026592   -4.332820
     12          6           0        3.063735   -3.723283   -1.961380
     13          6           0        1.875147   -3.146394   -1.156952
     14          6           0        0.475804   -3.407386   -1.626757
     15          8           0        0.148844   -3.903662   -2.719025
     16          8           0       -0.408435   -2.999758   -0.643442
     17          7           0        4.329685    2.324946   -1.624258
     18          6           0        3.970119    1.946329   -2.862989
     19          6           0        3.675598    3.131107   -3.643669
     20          6           0        3.883267    4.276223   -2.826218
     21          6           0        4.304894    3.668509   -1.506006
     22          6           0        3.189661    3.156974   -5.053258
     23          6           0        3.642521    5.669580   -3.180708
     24          8           0        3.412948    6.044659   -4.336125
     25          6           0        3.851040    6.760161   -2.192403
     26          7           0        5.273358    2.641701    1.312096
     27          6           0        5.078347    3.909384    1.008248
     28          6           0        5.209330    4.801973    2.297460
     29          6           0        5.761135    3.773297    3.305541
     30          6           0        5.640629    2.495525    2.594669
     31          6           0        6.093858    6.086996    2.053788
     32          6           0        4.867206    3.907316    4.557856
     33          6           0        5.502501    3.680972    5.857651
     34          7           0        5.304388   -0.208200    1.568204
     35          6           0        5.601130    0.022311    2.871214
     36          6           0        5.709758   -1.213211    3.623844
     37          6           0        5.469223   -2.202345    2.639951
     38          6           0        5.228869   -1.575074    1.430269
     39          6           0        6.128701   -1.346371    5.071447
     40          6           0        5.324164   -3.699051    2.470004
     41          8           0        5.515610   -4.616248    3.240846
     42          6           0        4.814983   -3.820074    0.939229
     43          6           0        5.634015   -4.833178    0.249741
     44          8           0        5.253364   -5.878982   -0.227935
     45          8           0        6.939381   -4.359985    0.218998
     46          6           0        7.616622   -4.987099   -0.868809
     47          6           0       -1.834369   -3.335361   -0.692562
     48          6           0       -2.653736   -2.127437   -0.635269
     49          6           0       -3.537682   -1.530259   -1.508138
     50          6           0       -3.614518   -1.867626   -3.043583
     51          6           0       -4.316392   -0.273885   -1.054450
     52          6           0       -5.828171   -0.319783   -0.825661
     53          6           0       -6.071048   -0.759865    0.603694
     54          6           0       -7.459064   -0.255139    1.207238
     55          6           0       -7.302973    0.345992    2.632366
     56          6           0       -8.529872   -1.359562    1.200348
     57          6           0       -9.753249   -0.887155    0.453621
     58          6           0      -10.932592   -1.689022    1.023850
     59          6           0      -12.129776   -0.788515    1.483866
     60          6           0      -12.725835   -1.323366    2.845344
     61          6           0      -13.188964   -0.645477    0.384436
     62          6           0      -13.823137    0.790666    0.175378
     63          6           0      -15.343345    0.826360    0.247471
     64          6           0      -15.826336    2.212112   -0.172811
     65          6           0      -17.188224    2.425824    0.497621
     66          6           0      -15.870796    2.448377   -1.670353
     67          1           0        3.476540    0.396346   -4.281909
     68          1           0        4.596465    5.398682   -0.175774
     69          1           0        6.175166    1.324993    4.329554
     70          1           0        5.074551   -3.572052   -2.390701
     71          1           0        3.291734   -1.909955   -3.960699
     72          1           0        6.224746   -2.746083   -4.163831
     73          1           0        6.094277   -1.190956   -4.135800
     74          1           0        5.036042   -2.023587   -5.351418
     75          1           0        3.385448   -4.606594   -1.409307
     76          1           0        2.792949   -4.009925   -2.977105
     77          1           0        2.037765   -2.069671   -1.115722
     78          1           0        1.836254   -3.513378   -0.130864
     79          1           0        3.375512    2.168643   -5.472299
     80          1           0        3.703414    3.833394   -5.736641
     81          1           0        2.118250    3.351782   -5.006321
     82          1           0        4.911927    6.837302   -1.955825
     83          1           0        3.283520    6.489561   -1.301498
     84          1           0        3.580525    7.694544   -2.683718
     85          1           0        4.171723    5.118975    2.402459
     86          1           0        6.792664    4.054196    3.518414
     87          1           0        6.865184    6.169652    2.818101
     88          1           0        5.432457    6.949048    2.145810
     89          1           0        6.596278    6.100325    1.086074
     90          1           0        4.030151    3.218585    4.442870
     91          1           0        4.490234    4.929048    4.606622
     92          1           0        6.033399    4.600712    6.105694
     93          1           0        6.169022    2.819352    5.862683
     94          1           0        4.795834    3.555312    6.679027
     95          1           0        6.603581   -0.479715    5.529802
     96          1           0        6.839701   -2.173081    5.072494
     97          1           0        5.208507   -1.489883    5.637740
     98          1           0        3.792686   -4.183739    1.040544
     99          1           0        8.563006   -4.534660   -1.167422
    100          1           0        7.022017   -4.868521   -1.774751
    101          1           0        7.831902   -6.018868   -0.591695
    102          1           0       -2.053675   -4.049912    0.100840
    103          1           0       -2.110236   -3.954911   -1.545980
    104          1           0       -2.498551   -1.676590    0.345270
    105          1           0       -4.665643   -2.008246   -3.295941
    106          1           0       -3.030742   -2.716821   -3.398015
    107          1           0       -3.485345   -0.976612   -3.658206
    108          1           0       -4.201314    0.605958   -1.688114
    109          1           0       -3.803578    0.127754   -0.180045
    110          1           0       -6.362478   -1.028074   -1.459557
    111          1           0       -6.409909    0.562889   -1.089405
    112          1           0       -5.213770   -0.475670    1.213929
    113          1           0       -6.096739   -1.844412    0.711538
    114          1           0       -7.672957    0.653043    0.643112
    115          1           0       -8.229469    0.541931    3.171867
    116          1           0       -6.820158    1.321534    2.676762
    117          1           0       -6.611394   -0.355070    3.100781
    118          1           0       -8.731745   -1.577779    2.249136
    119          1           0       -8.076258   -2.241780    0.747730
    120          1           0       -9.739597   -1.092227   -0.617048
    121          1           0      -10.010816    0.171137    0.478368
    122          1           0      -10.652500   -2.471403    1.728810
    123          1           0      -11.114173   -2.270873    0.119698
    124          1           0      -11.665557    0.182530    1.657212
    125          1           0      -12.432385   -2.336069    3.122577
    126          1           0      -13.813295   -1.275278    2.916871
    127          1           0      -12.384363   -0.639205    3.621642
    128          1           0      -14.033677   -1.290299    0.626334
    129          1           0      -12.733249   -0.992053   -0.543377
    130          1           0      -13.431227    1.232060   -0.740200
    131          1           0      -13.409269    1.411764    0.970115
    132          1           0      -15.810643    0.614261    1.208643
    133          1           0      -15.845340    0.113639   -0.406852
    134          1           0      -15.157645    2.921013    0.315669
    135          1           0      -17.926033    1.792791    0.004711
    136          1           0      -17.570670    3.445191    0.454037
    137          1           0      -17.130751    2.255178    1.572525
    138          1           0      -15.376688    3.389675   -1.910797
    139          1           0      -16.896485    2.593776   -2.009660
    140          1           0      -15.344420    1.666787   -2.217484
 ---------------------------------------------------------------------

 SCF Done:  E(RB-LYP) =  -3007.36875081     A.U. after   20 cycles

 Excitation energies and oscillator strengths:

 Excited State   1:      Singlet-A      1.7418 eV  711.80 nm  f=0.0033  <S**2>=0.000
     244 -> 247        0.70256
 This state for optimization and/or second-order correction.
 Total Energy, E(TD-HF/TD-DFT) =  -3007.30473953
 Copying the excited state density for this state as the 1-particle RhoCI density.

 Excited State   2:      Singlet-A      1.8820 eV  658.80 nm  f=0.2880  <S**2>=0.000
     245 -> 248        0.21638
     246 -> 247        0.67720
     246 <- 247       -0.13525

 Excited State   3:      Singlet-A      2.0538 eV  603.69 nm  f=0.0753  <S**2>=0.000
     245 -> 247        0.64555
     246 -> 248       -0.26100

 Excited State   4:      Singlet-A      2.1824 eV  568.12 nm  f=0.0005  <S**2>=0.000
     243 -> 247        0.70466

 Excited State   5:      Singlet-A      2.4551 eV  505.01 nm  f=0.0006  <S**2>=0.000
     241 -> 247        0.69737
     242 -> 247        0.11508

 The electronic state is 1-A.
 Alpha  occ. eigenvalues --  -46.28090 -18.82171 -18.81550 -18.77712 -18.77233
 Alpha  occ. eigenvalues --  -18.76649 -18.74743 -14.04267 -14.03138 -14.01808
 Alpha  occ. eigenvalues --  -14.00667 -10.04222 -10.04214 -10.01019  -9.98971
 Alpha  occ. eigenvalues --   -9.97575  -9.97520  -9.97278  -9.96925  -9.96909
 Alpha  occ. eigenvalues --   -9.96617  -9.96074  -9.95714  -9.94951  -9.94791
 Alpha  occ. eigenvalues --   -9.94601  -9.94505  -9.94349  -9.94320  -9.94243
 Alpha  occ. eigenvalues --   -9.93955  -9.93919  -9.93854  -9.93695  -9.93422
 Alpha  occ. eigenvalues --   -9.93332  -9.93199  -9.93041  -9.92963  -9.92809
 Alpha  occ. eigenvalues --   -9.92766  -9.92599  -9.92420  -9.92327  -9.92251
 Alpha  occ. eigenvalues --   -9.92249  -9.92119  -9.91912  -9.91851  -9.91762
 Alpha  occ. eigenvalues --   -9.91756  -9.91717  -9.91377  -9.91357  -9.91239
 Alpha  occ. eigenvalues --   -9.91203  -9.90944  -9.90783  -9.90717  -9.90697
 Alpha  occ. eigenvalues --   -9.90665  -9.90655  -9.90653  -9.90650  -9.90460
 Alpha  occ. eigenvalues --   -9.90111  -2.92657  -1.73089  -1.72521  -1.72380
 Alpha  occ. eigenvalues --   -0.98791  -0.96461  -0.92680  -0.91137  -0.90529
 Alpha  occ. eigenvalues --   -0.88875  -0.88357  -0.87964  -0.86704  -0.85918
 Alpha  occ. eigenvalues --   -0.75695  -0.73982  -0.73685  -0.73389  -0.72815
 Alpha  occ. eigenvalues --   -0.72250  -0.72138  -0.71559  -0.70787  -0.70386
 Alpha  occ. eigenvalues --   -0.70034  -0.69632  -0.68671  -0.68303  -0.67669
 Alpha  occ. eigenvalues --   -0.66795  -0.66329  -0.65495  -0.65216  -0.64803
 Alpha  occ. eigenvalues --   -0.64090  -0.63115  -0.62726  -0.61883  -0.61089
 Alpha  occ. eigenvalues --   -0.60510  -0.60370  -0.60225  -0.59384  -0.58774
 Alpha  occ. eigenvalues --   -0.58441  -0.57967  -0.57563  -0.56363  -0.54690
 Alpha  occ. eigenvalues --   -0.54218  -0.53768  -0.53527  -0.52619  -0.52517
 Alpha  occ. eigenvalues --   -0.51899  -0.51352  -0.51229  -0.51005  -0.50069
 Alpha  occ. eigenvalues --   -0.49657  -0.49525  -0.49086  -0.48480  -0.47302
 Alpha  occ. eigenvalues --   -0.46658  -0.46245  -0.46134  -0.45675  -0.44873
 Alpha  occ. eigenvalues --   -0.44553  -0.43845  -0.43563  -0.43423  -0.42736
 Alpha  occ. eigenvalues --   -0.42524  -0.42274  -0.41966  -0.41576  -0.41477
 Alpha  occ. eigenvalues --   -0.41371  -0.40916  -0.40481  -0.40265  -0.40115
 Alpha  occ. eigenvalues --   -0.39793  -0.39702  -0.39570  -0.39500  -0.39316
 Alpha  occ. eigenvalues --   -0.39177  -0.39071  -0.38812  -0.38737  -0.38664
 Alpha  occ. eigenvalues --   -0.38431  -0.38279  -0.37941  -0.37822  -0.37471
 Alpha  occ. eigenvalues --   -0.37176  -0.36925  -0.36872  -0.36720  -0.36549
 Alpha  occ. eigenvalues --   -0.36156  -0.36057  -0.36011  -0.35781  -0.35491
 Alpha  occ. eigenvalues --   -0.35332  -0.35121  -0.35046  -0.35028  -0.34693
 Alpha  occ. eigenvalues --   -0.34600  -0.34372  -0.34202  -0.34131  -0.33934
 Alpha  occ. eigenvalues --   -0.33806  -0.33716  -0.33679  -0.33583  -0.33449
 Alpha  occ. eigenvalues --   -0.33212  -0.33176  -0.32984  -0.32870  -0.32729
 Alpha  occ. eigenvalues --   -0.32553  -0.32513  -0.32062  -0.31961  -0.31508
 Alpha  occ. eigenvalues --   -0.31449  -0.31275  -0.31203  -0.30836  -0.30303
 Alpha  occ. eigenvalues --   -0.30251  -0.30163  -0.30127  -0.30068  -0.29949
 Alpha  occ. eigenvalues --   -0.29860  -0.29762  -0.29619  -0.29599  -0.29180
 Alpha  occ. eigenvalues --   -0.29072  -0.28419  -0.28233  -0.27819  -0.27654
 Alpha  occ. eigenvalues --   -0.27582  -0.27180  -0.26946  -0.26656  -0.26647
 Alpha  occ. eigenvalues --   -0.26399  -0.26355  -0.25857  -0.25671  -0.25334
 Alpha  occ. eigenvalues --   -0.25238  -0.24851  -0.24698  -0.24655  -0.23819
 Alpha  occ. eigenvalues --   -0.23051  -0.22343  -0.22258  -0.21752  -0.21151
 Alpha  occ. eigenvalues --   -0.20728  -0.20696  -0.19633  -0.18028  -0.17678
 Alpha  occ. eigenvalues --   -0.16322
 Alpha virt. eigenvalues --   -0.11709  -0.07331  -0.06586  -0.04791  -0.03616
 Alpha virt. eigenvalues --   -0.03479  -0.03021  -0.02573  -0.01840  -0.00244
 Alpha virt. eigenvalues --    0.01026   0.01326   0.01909   0.02484   0.02790

 Mulliken charges:
               1
     1  Mg   0.685903
     2  C    0.009342
     3  C   -0.101696
     4  C   -0.022753
     5  C   -0.092810
     6  N   -0.207001
     7  C   -0.097284
     8  C    0.053644
     9  C   -0.024484
    10  C    0.026479
    11  C    0.130663
    12  C    0.131301
    13  C    0.090519
    14  C    0.090233
    15  O   -0.200677
    16  O   -0.286993
    17  N   -0.270256
    18  C    0.184555
    19  C   -0.166250
    20  C    0.094489
    21  C    0.125576
    22  C    0.202506
    23  C   -0.137762
    24  O   -0.182117
    25  C    0.149728
    26  N   -0.157090
    27  C   -0.110326
    28  C   -0.011007
    29  C    0.093016
    30  C    0.051457
    31  C    0.122946
    32  C    0.086741
    33  C    0.087532
    34  N   -0.242087
    35  C    0.075445
    36  C   -0.173908
    37  C    0.028527
    38  C    0.100494
    39  C    0.174481
    40  C   -0.011417
    41  O   -0.098003
    42  C    0.030701
    43  C    0.108125
    44  O   -0.151200
    45  O   -0.277783
    46  C    0.232268
    47  C    0.342430
    48  C   -0.115864
    49  C   -0.071527
    50  C    0.139342
    51  C    0.123588
    52  C    0.090607
    53  C    0.081025
    54  C   -0.087866
    55  C    0.080421
    56  C    0.158888
    57  C    0.057219
    58  C    0.074997
    59  C   -0.059332
    60  C    0.098269
    61  C    0.139101
    62  C    0.073680
    63  C    0.093403
    64  C   -0.088268
    65  C    0.090808
    66  C    0.138719
    67  H   -0.051947
    68  H   -0.085311
    69  H   -0.087343
    70  H   -0.038544
    71  H   -0.009607
    72  H   -0.015048
    73  H   -0.025620
    74  H    0.009794
    75  H   -0.004377
    76  H   -0.011068
    77  H    0.024309
    78  H    0.006601
    79  H   -0.035631
    80  H    0.012576
    81  H    0.011940
    82  H    0.012116
    83  H    0.008434
    84  H   -0.011096
    85  H   -0.004951
    86  H   -0.031061
    87  H   -0.012301
    88  H   -0.006261
    89  H    0.003613
    90  H   -0.018953
    91  H   -0.023736
    92  H   -0.019143
    93  H   -0.011626
    94  H   -0.015117
    95  H   -0.015426
    96  H    0.024973
    97  H    0.010402
    98  H   -0.003224
    99  H   -0.002966
   100  H   -0.004797
   101  H    0.015847
   102  H   -0.008796
   103  H   -0.025911
   104  H   -0.034556
   105  H   -0.025267
   106  H    0.018167
   107  H   -0.010571
   108  H   -0.036607
   109  H   -0.033428
   110  H   -0.037574
   111  H   -0.034390
   112  H   -0.046945
   113  H   -0.037947
   114  H   -0.036750
   115  H   -0.014501
   116  H   -0.027495
   117  H   -0.014982
   118  H   -0.028380
   119  H   -0.033046
   120  H   -0.037877
   121  H   -0.030676
   122  H   -0.031013
   123  H   -0.047920
   124  H   -0.031639
   125  H   -0.008946
   126  H   -0.021376
   127  H   -0.021924
   128  H   -0.035455
   129  H   -0.040069
   130  H   -0.033857
   131  H   -0.036186
   132  H   -0.042406
   133  H   -0.041409
   134  H   -0.044103
   135  H   -0.016851
   136  H   -0.028858
   137  H   -0.019656
   138  H   -0.023248
   139  H   -0.022094
   140  H   -0.014312
 Sum of Mulliken charges =  -0.00000

 Dipole moment (field-independent basis, Debye):
    X=              1.0400    Y=              4.2460    Z=              1.8303  Tot=              4.7392
 Quadrupole moment (field-independent basis, Debye-Ang):
   XX=           -373.9625   YY=           -443.1534   ZZ=           -411.3456
   XY=             18.7608   XZ=              1.7232   YZ=             38.3351

 Normal termination of Gaussian 16 at Wed May  4 03:25:42 2022.
