 Gaussian 16, Revision A.03,
 Gaussian 16:  ES64L-G16RevA.03 25-Dec-2016

 -----------------------------------
 #p cam-b3lyp/Def2SVP td=(nstates=5)
 -----------------------------------

 --------------------------------------------------------
 step_1301_chromophore_14 TDDFT with cam-b3lyp functional
 --------------------------------------------------------
 Symbolic Z-matrix:
 Charge =  0 Multiplicity = 1

                         Standard orientation:
 ---------------------------------------------------------------------
 Center     Atomic      Atomic             Coordinates (Angstroms)
 Number     Number       Type             X           Y           Z
 ---------------------------------------------------------------------
      1         12           0        5.008099    1.036449   -0.156540
      2          6           0        4.812643   -2.373784    0.363662
      3          6           0        3.848251    0.631563   -3.282046
      4          6           0        4.688205    4.316218   -0.280966
      5          6           0        5.778491    1.319901    3.312262
      6          7           0        4.474211   -0.698082   -1.277277
      7          6           0        4.623918   -1.978346   -0.970746
      8          6           0        4.259233   -2.874760   -2.198795
      9          6           0        4.210809   -1.870103   -3.376696
     10          6           0        4.282085   -0.547093   -2.599939
     11          6           0        5.423675   -2.026592   -4.332820
     12          6           0        3.063735   -3.723283   -1.961380
     13          6           0        1.875147   -3.146394   -1.156952
     14          6           0        0.475804   -3.407386   -1.626757
     15          8           0        0.148844   -3.903662   -2.719025
     16          8           0       -0.408435   -2.999758   -0.643442
     17          7           0        4.329685    2.324946   -1.624258
     18          6           0        3.970119    1.946329   -2.862989
     19          6           0        3.675598    3.131107   -3.643669
     20          6           0        3.883267    4.276223   -2.826218
     21          6           0        4.304894    3.668509   -1.506006
     22          6           0        3.189661    3.156974   -5.053258
     23          6           0        3.642521    5.669580   -3.180708
     24          8           0        3.412948    6.044659   -4.336125
     25          6           0        3.851040    6.760161   -2.192403
     26          7           0        5.273358    2.641701    1.312096
     27          6           0        5.078347    3.909384    1.008248
     28          6           0        5.209330    4.801973    2.297460
     29          6           0        5.761135    3.773297    3.305541
     30          6           0        5.640629    2.495525    2.594669
     31          6           0        6.093858    6.086996    2.053788
     32          6           0        4.867206    3.907316    4.557856
     33          6           0        5.502501    3.680972    5.857651
     34          7           0        5.304388   -0.208200    1.568204
     35          6           0        5.601130    0.022311    2.871214
     36          6           0        5.709758   -1.213211    3.623844
     37          6           0        5.469223   -2.202345    2.639951
     38          6           0        5.228869   -1.575074    1.430269
     39          6           0        6.128701   -1.346371    5.071447
     40          6           0        5.324164   -3.699051    2.470004
     41          8           0        5.515610   -4.616248    3.240846
     42          6           0        4.814983   -3.820074    0.939229
     43          6           0        5.634015   -4.833178    0.249741
     44          8           0        5.253364   -5.878982   -0.227935
     45          8           0        6.939381   -4.359985    0.218998
     46          6           0        7.616622   -4.987099   -0.868809
     47          6           0       -1.834369   -3.335361   -0.692562
     48          6           0       -2.653736   -2.127437   -0.635269
     49          6           0       -3.537682   -1.530259   -1.508138
     50          6           0       -3.614518   -1.867626   -3.043583
     51          6           0       -4.316392   -0.273885   -1.054450
     52          6           0       -5.828171   -0.319783   -0.825661
     53          6           0       -6.071048   -0.759865    0.603694
     54          6           0       -7.459064   -0.255139    1.207238
     55          6           0       -7.302973    0.345992    2.632366
     56          6           0       -8.529872   -1.359562    1.200348
     57          6           0       -9.753249   -0.887155    0.453621
     58          6           0      -10.932592   -1.689022    1.023850
     59          6           0      -12.129776   -0.788515    1.483866
     60          6           0      -12.725835   -1.323366    2.845344
     61          6           0      -13.188964   -0.645477    0.384436
     62          6           0      -13.823137    0.790666    0.175378
     63          6           0      -15.343345    0.826360    0.247471
     64          6           0      -15.826336    2.212112   -0.172811
     65          6           0      -17.188224    2.425824    0.497621
     66          6           0      -15.870796    2.448377   -1.670353
     67          1           0        3.476540    0.396346   -4.281909
     68          1           0        4.596465    5.398682   -0.175774
     69          1           0        6.175166    1.324993    4.329554
     70          1           0        5.074551   -3.572052   -2.390701
     71          1           0        3.291734   -1.909955   -3.960699
     72          1           0        6.224746   -2.746083   -4.163831
     73          1           0        6.094277   -1.190956   -4.135800
     74          1           0        5.036042   -2.023587   -5.351418
     75          1           0        3.385448   -4.606594   -1.409307
     76          1           0        2.792949   -4.009925   -2.977105
     77          1           0        2.037765   -2.069671   -1.115722
     78          1           0        1.836254   -3.513378   -0.130864
     79          1           0        3.375512    2.168643   -5.472299
     80          1           0        3.703414    3.833394   -5.736641
     81          1           0        2.118250    3.351782   -5.006321
     82          1           0        4.911927    6.837302   -1.955825
     83          1           0        3.283520    6.489561   -1.301498
     84          1           0        3.580525    7.694544   -2.683718
     85          1           0        4.171723    5.118975    2.402459
     86          1           0        6.792664    4.054196    3.518414
     87          1           0        6.865184    6.169652    2.818101
     88          1           0        5.432457    6.949048    2.145810
     89          1           0        6.596278    6.100325    1.086074
     90          1           0        4.030151    3.218585    4.442870
     91          1           0        4.490234    4.929048    4.606622
     92          1           0        6.033399    4.600712    6.105694
     93          1           0        6.169022    2.819352    5.862683
     94          1           0        4.795834    3.555312    6.679027
     95          1           0        6.603581   -0.479715    5.529802
     96          1           0        6.839701   -2.173081    5.072494
     97          1           0        5.208507   -1.489883    5.637740
     98          1           0        3.792686   -4.183739    1.040544
     99          1           0        8.563006   -4.534660   -1.167422
    100          1           0        7.022017   -4.868521   -1.774751
    101          1           0        7.831902   -6.018868   -0.591695
    102          1           0       -2.053675   -4.049912    0.100840
    103          1           0       -2.110236   -3.954911   -1.545980
    104          1           0       -2.498551   -1.676590    0.345270
    105          1           0       -4.665643   -2.008246   -3.295941
    106          1           0       -3.030742   -2.716821   -3.398015
    107          1           0       -3.485345   -0.976612   -3.658206
    108          1           0       -4.201314    0.605958   -1.688114
    109          1           0       -3.803578    0.127754   -0.180045
    110          1           0       -6.362478   -1.028074   -1.459557
    111          1           0       -6.409909    0.562889   -1.089405
    112          1           0       -5.213770   -0.475670    1.213929
    113          1           0       -6.096739   -1.844412    0.711538
    114          1           0       -7.672957    0.653043    0.643112
    115          1           0       -8.229469    0.541931    3.171867
    116          1           0       -6.820158    1.321534    2.676762
    117          1           0       -6.611394   -0.355070    3.100781
    118          1           0       -8.731745   -1.577779    2.249136
    119          1           0       -8.076258   -2.241780    0.747730
    120          1           0       -9.739597   -1.092227   -0.617048
    121          1           0      -10.010816    0.171137    0.478368
    122          1           0      -10.652500   -2.471403    1.728810
    123          1           0      -11.114173   -2.270873    0.119698
    124          1           0      -11.665557    0.182530    1.657212
    125          1           0      -12.432385   -2.336069    3.122577
    126          1           0      -13.813295   -1.275278    2.916871
    127          1           0      -12.384363   -0.639205    3.621642
    128          1           0      -14.033677   -1.290299    0.626334
    129          1           0      -12.733249   -0.992053   -0.543377
    130          1           0      -13.431227    1.232060   -0.740200
    131          1           0      -13.409269    1.411764    0.970115
    132          1           0      -15.810643    0.614261    1.208643
    133          1           0      -15.845340    0.113639   -0.406852
    134          1           0      -15.157645    2.921013    0.315669
    135          1           0      -17.926033    1.792791    0.004711
    136          1           0      -17.570670    3.445191    0.454037
    137          1           0      -17.130751    2.255178    1.572525
    138          1           0      -15.376688    3.389675   -1.910797
    139          1           0      -16.896485    2.593776   -2.009660
    140          1           0      -15.344420    1.666787   -2.217484
 ---------------------------------------------------------------------

 SCF Done:  E(RCAM-B3LYP) =  -3007.17422090     A.U. after   17 cycles

 Excitation energies and oscillator strengths:

 Excited State   1:      Singlet-A      1.8047 eV  687.01 nm  f=0.3696  <S**2>=0.000
     245 -> 248       -0.20040
     246 -> 247        0.68004
     245 <- 248       -0.10882
 This state for optimization and/or second-order correction.
 Total Energy, E(TD-HF/TD-DFT) =  -3007.10789972
 Copying the excited state density for this state as the 1-particle RhoCI density.

 Excited State   2:      Singlet-A      2.2882 eV  541.85 nm  f=0.0855  <S**2>=0.000
     245 -> 247        0.62469
     246 -> 248        0.32158

 Excited State   3:      Singlet-A      3.4355 eV  360.89 nm  f=0.0017  <S**2>=0.000
     241 -> 247        0.24663
     241 -> 249       -0.17890
     241 -> 251        0.11972
     242 -> 247        0.47310
     242 -> 249       -0.30589
     242 -> 251        0.19718

 Excited State   4:      Singlet-A      3.4722 eV  357.07 nm  f=0.1255  <S**2>=0.000
     244 -> 247        0.59113
     245 -> 247        0.13931
     246 -> 248       -0.33901

 Excited State   5:      Singlet-A      3.5527 eV  348.99 nm  f=0.4394  <S**2>=0.000
     241 -> 247        0.29695
     242 -> 247       -0.12955
     244 -> 247        0.30982
     245 -> 247       -0.24453
     246 -> 248        0.47900

 The electronic state is 1-A.
 Alpha  occ. eigenvalues --  -46.89703 -19.25148 -19.24418 -19.21018 -19.20422
 Alpha  occ. eigenvalues --  -19.19559 -19.18035 -14.43297 -14.41871 -14.40411
 Alpha  occ. eigenvalues --  -14.38990 -10.39770 -10.39552 -10.36420 -10.34197
 Alpha  occ. eigenvalues --  -10.32060 -10.31637 -10.31540 -10.31483 -10.31286
 Alpha  occ. eigenvalues --  -10.31205 -10.30262 -10.30192 -10.29003 -10.28957
 Alpha  occ. eigenvalues --  -10.28827 -10.28758 -10.28675 -10.28627 -10.28598
 Alpha  occ. eigenvalues --  -10.28395 -10.28157 -10.27968 -10.27672 -10.27481
 Alpha  occ. eigenvalues --  -10.27337 -10.27262 -10.27035 -10.26979 -10.26614
 Alpha  occ. eigenvalues --  -10.26582 -10.26213 -10.26146 -10.26107 -10.26056
 Alpha  occ. eigenvalues --  -10.26020 -10.26013 -10.25780 -10.25710 -10.25642
 Alpha  occ. eigenvalues --  -10.25483 -10.25388 -10.25354 -10.25076 -10.24879
 Alpha  occ. eigenvalues --  -10.24869 -10.24548 -10.24377 -10.24315 -10.24312
 Alpha  occ. eigenvalues --  -10.24311 -10.24272 -10.24243 -10.24223 -10.24054
 Alpha  occ. eigenvalues --  -10.23738  -3.18170  -1.93081  -1.92611  -1.92481
 Alpha  occ. eigenvalues --   -1.17454  -1.14836  -1.11088  -1.09225  -1.08997
 Alpha  occ. eigenvalues --   -1.06683  -1.06230  -1.05704  -1.04477  -1.03371
 Alpha  occ. eigenvalues --   -0.92822  -0.90704  -0.90525  -0.90203  -0.89588
 Alpha  occ. eigenvalues --   -0.89004  -0.88866  -0.88157  -0.87331  -0.87210
 Alpha  occ. eigenvalues --   -0.86479  -0.86034  -0.84974  -0.84466  -0.83898
 Alpha  occ. eigenvalues --   -0.82891  -0.82537  -0.81530  -0.81021  -0.80658
 Alpha  occ. eigenvalues --   -0.79894  -0.78748  -0.78248  -0.77633  -0.76558
 Alpha  occ. eigenvalues --   -0.75857  -0.75738  -0.75507  -0.74663  -0.73938
 Alpha  occ. eigenvalues --   -0.73531  -0.72949  -0.72513  -0.71241  -0.69236
 Alpha  occ. eigenvalues --   -0.68888  -0.68374  -0.68092  -0.66915  -0.66628
 Alpha  occ. eigenvalues --   -0.66077  -0.65521  -0.65282  -0.65139  -0.64132
 Alpha  occ. eigenvalues --   -0.63460  -0.63238  -0.63055  -0.62356  -0.60872
 Alpha  occ. eigenvalues --   -0.60296  -0.59815  -0.59523  -0.59229  -0.58361
 Alpha  occ. eigenvalues --   -0.58001  -0.57303  -0.56873  -0.56739  -0.55926
 Alpha  occ. eigenvalues --   -0.55730  -0.55497  -0.54898  -0.54705  -0.54340
 Alpha  occ. eigenvalues --   -0.54116  -0.53677  -0.53476  -0.53166  -0.52911
 Alpha  occ. eigenvalues --   -0.52778  -0.52426  -0.52397  -0.52201  -0.51897
 Alpha  occ. eigenvalues --   -0.51824  -0.51681  -0.51193  -0.51118  -0.51068
 Alpha  occ. eigenvalues --   -0.50757  -0.50631  -0.50259  -0.50146  -0.50110
 Alpha  occ. eigenvalues --   -0.49595  -0.49299  -0.49220  -0.49110  -0.48743
 Alpha  occ. eigenvalues --   -0.48554  -0.48327  -0.48060  -0.47919  -0.47823
 Alpha  occ. eigenvalues --   -0.47462  -0.47254  -0.47066  -0.46987  -0.46644
 Alpha  occ. eigenvalues --   -0.46496  -0.46453  -0.46232  -0.45872  -0.45824
 Alpha  occ. eigenvalues --   -0.45769  -0.45644  -0.45316  -0.45232  -0.45053
 Alpha  occ. eigenvalues --   -0.44827  -0.44802  -0.44729  -0.44464  -0.44337
 Alpha  occ. eigenvalues --   -0.44174  -0.44064  -0.43763  -0.43621  -0.43170
 Alpha  occ. eigenvalues --   -0.43005  -0.42812  -0.42540  -0.42461  -0.42144
 Alpha  occ. eigenvalues --   -0.41736  -0.41530  -0.41459  -0.41384  -0.41179
 Alpha  occ. eigenvalues --   -0.41091  -0.41024  -0.40866  -0.40634  -0.40443
 Alpha  occ. eigenvalues --   -0.40147  -0.39449  -0.39255  -0.39023  -0.38737
 Alpha  occ. eigenvalues --   -0.38596  -0.38051  -0.37781  -0.37759  -0.37436
 Alpha  occ. eigenvalues --   -0.37136  -0.37071  -0.37069  -0.36707  -0.36336
 Alpha  occ. eigenvalues --   -0.36130  -0.35701  -0.35613  -0.35360  -0.34579
 Alpha  occ. eigenvalues --   -0.34016  -0.33919  -0.32645  -0.31649  -0.31269
 Alpha  occ. eigenvalues --   -0.30726  -0.30564  -0.30280  -0.29898  -0.24461
 Alpha  occ. eigenvalues --   -0.21646
 Alpha virt. eigenvalues --   -0.08685  -0.02366  -0.00045   0.01891   0.02243
 Alpha virt. eigenvalues --    0.03851   0.04246   0.04792   0.05384   0.06288
 Alpha virt. eigenvalues --    0.07773   0.08204   0.08320   0.08816   0.09035

 Mulliken charges:
               1
     1  Mg   0.819665
     2  C   -0.007644
     3  C   -0.102387
     4  C   -0.056458
     5  C   -0.097996
     6  N   -0.272786
     7  C   -0.071128
     8  C    0.014898
     9  C   -0.086969
    10  C    0.038038
    11  C    0.074233
    12  C    0.075522
    13  C    0.015572
    14  C    0.181843
    15  O   -0.244194
    16  O   -0.353507
    17  N   -0.361639
    18  C    0.182711
    19  C   -0.162385
    20  C    0.019567
    21  C    0.162802
    22  C    0.146635
    23  C   -0.056647
    24  O   -0.222455
    25  C    0.064741
    26  N   -0.234650
    27  C   -0.069187
    28  C   -0.066046
    29  C    0.026386
    30  C    0.074726
    31  C    0.064248
    32  C    0.028081
    33  C    0.029158
    34  N   -0.328646
    35  C    0.079885
    36  C   -0.172808
    37  C   -0.045290
    38  C    0.130475
    39  C    0.124285
    40  C    0.094751
    41  O   -0.137065
    42  C   -0.046996
    43  C    0.192133
    44  O   -0.188068
    45  O   -0.335919
    46  C    0.188545
    47  C    0.306985
    48  C   -0.138257
    49  C   -0.093822
    50  C    0.081122
    51  C    0.057510
    52  C    0.036102
    53  C    0.031377
    54  C   -0.144336
    55  C    0.026962
    56  C    0.098765
    57  C    0.008332
    58  C    0.018916
    59  C   -0.117176
    60  C    0.042722
    61  C    0.086410
    62  C    0.019219
    63  C    0.037993
    64  C   -0.150702
    65  C    0.031889
    66  C    0.073570
    67  H   -0.015223
    68  H   -0.052349
    69  H   -0.053892
    70  H   -0.004897
    71  H    0.026187
    72  H    0.010940
    73  H    0.001508
    74  H    0.033684
    75  H    0.025964
    76  H    0.023276
    77  H    0.054808
    78  H    0.036882
    79  H   -0.009539
    80  H    0.043665
    81  H    0.040163
    82  H    0.039750
    83  H    0.034418
    84  H    0.026416
    85  H    0.029407
    86  H    0.005337
    87  H    0.012899
    88  H    0.017622
    89  H    0.028317
    90  H    0.011863
    91  H    0.004302
    92  H    0.003743
    93  H    0.007839
    94  H    0.011231
    95  H    0.008853
    96  H    0.048712
    97  H    0.035674
    98  H    0.036959
    99  H    0.022870
   100  H    0.013198
   101  H    0.041300
   102  H    0.019692
   103  H    0.007460
   104  H   -0.002196
   105  H   -0.002041
   106  H    0.041854
   107  H    0.014560
   108  H   -0.004683
   109  H   -0.000741
   110  H   -0.010472
   111  H   -0.003717
   112  H   -0.018639
   113  H   -0.010123
   114  H   -0.006574
   115  H    0.008974
   116  H   -0.002645
   117  H    0.006983
   118  H    0.001576
   119  H   -0.003217
   120  H   -0.009633
   121  H   -0.003923
   122  H   -0.002226
   123  H   -0.017046
   124  H   -0.001523
   125  H    0.014249
   126  H    0.001644
   127  H    0.001981
   128  H   -0.006336
   129  H   -0.010653
   130  H   -0.005476
   131  H   -0.007810
   132  H   -0.012771
   133  H   -0.012666
   134  H   -0.011806
   135  H    0.006242
   136  H   -0.002333
   137  H    0.005021
   138  H    0.002125
   139  H    0.003598
   140  H    0.009790
 Sum of Mulliken charges =  -0.00000

 Dipole moment (field-independent basis, Debye):
    X=              1.0384    Y=              4.7146    Z=              1.4475  Tot=              5.0399
 Quadrupole moment (field-independent basis, Debye-Ang):
   XX=           -373.5249   YY=           -439.9627   ZZ=           -409.8693
   XY=             20.1559   XZ=             -0.8819   YZ=             39.0655

 Normal termination of Gaussian 16 at Wed May  4 02:26:21 2022.
