 Gaussian 16, Revision A.03,
 Gaussian 16:  ES64L-G16RevA.03 25-Dec-2016

 ---------------------------------
 #p PBE1PBE/Def2SVP td=(nstates=5)
 ---------------------------------

 ------------------------------------------------------
 step_1301_chromophore_14 TDDFT with PBE1PBE functional
 ------------------------------------------------------
 Symbolic Z-matrix:
 Charge =  0 Multiplicity = 1

                         Standard orientation:
 ---------------------------------------------------------------------
 Center     Atomic      Atomic             Coordinates (Angstroms)
 Number     Number       Type             X           Y           Z
 ---------------------------------------------------------------------
      1         12           0        5.008099    1.036449   -0.156540
      2          6           0        4.812643   -2.373784    0.363662
      3          6           0        3.848251    0.631563   -3.282046
      4          6           0        4.688205    4.316218   -0.280966
      5          6           0        5.778491    1.319901    3.312262
      6          7           0        4.474211   -0.698082   -1.277277
      7          6           0        4.623918   -1.978346   -0.970746
      8          6           0        4.259233   -2.874760   -2.198795
      9          6           0        4.210809   -1.870103   -3.376696
     10          6           0        4.282085   -0.547093   -2.599939
     11          6           0        5.423675   -2.026592   -4.332820
     12          6           0        3.063735   -3.723283   -1.961380
     13          6           0        1.875147   -3.146394   -1.156952
     14          6           0        0.475804   -3.407386   -1.626757
     15          8           0        0.148844   -3.903662   -2.719025
     16          8           0       -0.408435   -2.999758   -0.643442
     17          7           0        4.329685    2.324946   -1.624258
     18          6           0        3.970119    1.946329   -2.862989
     19          6           0        3.675598    3.131107   -3.643669
     20          6           0        3.883267    4.276223   -2.826218
     21          6           0        4.304894    3.668509   -1.506006
     22          6           0        3.189661    3.156974   -5.053258
     23          6           0        3.642521    5.669580   -3.180708
     24          8           0        3.412948    6.044659   -4.336125
     25          6           0        3.851040    6.760161   -2.192403
     26          7           0        5.273358    2.641701    1.312096
     27          6           0        5.078347    3.909384    1.008248
     28          6           0        5.209330    4.801973    2.297460
     29          6           0        5.761135    3.773297    3.305541
     30          6           0        5.640629    2.495525    2.594669
     31          6           0        6.093858    6.086996    2.053788
     32          6           0        4.867206    3.907316    4.557856
     33          6           0        5.502501    3.680972    5.857651
     34          7           0        5.304388   -0.208200    1.568204
     35          6           0        5.601130    0.022311    2.871214
     36          6           0        5.709758   -1.213211    3.623844
     37          6           0        5.469223   -2.202345    2.639951
     38          6           0        5.228869   -1.575074    1.430269
     39          6           0        6.128701   -1.346371    5.071447
     40          6           0        5.324164   -3.699051    2.470004
     41          8           0        5.515610   -4.616248    3.240846
     42          6           0        4.814983   -3.820074    0.939229
     43          6           0        5.634015   -4.833178    0.249741
     44          8           0        5.253364   -5.878982   -0.227935
     45          8           0        6.939381   -4.359985    0.218998
     46          6           0        7.616622   -4.987099   -0.868809
     47          6           0       -1.834369   -3.335361   -0.692562
     48          6           0       -2.653736   -2.127437   -0.635269
     49          6           0       -3.537682   -1.530259   -1.508138
     50          6           0       -3.614518   -1.867626   -3.043583
     51          6           0       -4.316392   -0.273885   -1.054450
     52          6           0       -5.828171   -0.319783   -0.825661
     53          6           0       -6.071048   -0.759865    0.603694
     54          6           0       -7.459064   -0.255139    1.207238
     55          6           0       -7.302973    0.345992    2.632366
     56          6           0       -8.529872   -1.359562    1.200348
     57          6           0       -9.753249   -0.887155    0.453621
     58          6           0      -10.932592   -1.689022    1.023850
     59          6           0      -12.129776   -0.788515    1.483866
     60          6           0      -12.725835   -1.323366    2.845344
     61          6           0      -13.188964   -0.645477    0.384436
     62          6           0      -13.823137    0.790666    0.175378
     63          6           0      -15.343345    0.826360    0.247471
     64          6           0      -15.826336    2.212112   -0.172811
     65          6           0      -17.188224    2.425824    0.497621
     66          6           0      -15.870796    2.448377   -1.670353
     67          1           0        3.476540    0.396346   -4.281909
     68          1           0        4.596465    5.398682   -0.175774
     69          1           0        6.175166    1.324993    4.329554
     70          1           0        5.074551   -3.572052   -2.390701
     71          1           0        3.291734   -1.909955   -3.960699
     72          1           0        6.224746   -2.746083   -4.163831
     73          1           0        6.094277   -1.190956   -4.135800
     74          1           0        5.036042   -2.023587   -5.351418
     75          1           0        3.385448   -4.606594   -1.409307
     76          1           0        2.792949   -4.009925   -2.977105
     77          1           0        2.037765   -2.069671   -1.115722
     78          1           0        1.836254   -3.513378   -0.130864
     79          1           0        3.375512    2.168643   -5.472299
     80          1           0        3.703414    3.833394   -5.736641
     81          1           0        2.118250    3.351782   -5.006321
     82          1           0        4.911927    6.837302   -1.955825
     83          1           0        3.283520    6.489561   -1.301498
     84          1           0        3.580525    7.694544   -2.683718
     85          1           0        4.171723    5.118975    2.402459
     86          1           0        6.792664    4.054196    3.518414
     87          1           0        6.865184    6.169652    2.818101
     88          1           0        5.432457    6.949048    2.145810
     89          1           0        6.596278    6.100325    1.086074
     90          1           0        4.030151    3.218585    4.442870
     91          1           0        4.490234    4.929048    4.606622
     92          1           0        6.033399    4.600712    6.105694
     93          1           0        6.169022    2.819352    5.862683
     94          1           0        4.795834    3.555312    6.679027
     95          1           0        6.603581   -0.479715    5.529802
     96          1           0        6.839701   -2.173081    5.072494
     97          1           0        5.208507   -1.489883    5.637740
     98          1           0        3.792686   -4.183739    1.040544
     99          1           0        8.563006   -4.534660   -1.167422
    100          1           0        7.022017   -4.868521   -1.774751
    101          1           0        7.831902   -6.018868   -0.591695
    102          1           0       -2.053675   -4.049912    0.100840
    103          1           0       -2.110236   -3.954911   -1.545980
    104          1           0       -2.498551   -1.676590    0.345270
    105          1           0       -4.665643   -2.008246   -3.295941
    106          1           0       -3.030742   -2.716821   -3.398015
    107          1           0       -3.485345   -0.976612   -3.658206
    108          1           0       -4.201314    0.605958   -1.688114
    109          1           0       -3.803578    0.127754   -0.180045
    110          1           0       -6.362478   -1.028074   -1.459557
    111          1           0       -6.409909    0.562889   -1.089405
    112          1           0       -5.213770   -0.475670    1.213929
    113          1           0       -6.096739   -1.844412    0.711538
    114          1           0       -7.672957    0.653043    0.643112
    115          1           0       -8.229469    0.541931    3.171867
    116          1           0       -6.820158    1.321534    2.676762
    117          1           0       -6.611394   -0.355070    3.100781
    118          1           0       -8.731745   -1.577779    2.249136
    119          1           0       -8.076258   -2.241780    0.747730
    120          1           0       -9.739597   -1.092227   -0.617048
    121          1           0      -10.010816    0.171137    0.478368
    122          1           0      -10.652500   -2.471403    1.728810
    123          1           0      -11.114173   -2.270873    0.119698
    124          1           0      -11.665557    0.182530    1.657212
    125          1           0      -12.432385   -2.336069    3.122577
    126          1           0      -13.813295   -1.275278    2.916871
    127          1           0      -12.384363   -0.639205    3.621642
    128          1           0      -14.033677   -1.290299    0.626334
    129          1           0      -12.733249   -0.992053   -0.543377
    130          1           0      -13.431227    1.232060   -0.740200
    131          1           0      -13.409269    1.411764    0.970115
    132          1           0      -15.810643    0.614261    1.208643
    133          1           0      -15.845340    0.113639   -0.406852
    134          1           0      -15.157645    2.921013    0.315669
    135          1           0      -17.926033    1.792791    0.004711
    136          1           0      -17.570670    3.445191    0.454037
    137          1           0      -17.130751    2.255178    1.572525
    138          1           0      -15.376688    3.389675   -1.910797
    139          1           0      -16.896485    2.593776   -2.009660
    140          1           0      -15.344420    1.666787   -2.217484
 ---------------------------------------------------------------------

 SCF Done:  E(RPBE1PBE) =  -3005.36431821     A.U. after   16 cycles

 Excitation energies and oscillator strengths:

 Excited State   1:      Singlet-A      1.9465 eV  636.95 nm  f=0.3583  <S**2>=0.000
     245 -> 248        0.19479
     246 -> 247        0.68632
 This state for optimization and/or second-order correction.
 Total Energy, E(TD-HF/TD-DFT) =  -3005.29278489
 Copying the excited state density for this state as the 1-particle RhoCI density.

 Excited State   2:      Singlet-A      2.2874 eV  542.04 nm  f=0.0909  <S**2>=0.000
     245 -> 247        0.64153
     246 -> 248       -0.28810

 Excited State   3:      Singlet-A      2.9083 eV  426.32 nm  f=0.0000  <S**2>=0.000
     244 -> 247        0.66336
     244 -> 249        0.19271
     244 -> 250        0.11509

 Excited State   4:      Singlet-A      3.1378 eV  395.14 nm  f=0.0012  <S**2>=0.000
     242 -> 247        0.68465
     246 -> 248        0.12992

 Excited State   5:      Singlet-A      3.2071 eV  386.59 nm  f=0.0031  <S**2>=0.000
     240 -> 247        0.63276
     240 -> 249       -0.15927
     241 -> 247        0.22599

 The electronic state is 1-A.
 Alpha  occ. eigenvalues --  -46.93078 -19.25749 -19.25087 -19.21218 -19.20705
 Alpha  occ. eigenvalues --  -19.19829 -19.18186 -14.42712 -14.41411 -14.39966
 Alpha  occ. eigenvalues --  -14.38719 -10.36759 -10.36552 -10.33676 -10.31228
 Alpha  occ. eigenvalues --  -10.29592 -10.29208 -10.29137 -10.28953 -10.28839
 Alpha  occ. eigenvalues --  -10.28673 -10.28047 -10.27704 -10.26781 -10.26689
 Alpha  occ. eigenvalues --  -10.26485 -10.26467 -10.26459 -10.26410 -10.26213
 Alpha  occ. eigenvalues --  -10.26167 -10.26048 -10.25772 -10.25329 -10.25201
 Alpha  occ. eigenvalues --  -10.24872 -10.24824 -10.24758 -10.24469 -10.24161
 Alpha  occ. eigenvalues --  -10.24050 -10.23875 -10.23859 -10.23734 -10.23623
 Alpha  occ. eigenvalues --  -10.23585 -10.23522 -10.23438 -10.23354 -10.23019
 Alpha  occ. eigenvalues --  -10.22887 -10.22836 -10.22800 -10.22727 -10.22520
 Alpha  occ. eigenvalues --  -10.22387 -10.22089 -10.21908 -10.21882 -10.21853
 Alpha  occ. eigenvalues --  -10.21799 -10.21708 -10.21616 -10.21599 -10.21443
 Alpha  occ. eigenvalues --  -10.21336  -3.15129  -1.87981  -1.87488  -1.87362
 Alpha  occ. eigenvalues --   -1.12185  -1.09608  -1.05911  -1.04034  -1.03638
 Alpha  occ. eigenvalues --   -1.01509  -1.00829  -1.00359  -0.99074  -0.98163
 Alpha  occ. eigenvalues --   -0.87186  -0.85027  -0.84774  -0.84300  -0.83678
 Alpha  occ. eigenvalues --   -0.83261  -0.82998  -0.82490  -0.81470  -0.81401
 Alpha  occ. eigenvalues --   -0.80875  -0.80259  -0.79174  -0.78783  -0.78127
 Alpha  occ. eigenvalues --   -0.77136  -0.76676  -0.75735  -0.75386  -0.74921
 Alpha  occ. eigenvalues --   -0.74039  -0.73001  -0.72594  -0.71842  -0.70842
 Alpha  occ. eigenvalues --   -0.70205  -0.69812  -0.69654  -0.68776  -0.68161
 Alpha  occ. eigenvalues --   -0.67870  -0.67355  -0.66930  -0.65551  -0.63640
 Alpha  occ. eigenvalues --   -0.63341  -0.62783  -0.62344  -0.61225  -0.61041
 Alpha  occ. eigenvalues --   -0.60458  -0.59883  -0.59678  -0.59652  -0.58230
 Alpha  occ. eigenvalues --   -0.57987  -0.57758  -0.57225  -0.56549  -0.55225
 Alpha  occ. eigenvalues --   -0.54824  -0.54431  -0.54122  -0.53792  -0.52967
 Alpha  occ. eigenvalues --   -0.52366  -0.51778  -0.51346  -0.51203  -0.50458
 Alpha  occ. eigenvalues --   -0.50256  -0.50010  -0.49381  -0.49281  -0.48746
 Alpha  occ. eigenvalues --   -0.48429  -0.48282  -0.48133  -0.47650  -0.47449
 Alpha  occ. eigenvalues --   -0.47236  -0.46903  -0.46792  -0.46656  -0.46507
 Alpha  occ. eigenvalues --   -0.46384  -0.46204  -0.45878  -0.45768  -0.45616
 Alpha  occ. eigenvalues --   -0.45316  -0.45140  -0.44814  -0.44676  -0.44631
 Alpha  occ. eigenvalues --   -0.44254  -0.43894  -0.43832  -0.43744  -0.43313
 Alpha  occ. eigenvalues --   -0.43148  -0.42902  -0.42614  -0.42513  -0.42460
 Alpha  occ. eigenvalues --   -0.42141  -0.41933  -0.41757  -0.41704  -0.41409
 Alpha  occ. eigenvalues --   -0.41182  -0.41076  -0.40875  -0.40637  -0.40537
 Alpha  occ. eigenvalues --   -0.40453  -0.40395  -0.39992  -0.39889  -0.39676
 Alpha  occ. eigenvalues --   -0.39655  -0.39578  -0.39388  -0.39167  -0.39017
 Alpha  occ. eigenvalues --   -0.38922  -0.38897  -0.38513  -0.38416  -0.38016
 Alpha  occ. eigenvalues --   -0.37766  -0.37644  -0.37322  -0.37217  -0.36858
 Alpha  occ. eigenvalues --   -0.36562  -0.36326  -0.36175  -0.36123  -0.36041
 Alpha  occ. eigenvalues --   -0.35917  -0.35775  -0.35632  -0.35590  -0.35349
 Alpha  occ. eigenvalues --   -0.34909  -0.34225  -0.34199  -0.33823  -0.33644
 Alpha  occ. eigenvalues --   -0.33386  -0.33051  -0.32793  -0.32512  -0.32173
 Alpha  occ. eigenvalues --   -0.31967  -0.31894  -0.31839  -0.31728  -0.31198
 Alpha  occ. eigenvalues --   -0.31037  -0.30623  -0.30522  -0.30243  -0.29859
 Alpha  occ. eigenvalues --   -0.29450  -0.28688  -0.27616  -0.27300  -0.26321
 Alpha  occ. eigenvalues --   -0.26185  -0.25629  -0.25598  -0.25202  -0.21395
 Alpha  occ. eigenvalues --   -0.19280
 Alpha virt. eigenvalues --   -0.11244  -0.05791  -0.04294  -0.02206  -0.00813
 Alpha virt. eigenvalues --   -0.00553  -0.00437   0.00755   0.00921   0.02465
 Alpha virt. eigenvalues --    0.03823   0.04375   0.04721   0.05417   0.05809

 Mulliken charges:
               1
     1  Mg   0.965155
     2  C   -0.017909
     3  C   -0.078038
     4  C   -0.066742
     5  C   -0.089746
     6  N   -0.378131
     7  C   -0.006137
     8  C   -0.052985
     9  C   -0.173158
    10  C    0.070009
    11  C    0.025126
    12  C    0.024601
    13  C   -0.069513
    14  C    0.256352
    15  O   -0.278727
    16  O   -0.384501
    17  N   -0.481446
    18  C    0.194255
    19  C   -0.184984
    20  C   -0.026847
    21  C    0.196796
    22  C    0.089379
    23  C   -0.006364
    24  O   -0.258383
    25  C   -0.012784
    26  N   -0.344241
    27  C   -0.013506
    28  C   -0.146888
    29  C   -0.059380
    30  C    0.119582
    31  C    0.007974
    32  C   -0.035029
    33  C   -0.043092
    34  N   -0.450156
    35  C    0.106650
    36  C   -0.191862
    37  C   -0.092237
    38  C    0.178605
    39  C    0.069152
    40  C    0.194856
    41  O   -0.183624
    42  C   -0.152493
    43  C    0.277148
    44  O   -0.225969
    45  O   -0.363292
    46  C    0.129155
    47  C    0.264397
    48  C   -0.152463
    49  C   -0.133277
    50  C    0.021125
    51  C   -0.011108
    52  C   -0.022544
    53  C   -0.019495
    54  C   -0.227670
    55  C   -0.034546
    56  C    0.038890
    57  C   -0.049087
    58  C   -0.030968
    59  C   -0.208136
    60  C   -0.014892
    61  C    0.034561
    62  C   -0.044317
    63  C   -0.017794
    64  C   -0.246193
    65  C   -0.031104
    66  C    0.014461
    67  H    0.014656
    68  H   -0.016725
    69  H   -0.015601
    70  H    0.040787
    71  H    0.060479
    72  H    0.036734
    73  H    0.029635
    74  H    0.060022
    75  H    0.061573
    76  H    0.055730
    77  H    0.091257
    78  H    0.069303
    79  H    0.018333
    80  H    0.069527
    81  H    0.067652
    82  H    0.066817
    83  H    0.060294
    84  H    0.054291
    85  H    0.065571
    86  H    0.042444
    87  H    0.040135
    88  H    0.044926
    89  H    0.054722
    90  H    0.045315
    91  H    0.038756
    92  H    0.032830
    93  H    0.035002
    94  H    0.040072
    95  H    0.035157
    96  H    0.075931
    97  H    0.064676
    98  H    0.076344
    99  H    0.045659
   100  H    0.036749
   101  H    0.064009
   102  H    0.046193
   103  H    0.033879
   104  H    0.027520
   105  H    0.026588
   106  H    0.066978
   107  H    0.042250
   108  H    0.028255
   109  H    0.031229
   110  H    0.023139
   111  H    0.026672
   112  H    0.012849
   113  H    0.022955
   114  H    0.031104
   115  H    0.036781
   116  H    0.025891
   117  H    0.035449
   118  H    0.034087
   119  H    0.029534
   120  H    0.023137
   121  H    0.026674
   122  H    0.028082
   123  H    0.015970
   124  H    0.035853
   125  H    0.040351
   126  H    0.028851
   127  H    0.029781
   128  H    0.026928
   129  H    0.022499
   130  H    0.026877
   131  H    0.025601
   132  H    0.019586
   133  H    0.020526
   134  H    0.027089
   135  H    0.034484
   136  H    0.026576
   137  H    0.032843
   138  H    0.030132
   139  H    0.030927
   140  H    0.036341
 Sum of Mulliken charges =  -0.00000

 Dipole moment (field-independent basis, Debye):
    X=              1.0967    Y=              4.6922    Z=              1.7218  Tot=              5.1170
 Quadrupole moment (field-independent basis, Debye-Ang):
   XX=           -369.7598   YY=           -437.1467   ZZ=           -405.2630
   XY=             19.9866   XZ=              0.9160   YZ=             40.3787

 Normal termination of Gaussian 16 at Wed May  4 02:44:52 2022.
