 Gaussian 16, Revision A.03,
 Gaussian 16:  ES64L-G16RevA.03 25-Dec-2016

 --------------------------------
 #p wB97XD/Def2SVP td=(nstates=5)
 --------------------------------

 -----------------------------------------------------
 step_1301_chromophore_14 TDDFT with wB97XD functional
 -----------------------------------------------------
 Symbolic Z-matrix:
 Charge =  0 Multiplicity = 1

                         Standard orientation:
 ---------------------------------------------------------------------
 Center     Atomic      Atomic             Coordinates (Angstroms)
 Number     Number       Type             X           Y           Z
 ---------------------------------------------------------------------
      1         12           0        5.008099    1.036449   -0.156540
      2          6           0        4.812643   -2.373784    0.363662
      3          6           0        3.848251    0.631563   -3.282046
      4          6           0        4.688205    4.316218   -0.280966
      5          6           0        5.778491    1.319901    3.312262
      6          7           0        4.474211   -0.698082   -1.277277
      7          6           0        4.623918   -1.978346   -0.970746
      8          6           0        4.259233   -2.874760   -2.198795
      9          6           0        4.210809   -1.870103   -3.376696
     10          6           0        4.282085   -0.547093   -2.599939
     11          6           0        5.423675   -2.026592   -4.332820
     12          6           0        3.063735   -3.723283   -1.961380
     13          6           0        1.875147   -3.146394   -1.156952
     14          6           0        0.475804   -3.407386   -1.626757
     15          8           0        0.148844   -3.903662   -2.719025
     16          8           0       -0.408435   -2.999758   -0.643442
     17          7           0        4.329685    2.324946   -1.624258
     18          6           0        3.970119    1.946329   -2.862989
     19          6           0        3.675598    3.131107   -3.643669
     20          6           0        3.883267    4.276223   -2.826218
     21          6           0        4.304894    3.668509   -1.506006
     22          6           0        3.189661    3.156974   -5.053258
     23          6           0        3.642521    5.669580   -3.180708
     24          8           0        3.412948    6.044659   -4.336125
     25          6           0        3.851040    6.760161   -2.192403
     26          7           0        5.273358    2.641701    1.312096
     27          6           0        5.078347    3.909384    1.008248
     28          6           0        5.209330    4.801973    2.297460
     29          6           0        5.761135    3.773297    3.305541
     30          6           0        5.640629    2.495525    2.594669
     31          6           0        6.093858    6.086996    2.053788
     32          6           0        4.867206    3.907316    4.557856
     33          6           0        5.502501    3.680972    5.857651
     34          7           0        5.304388   -0.208200    1.568204
     35          6           0        5.601130    0.022311    2.871214
     36          6           0        5.709758   -1.213211    3.623844
     37          6           0        5.469223   -2.202345    2.639951
     38          6           0        5.228869   -1.575074    1.430269
     39          6           0        6.128701   -1.346371    5.071447
     40          6           0        5.324164   -3.699051    2.470004
     41          8           0        5.515610   -4.616248    3.240846
     42          6           0        4.814983   -3.820074    0.939229
     43          6           0        5.634015   -4.833178    0.249741
     44          8           0        5.253364   -5.878982   -0.227935
     45          8           0        6.939381   -4.359985    0.218998
     46          6           0        7.616622   -4.987099   -0.868809
     47          6           0       -1.834369   -3.335361   -0.692562
     48          6           0       -2.653736   -2.127437   -0.635269
     49          6           0       -3.537682   -1.530259   -1.508138
     50          6           0       -3.614518   -1.867626   -3.043583
     51          6           0       -4.316392   -0.273885   -1.054450
     52          6           0       -5.828171   -0.319783   -0.825661
     53          6           0       -6.071048   -0.759865    0.603694
     54          6           0       -7.459064   -0.255139    1.207238
     55          6           0       -7.302973    0.345992    2.632366
     56          6           0       -8.529872   -1.359562    1.200348
     57          6           0       -9.753249   -0.887155    0.453621
     58          6           0      -10.932592   -1.689022    1.023850
     59          6           0      -12.129776   -0.788515    1.483866
     60          6           0      -12.725835   -1.323366    2.845344
     61          6           0      -13.188964   -0.645477    0.384436
     62          6           0      -13.823137    0.790666    0.175378
     63          6           0      -15.343345    0.826360    0.247471
     64          6           0      -15.826336    2.212112   -0.172811
     65          6           0      -17.188224    2.425824    0.497621
     66          6           0      -15.870796    2.448377   -1.670353
     67          1           0        3.476540    0.396346   -4.281909
     68          1           0        4.596465    5.398682   -0.175774
     69          1           0        6.175166    1.324993    4.329554
     70          1           0        5.074551   -3.572052   -2.390701
     71          1           0        3.291734   -1.909955   -3.960699
     72          1           0        6.224746   -2.746083   -4.163831
     73          1           0        6.094277   -1.190956   -4.135800
     74          1           0        5.036042   -2.023587   -5.351418
     75          1           0        3.385448   -4.606594   -1.409307
     76          1           0        2.792949   -4.009925   -2.977105
     77          1           0        2.037765   -2.069671   -1.115722
     78          1           0        1.836254   -3.513378   -0.130864
     79          1           0        3.375512    2.168643   -5.472299
     80          1           0        3.703414    3.833394   -5.736641
     81          1           0        2.118250    3.351782   -5.006321
     82          1           0        4.911927    6.837302   -1.955825
     83          1           0        3.283520    6.489561   -1.301498
     84          1           0        3.580525    7.694544   -2.683718
     85          1           0        4.171723    5.118975    2.402459
     86          1           0        6.792664    4.054196    3.518414
     87          1           0        6.865184    6.169652    2.818101
     88          1           0        5.432457    6.949048    2.145810
     89          1           0        6.596278    6.100325    1.086074
     90          1           0        4.030151    3.218585    4.442870
     91          1           0        4.490234    4.929048    4.606622
     92          1           0        6.033399    4.600712    6.105694
     93          1           0        6.169022    2.819352    5.862683
     94          1           0        4.795834    3.555312    6.679027
     95          1           0        6.603581   -0.479715    5.529802
     96          1           0        6.839701   -2.173081    5.072494
     97          1           0        5.208507   -1.489883    5.637740
     98          1           0        3.792686   -4.183739    1.040544
     99          1           0        8.563006   -4.534660   -1.167422
    100          1           0        7.022017   -4.868521   -1.774751
    101          1           0        7.831902   -6.018868   -0.591695
    102          1           0       -2.053675   -4.049912    0.100840
    103          1           0       -2.110236   -3.954911   -1.545980
    104          1           0       -2.498551   -1.676590    0.345270
    105          1           0       -4.665643   -2.008246   -3.295941
    106          1           0       -3.030742   -2.716821   -3.398015
    107          1           0       -3.485345   -0.976612   -3.658206
    108          1           0       -4.201314    0.605958   -1.688114
    109          1           0       -3.803578    0.127754   -0.180045
    110          1           0       -6.362478   -1.028074   -1.459557
    111          1           0       -6.409909    0.562889   -1.089405
    112          1           0       -5.213770   -0.475670    1.213929
    113          1           0       -6.096739   -1.844412    0.711538
    114          1           0       -7.672957    0.653043    0.643112
    115          1           0       -8.229469    0.541931    3.171867
    116          1           0       -6.820158    1.321534    2.676762
    117          1           0       -6.611394   -0.355070    3.100781
    118          1           0       -8.731745   -1.577779    2.249136
    119          1           0       -8.076258   -2.241780    0.747730
    120          1           0       -9.739597   -1.092227   -0.617048
    121          1           0      -10.010816    0.171137    0.478368
    122          1           0      -10.652500   -2.471403    1.728810
    123          1           0      -11.114173   -2.270873    0.119698
    124          1           0      -11.665557    0.182530    1.657212
    125          1           0      -12.432385   -2.336069    3.122577
    126          1           0      -13.813295   -1.275278    2.916871
    127          1           0      -12.384363   -0.639205    3.621642
    128          1           0      -14.033677   -1.290299    0.626334
    129          1           0      -12.733249   -0.992053   -0.543377
    130          1           0      -13.431227    1.232060   -0.740200
    131          1           0      -13.409269    1.411764    0.970115
    132          1           0      -15.810643    0.614261    1.208643
    133          1           0      -15.845340    0.113639   -0.406852
    134          1           0      -15.157645    2.921013    0.315669
    135          1           0      -17.926033    1.792791    0.004711
    136          1           0      -17.570670    3.445191    0.454037
    137          1           0      -17.130751    2.255178    1.572525
    138          1           0      -15.376688    3.389675   -1.910797
    139          1           0      -16.896485    2.593776   -2.009660
    140          1           0      -15.344420    1.666787   -2.217484
 ---------------------------------------------------------------------

 SCF Done:  E(RwB97XD) =  -3007.87210121     A.U. after   17 cycles

 Excitation energies and oscillator strengths:

 Excited State   1:      Singlet-A      1.7517 eV  707.79 nm  f=0.3674  <S**2>=0.000
     245 -> 248       -0.20544
     246 -> 247        0.67799
     245 <- 248       -0.11772
 This state for optimization and/or second-order correction.
 Total Energy, E(TD-HF/TD-DFT) =  -3007.80772713
 Copying the excited state density for this state as the 1-particle RhoCI density.

 Excited State   2:      Singlet-A      2.2347 eV  554.82 nm  f=0.0830  <S**2>=0.000
     245 -> 247        0.62291
     246 -> 248        0.32327

 Excited State   3:      Singlet-A      3.4397 eV  360.45 nm  f=0.0015  <S**2>=0.000
     242 -> 247        0.51134
     242 -> 248        0.10752
     242 -> 249       -0.37024
     242 -> 250        0.23908

 Excited State   4:      Singlet-A      3.4935 eV  354.90 nm  f=0.1912  <S**2>=0.000
     244 -> 247        0.54425
     245 -> 247        0.16795
     246 -> 248       -0.39640

 Excited State   5:      Singlet-A      3.5732 eV  346.98 nm  f=0.3862  <S**2>=0.000
     241 -> 247       -0.33804
     244 -> 247        0.36475
     245 -> 247       -0.22485
     246 -> 248        0.43344

 The electronic state is 1-A.
 Alpha  occ. eigenvalues --  -46.96050 -19.30354 -19.29661 -19.25961 -19.25472
 Alpha  occ. eigenvalues --  -19.24501 -19.23086 -14.47892 -14.46425 -14.45015
 Alpha  occ. eigenvalues --  -14.43592 -10.43624 -10.43355 -10.40466 -10.38161
 Alpha  occ. eigenvalues --  -10.36171 -10.35595 -10.35488 -10.35298 -10.35245
 Alpha  occ. eigenvalues --  -10.35201 -10.34249 -10.34222 -10.33045 -10.32938
 Alpha  occ. eigenvalues --  -10.32925 -10.32887 -10.32821 -10.32687 -10.32575
 Alpha  occ. eigenvalues --  -10.32461 -10.32254 -10.32029 -10.31754 -10.31497
 Alpha  occ. eigenvalues --  -10.31393 -10.31253 -10.31115 -10.30863 -10.30469
 Alpha  occ. eigenvalues --  -10.30467 -10.30138 -10.30121 -10.30097 -10.29963
 Alpha  occ. eigenvalues --  -10.29926 -10.29887 -10.29832 -10.29655 -10.29628
 Alpha  occ. eigenvalues --  -10.29366 -10.29256 -10.29195 -10.29059 -10.28803
 Alpha  occ. eigenvalues --  -10.28779 -10.28461 -10.28273 -10.28235 -10.28228
 Alpha  occ. eigenvalues --  -10.28177 -10.28131 -10.28040 -10.28036 -10.27875
 Alpha  occ. eigenvalues --  -10.27668  -3.21959  -1.95560  -1.95066  -1.94940
 Alpha  occ. eigenvalues --   -1.19610  -1.17010  -1.13339  -1.11427  -1.11224
 Alpha  occ. eigenvalues --   -1.08868  -1.08241  -1.07701  -1.06551  -1.05404
 Alpha  occ. eigenvalues --   -0.94780  -0.92557  -0.92388  -0.91964  -0.91347
 Alpha  occ. eigenvalues --   -0.90941  -0.90663  -0.90068  -0.89215  -0.89116
 Alpha  occ. eigenvalues --   -0.88411  -0.87905  -0.86835  -0.86348  -0.85787
 Alpha  occ. eigenvalues --   -0.84791  -0.84406  -0.83425  -0.82985  -0.82554
 Alpha  occ. eigenvalues --   -0.81703  -0.80638  -0.80167  -0.79592  -0.78490
 Alpha  occ. eigenvalues --   -0.77809  -0.77511  -0.77332  -0.76462  -0.75792
 Alpha  occ. eigenvalues --   -0.75450  -0.74915  -0.74476  -0.73169  -0.71149
 Alpha  occ. eigenvalues --   -0.70904  -0.70378  -0.69969  -0.68807  -0.68525
 Alpha  occ. eigenvalues --   -0.68001  -0.67380  -0.67247  -0.67144  -0.65918
 Alpha  occ. eigenvalues --   -0.65432  -0.65210  -0.64874  -0.64179  -0.62753
 Alpha  occ. eigenvalues --   -0.62286  -0.61818  -0.61484  -0.61224  -0.60355
 Alpha  occ. eigenvalues --   -0.59913  -0.59233  -0.58825  -0.58656  -0.57869
 Alpha  occ. eigenvalues --   -0.57673  -0.57431  -0.56802  -0.56650  -0.56189
 Alpha  occ. eigenvalues --   -0.55931  -0.55609  -0.55452  -0.55065  -0.54844
 Alpha  occ. eigenvalues --   -0.54699  -0.54362  -0.54315  -0.54073  -0.53828
 Alpha  occ. eigenvalues --   -0.53747  -0.53563  -0.53111  -0.53040  -0.52958
 Alpha  occ. eigenvalues --   -0.52677  -0.52505  -0.52197  -0.52073  -0.52004
 Alpha  occ. eigenvalues --   -0.51526  -0.51170  -0.51117  -0.51042  -0.50649
 Alpha  occ. eigenvalues --   -0.50510  -0.50203  -0.49926  -0.49892  -0.49722
 Alpha  occ. eigenvalues --   -0.49390  -0.49202  -0.49046  -0.48908  -0.48556
 Alpha  occ. eigenvalues --   -0.48411  -0.48334  -0.48179  -0.47821  -0.47759
 Alpha  occ. eigenvalues --   -0.47675  -0.47559  -0.47188  -0.47102  -0.46903
 Alpha  occ. eigenvalues --   -0.46743  -0.46721  -0.46599  -0.46321  -0.46184
 Alpha  occ. eigenvalues --   -0.46081  -0.45971  -0.45657  -0.45569  -0.45159
 Alpha  occ. eigenvalues --   -0.44910  -0.44733  -0.44411  -0.44352  -0.44052
 Alpha  occ. eigenvalues --   -0.43648  -0.43468  -0.43387  -0.43288  -0.43047
 Alpha  occ. eigenvalues --   -0.42976  -0.42874  -0.42734  -0.42520  -0.42335
 Alpha  occ. eigenvalues --   -0.41987  -0.41284  -0.41152  -0.40888  -0.40659
 Alpha  occ. eigenvalues --   -0.40446  -0.40101  -0.39792  -0.39601  -0.39263
 Alpha  occ. eigenvalues --   -0.39057  -0.38954  -0.38900  -0.38633  -0.38231
 Alpha  occ. eigenvalues --   -0.38052  -0.37607  -0.37544  -0.37188  -0.36602
 Alpha  occ. eigenvalues --   -0.36211  -0.35828  -0.34468  -0.33881  -0.33280
 Alpha  occ. eigenvalues --   -0.32921  -0.32527  -0.32289  -0.32068  -0.26393
 Alpha  occ. eigenvalues --   -0.23467
 Alpha virt. eigenvalues --   -0.07031  -0.00468   0.02001   0.04331   0.05017
 Alpha virt. eigenvalues --    0.06082   0.06334   0.07506   0.07625   0.08856
 Alpha virt. eigenvalues --    0.10488   0.11209   0.11372   0.12242   0.12580

 Mulliken charges:
               1
     1  Mg   0.956579
     2  C   -0.018609
     3  C   -0.101506
     4  C   -0.075453
     5  C   -0.099294
     6  N   -0.342592
     7  C   -0.038422
     8  C   -0.020256
     9  C   -0.147388
    10  C    0.057084
    11  C    0.031137
    12  C    0.037021
    13  C   -0.046187
    14  C    0.244846
    15  O   -0.275372
    16  O   -0.383792
    17  N   -0.446920
    18  C    0.191469
    19  C   -0.175510
    20  C   -0.024420
    21  C    0.191308
    22  C    0.099215
    23  C   -0.009069
    24  O   -0.252937
    25  C    0.002818
    26  N   -0.310520
    27  C   -0.028487
    28  C   -0.119765
    29  C   -0.031517
    30  C    0.101956
    31  C    0.017758
    32  C   -0.017515
    33  C   -0.027328
    34  N   -0.412616
    35  C    0.096135
    36  C   -0.187945
    37  C   -0.088363
    38  C    0.161509
    39  C    0.080798
    40  C    0.174494
    41  O   -0.174748
    42  C   -0.112130
    43  C    0.254941
    44  O   -0.219366
    45  O   -0.364464
    46  C    0.147660
    47  C    0.279068
    48  C   -0.159443
    49  C   -0.126101
    50  C    0.034757
    51  C    0.012183
    52  C   -0.009506
    53  C   -0.003219
    54  C   -0.198570
    55  C   -0.020459
    56  C    0.056224
    57  C   -0.034650
    58  C   -0.016825
    59  C   -0.174667
    60  C   -0.003102
    61  C    0.047738
    62  C   -0.026499
    63  C   -0.003052
    64  C   -0.214011
    65  C   -0.016822
    66  C    0.021329
    67  H    0.009588
    68  H   -0.032340
    69  H   -0.034180
    70  H    0.019373
    71  H    0.052874
    72  H    0.032356
    73  H    0.022208
    74  H    0.056118
    75  H    0.050452
    76  H    0.048834
    77  H    0.078801
    78  H    0.061457
    79  H    0.012391
    80  H    0.067750
    81  H    0.064540
    82  H    0.061249
    83  H    0.053992
    84  H    0.053456
    85  H    0.055061
    86  H    0.032198
    87  H    0.034844
    88  H    0.039740
    89  H    0.048746
    90  H    0.036654
    91  H    0.028938
    92  H    0.025935
    93  H    0.028186
    94  H    0.035100
    95  H    0.030519
    96  H    0.070948
    97  H    0.058920
    98  H    0.066891
    99  H    0.042433
   100  H    0.029480
   101  H    0.059969
   102  H    0.042936
   103  H    0.027743
   104  H    0.023631
   105  H    0.018978
   106  H    0.063691
   107  H    0.036532
   108  H    0.021577
   109  H    0.022144
   110  H    0.013616
   111  H    0.019921
   112  H    0.001500
   113  H    0.012407
   114  H    0.016099
   115  H    0.030592
   116  H    0.020308
   117  H    0.027467
   118  H    0.023502
   119  H    0.021170
   120  H    0.015862
   121  H    0.016248
   122  H    0.018815
   123  H    0.006395
   124  H    0.020209
   125  H    0.034897
   126  H    0.022266
   127  H    0.023999
   128  H    0.016595
   129  H    0.013735
   130  H    0.018705
   131  H    0.015063
   132  H    0.010311
   133  H    0.010732
   134  H    0.014948
   135  H    0.026785
   136  H    0.021083
   137  H    0.026304
   138  H    0.024986
   139  H    0.025716
   140  H    0.030445
 Sum of Mulliken charges =  -0.00000

 Dipole moment (field-independent basis, Debye):
    X=              1.0370    Y=              4.8622    Z=              1.3857  Tot=              5.1610
 Quadrupole moment (field-independent basis, Debye-Ang):
   XX=           -369.6905   YY=           -436.0619   ZZ=           -405.2499
   XY=             20.3711   XZ=             -0.9756   YZ=             39.3435

 Normal termination of Gaussian 16 at Wed May  4 03:12:54 2022.
