 Gaussian 16, Revision A.03,
 Gaussian 16:  ES64L-G16RevA.03 25-Dec-2016

 --------------------
 #p ZINDO=(nstates=5)
 --------------------

 ------------------------------
 step_1301_chromophore_14 ZINDO
 ------------------------------
 Symbolic Z-matrix:
 Charge =  0 Multiplicity = 1

                         Standard orientation:
 ---------------------------------------------------------------------
 Center     Atomic      Atomic             Coordinates (Angstroms)
 Number     Number       Type             X           Y           Z
 ---------------------------------------------------------------------
      1         12           0        5.008099    1.036449   -0.156540
      2          6           0        4.812643   -2.373784    0.363662
      3          6           0        3.848251    0.631563   -3.282046
      4          6           0        4.688205    4.316218   -0.280966
      5          6           0        5.778491    1.319901    3.312262
      6          7           0        4.474211   -0.698082   -1.277277
      7          6           0        4.623918   -1.978346   -0.970746
      8          6           0        4.259233   -2.874760   -2.198795
      9          6           0        4.210809   -1.870103   -3.376696
     10          6           0        4.282085   -0.547093   -2.599939
     11          6           0        5.423675   -2.026592   -4.332820
     12          6           0        3.063735   -3.723283   -1.961380
     13          6           0        1.875147   -3.146394   -1.156952
     14          6           0        0.475804   -3.407386   -1.626757
     15          8           0        0.148844   -3.903662   -2.719025
     16          8           0       -0.408435   -2.999758   -0.643442
     17          7           0        4.329685    2.324946   -1.624258
     18          6           0        3.970119    1.946329   -2.862989
     19          6           0        3.675598    3.131107   -3.643669
     20          6           0        3.883267    4.276223   -2.826218
     21          6           0        4.304894    3.668509   -1.506006
     22          6           0        3.189661    3.156974   -5.053258
     23          6           0        3.642521    5.669580   -3.180708
     24          8           0        3.412948    6.044659   -4.336125
     25          6           0        3.851040    6.760161   -2.192403
     26          7           0        5.273358    2.641701    1.312096
     27          6           0        5.078347    3.909384    1.008248
     28          6           0        5.209330    4.801973    2.297460
     29          6           0        5.761135    3.773297    3.305541
     30          6           0        5.640629    2.495525    2.594669
     31          6           0        6.093858    6.086996    2.053788
     32          6           0        4.867206    3.907316    4.557856
     33          6           0        5.502501    3.680972    5.857651
     34          7           0        5.304388   -0.208200    1.568204
     35          6           0        5.601130    0.022311    2.871214
     36          6           0        5.709758   -1.213211    3.623844
     37          6           0        5.469223   -2.202345    2.639951
     38          6           0        5.228869   -1.575074    1.430269
     39          6           0        6.128701   -1.346371    5.071447
     40          6           0        5.324164   -3.699051    2.470004
     41          8           0        5.515610   -4.616248    3.240846
     42          6           0        4.814983   -3.820074    0.939229
     43          6           0        5.634015   -4.833178    0.249741
     44          8           0        5.253364   -5.878982   -0.227935
     45          8           0        6.939381   -4.359985    0.218998
     46          6           0        7.616622   -4.987099   -0.868809
     47          6           0       -1.834369   -3.335361   -0.692562
     48          6           0       -2.653736   -2.127437   -0.635269
     49          6           0       -3.537682   -1.530259   -1.508138
     50          6           0       -3.614518   -1.867626   -3.043583
     51          6           0       -4.316392   -0.273885   -1.054450
     52          6           0       -5.828171   -0.319783   -0.825661
     53          6           0       -6.071048   -0.759865    0.603694
     54          6           0       -7.459064   -0.255139    1.207238
     55          6           0       -7.302973    0.345992    2.632366
     56          6           0       -8.529872   -1.359562    1.200348
     57          6           0       -9.753249   -0.887155    0.453621
     58          6           0      -10.932592   -1.689022    1.023850
     59          6           0      -12.129776   -0.788515    1.483866
     60          6           0      -12.725835   -1.323366    2.845344
     61          6           0      -13.188964   -0.645477    0.384436
     62          6           0      -13.823137    0.790666    0.175378
     63          6           0      -15.343345    0.826360    0.247471
     64          6           0      -15.826336    2.212112   -0.172811
     65          6           0      -17.188224    2.425824    0.497621
     66          6           0      -15.870796    2.448377   -1.670353
     67          1           0        3.476540    0.396346   -4.281909
     68          1           0        4.596465    5.398682   -0.175774
     69          1           0        6.175166    1.324993    4.329554
     70          1           0        5.074551   -3.572052   -2.390701
     71          1           0        3.291734   -1.909955   -3.960699
     72          1           0        6.224746   -2.746083   -4.163831
     73          1           0        6.094277   -1.190956   -4.135800
     74          1           0        5.036042   -2.023587   -5.351418
     75          1           0        3.385448   -4.606594   -1.409307
     76          1           0        2.792949   -4.009925   -2.977105
     77          1           0        2.037765   -2.069671   -1.115722
     78          1           0        1.836254   -3.513378   -0.130864
     79          1           0        3.375512    2.168643   -5.472299
     80          1           0        3.703414    3.833394   -5.736641
     81          1           0        2.118250    3.351782   -5.006321
     82          1           0        4.911927    6.837302   -1.955825
     83          1           0        3.283520    6.489561   -1.301498
     84          1           0        3.580525    7.694544   -2.683718
     85          1           0        4.171723    5.118975    2.402459
     86          1           0        6.792664    4.054196    3.518414
     87          1           0        6.865184    6.169652    2.818101
     88          1           0        5.432457    6.949048    2.145810
     89          1           0        6.596278    6.100325    1.086074
     90          1           0        4.030151    3.218585    4.442870
     91          1           0        4.490234    4.929048    4.606622
     92          1           0        6.033399    4.600712    6.105694
     93          1           0        6.169022    2.819352    5.862683
     94          1           0        4.795834    3.555312    6.679027
     95          1           0        6.603581   -0.479715    5.529802
     96          1           0        6.839701   -2.173081    5.072494
     97          1           0        5.208507   -1.489883    5.637740
     98          1           0        3.792686   -4.183739    1.040544
     99          1           0        8.563006   -4.534660   -1.167422
    100          1           0        7.022017   -4.868521   -1.774751
    101          1           0        7.831902   -6.018868   -0.591695
    102          1           0       -2.053675   -4.049912    0.100840
    103          1           0       -2.110236   -3.954911   -1.545980
    104          1           0       -2.498551   -1.676590    0.345270
    105          1           0       -4.665643   -2.008246   -3.295941
    106          1           0       -3.030742   -2.716821   -3.398015
    107          1           0       -3.485345   -0.976612   -3.658206
    108          1           0       -4.201314    0.605958   -1.688114
    109          1           0       -3.803578    0.127754   -0.180045
    110          1           0       -6.362478   -1.028074   -1.459557
    111          1           0       -6.409909    0.562889   -1.089405
    112          1           0       -5.213770   -0.475670    1.213929
    113          1           0       -6.096739   -1.844412    0.711538
    114          1           0       -7.672957    0.653043    0.643112
    115          1           0       -8.229469    0.541931    3.171867
    116          1           0       -6.820158    1.321534    2.676762
    117          1           0       -6.611394   -0.355070    3.100781
    118          1           0       -8.731745   -1.577779    2.249136
    119          1           0       -8.076258   -2.241780    0.747730
    120          1           0       -9.739597   -1.092227   -0.617048
    121          1           0      -10.010816    0.171137    0.478368
    122          1           0      -10.652500   -2.471403    1.728810
    123          1           0      -11.114173   -2.270873    0.119698
    124          1           0      -11.665557    0.182530    1.657212
    125          1           0      -12.432385   -2.336069    3.122577
    126          1           0      -13.813295   -1.275278    2.916871
    127          1           0      -12.384363   -0.639205    3.621642
    128          1           0      -14.033677   -1.290299    0.626334
    129          1           0      -12.733249   -0.992053   -0.543377
    130          1           0      -13.431227    1.232060   -0.740200
    131          1           0      -13.409269    1.411764    0.970115
    132          1           0      -15.810643    0.614261    1.208643
    133          1           0      -15.845340    0.113639   -0.406852
    134          1           0      -15.157645    2.921013    0.315669
    135          1           0      -17.926033    1.792791    0.004711
    136          1           0      -17.570670    3.445191    0.454037
    137          1           0      -17.130751    2.255178    1.572525
    138          1           0      -15.376688    3.389675   -1.910797
    139          1           0      -16.896485    2.593776   -2.009660
    140          1           0      -15.344420    1.666787   -2.217484
 ---------------------------------------------------------------------

 SCF Done:  E(RZINDO/S) =  -474.698515755     A.U. after   19 cycles

 Excitation energies and oscillator strengths:

 Excited State   1:      Singlet-A      1.3328 eV  930.25 nm  f=0.5665  <S**2>=0.000
     175 ->178        -0.20452
     176 ->177         0.65989
 This state for optimization and/or second-order correction.
 Total Energy, E(CIS/TDA) =  -474.649536011
 Copying the excited state density for this state as the 1-particle RhoCI density.

 Excited State   2:      Singlet-A      1.9401 eV  639.04 nm  f=0.0110  <S**2>=0.000
     175 ->177         0.50864
     176 ->178         0.46892

 Excited State   3:      Singlet-A      2.8565 eV  434.04 nm  f=0.0002  <S**2>=0.000
     169 ->177         0.29227
     169 ->179        -0.40743
     169 ->180         0.24227
     169 ->186        -0.18940
     169 ->187        -0.11896
     169 ->194         0.12622
     170 ->177        -0.11838
     170 ->179         0.15882

 Excited State   4:      Singlet-A      3.0477 eV  406.81 nm  f=1.1295  <S**2>=0.000
     175 ->177        -0.41115
     176 ->178         0.45843
     176 ->179        -0.23286
     176 ->180        -0.15720

 Excited State   5:      Singlet-A      3.1034 eV  399.52 nm  f=0.2119  <S**2>=0.000
     170 ->180         0.11092
     175 ->177        -0.15469
     176 ->178         0.18060
     176 ->179         0.58237

 The electronic state is 1-A.
 Alpha  occ. eigenvalues --   -1.86105  -1.84621  -1.82702  -1.75379  -1.73952
 Alpha  occ. eigenvalues --   -1.70411  -1.65310  -1.61673  -1.60572  -1.57320
 Alpha  occ. eigenvalues --   -1.56054  -1.52009  -1.50761  -1.48227  -1.47709
 Alpha  occ. eigenvalues --   -1.46964  -1.43862  -1.41091  -1.40164  -1.38364
 Alpha  occ. eigenvalues --   -1.37157  -1.33976  -1.32824  -1.31636  -1.29392
 Alpha  occ. eigenvalues --   -1.28103  -1.27479  -1.24171  -1.23033  -1.18742
 Alpha  occ. eigenvalues --   -1.16788  -1.16766  -1.14880  -1.14367  -1.13108
 Alpha  occ. eigenvalues --   -1.13006  -1.10472  -1.09179  -1.05792  -1.04559
 Alpha  occ. eigenvalues --   -1.04044  -1.01791  -1.01334  -0.98601  -0.97498
 Alpha  occ. eigenvalues --   -0.96701  -0.95117  -0.94264  -0.93750  -0.93181
 Alpha  occ. eigenvalues --   -0.91915  -0.90851  -0.89129  -0.87699  -0.86995
 Alpha  occ. eigenvalues --   -0.86946  -0.84958  -0.84226  -0.83424  -0.81616
 Alpha  occ. eigenvalues --   -0.80118  -0.78832  -0.78393  -0.77690  -0.76851
 Alpha  occ. eigenvalues --   -0.76656  -0.76002  -0.74429  -0.73820  -0.73578
 Alpha  occ. eigenvalues --   -0.73037  -0.72527  -0.72338  -0.72258  -0.70873
 Alpha  occ. eigenvalues --   -0.70026  -0.69219  -0.69041  -0.68753  -0.68435
 Alpha  occ. eigenvalues --   -0.68044  -0.67394  -0.67145  -0.66377  -0.66160
 Alpha  occ. eigenvalues --   -0.65784  -0.65125  -0.64989  -0.64598  -0.64023
 Alpha  occ. eigenvalues --   -0.63607  -0.63180  -0.62924  -0.62843  -0.62311
 Alpha  occ. eigenvalues --   -0.62135  -0.62026  -0.60211  -0.59455  -0.59204
 Alpha  occ. eigenvalues --   -0.58993  -0.58622  -0.58202  -0.57908  -0.57727
 Alpha  occ. eigenvalues --   -0.57442  -0.57244  -0.57046  -0.56955  -0.56701
 Alpha  occ. eigenvalues --   -0.56487  -0.56195  -0.55785  -0.55347  -0.54988
 Alpha  occ. eigenvalues --   -0.54949  -0.54401  -0.54066  -0.53016  -0.52879
 Alpha  occ. eigenvalues --   -0.52748  -0.52588  -0.52173  -0.51770  -0.51331
 Alpha  occ. eigenvalues --   -0.51182  -0.50975  -0.50879  -0.50732  -0.50222
 Alpha  occ. eigenvalues --   -0.50034  -0.49895  -0.49660  -0.49148  -0.49070
 Alpha  occ. eigenvalues --   -0.48782  -0.48560  -0.48103  -0.48012  -0.47707
 Alpha  occ. eigenvalues --   -0.47366  -0.46945  -0.46716  -0.46514  -0.46186
 Alpha  occ. eigenvalues --   -0.45831  -0.45688  -0.45464  -0.45279  -0.45231
 Alpha  occ. eigenvalues --   -0.45103  -0.44995  -0.44561  -0.44514  -0.44251
 Alpha  occ. eigenvalues --   -0.44110  -0.43509  -0.42987  -0.42868  -0.42643
 Alpha  occ. eigenvalues --   -0.42230  -0.41649  -0.39914  -0.39461  -0.39140
 Alpha  occ. eigenvalues --   -0.38838  -0.37363  -0.35796  -0.35445  -0.35288
 Alpha  occ. eigenvalues --   -0.33996  -0.33048  -0.32533  -0.32481  -0.27183
 Alpha  occ. eigenvalues --   -0.22281
 Alpha virt. eigenvalues --   -0.08476  -0.02939  -0.00963   0.00951   0.01506
 Alpha virt. eigenvalues --    0.01633   0.02363   0.02473   0.03778   0.04500
 Alpha virt. eigenvalues --    0.05912   0.06432   0.06932   0.07201   0.07948

 Mulliken charges:
               1
     1  Mg   0.428895
     2  C   -0.035885
     3  C   -0.071957
     4  C   -0.112019
     5  C   -0.074157
     6  N   -0.245499
     7  C    0.093575
     8  C    0.008661
     9  C    0.003119
    10  C    0.130648
    11  C   -0.060135
    12  C   -0.019679
    13  C    0.008126
    14  C    0.472678
    15  O   -0.526172
    16  O   -0.277099
    17  N   -0.312924
    18  C    0.119751
    19  C    0.062133
    20  C   -0.059678
    21  C    0.142560
    22  C   -0.034159
    23  C    0.331738
    24  O   -0.539124
    25  C   -0.029877
    26  N   -0.268315
    27  C    0.145895
    28  C   -0.003457
    29  C    0.012802
    30  C    0.122107
    31  C   -0.055334
    32  C   -0.019952
    33  C   -0.052517
    34  N   -0.341043
    35  C    0.097898
    36  C    0.004456
    37  C   -0.052035
    38  C    0.090035
    39  C   -0.037427
    40  C    0.325616
    41  O   -0.493005
    42  C    0.047185
    43  C    0.495537
    44  O   -0.512010
    45  O   -0.268566
    46  C    0.078810
    47  C    0.117266
    48  C   -0.067729
    49  C   -0.006813
    50  C   -0.048056
    51  C   -0.017655
    52  C   -0.024360
    53  C   -0.040649
    54  C   -0.028491
    55  C   -0.064608
    56  C   -0.019721
    57  C   -0.033253
    58  C   -0.051488
    59  C   -0.007740
    60  C   -0.061718
    61  C   -0.039609
    62  C   -0.034983
    63  C   -0.027567
    64  C   -0.009407
    65  C   -0.058213
    66  C   -0.051868
    67  H    0.032711
    68  H    0.013398
    69  H    0.024039
    70  H    0.027991
    71  H    0.040014
    72  H    0.034230
    73  H    0.014399
    74  H    0.027352
    75  H    0.030883
    76  H    0.032177
    77  H    0.047609
    78  H    0.044560
    79  H    0.012163
    80  H    0.048178
    81  H    0.044627
    82  H    0.039445
    83  H    0.035460
    84  H    0.040577
    85  H    0.041176
    86  H    0.037618
    87  H    0.020723
    88  H    0.018966
    89  H    0.028067
    90  H    0.021816
    91  H    0.013352
    92  H    0.013008
    93  H    0.021849
    94  H    0.014774
    95  H    0.022193
    96  H    0.038644
    97  H    0.035759
    98  H    0.051369
    99  H    0.022989
   100  H    0.033051
   101  H    0.049903
   102  H    0.038727
   103  H    0.041851
   104  H    0.021404
   105  H    0.018643
   106  H    0.039423
   107  H    0.029854
   108  H    0.013273
   109  H    0.017100
   110  H    0.013582
   111  H    0.025364
   112  H    0.017261
   113  H    0.015715
   114  H    0.018010
   115  H    0.021108
   116  H    0.008296
   117  H    0.017823
   118  H    0.024862
   119  H    0.024801
   120  H    0.015400
   121  H    0.024064
   122  H    0.023371
   123  H    0.009951
   124  H    0.023744
   125  H    0.024503
   126  H    0.016863
   127  H    0.011625
   128  H    0.018323
   129  H    0.017817
   130  H    0.023200
   131  H    0.016502
   132  H    0.022039
   133  H    0.015406
   134  H    0.015077
   135  H    0.019206
   136  H    0.007562
   137  H    0.014164
   138  H    0.011960
   139  H    0.021537
   140  H    0.021979
 Sum of Mulliken charges =  -0.00000

 Dipole moment (field-independent basis, Debye):
    X=              1.0965    Y=              7.0633    Z=              1.1168  Tot=              7.2346
 N-N= 4.310968486794D+03 E-N= 0.000000000000D+00  KE=-9.295752710224D+03
 Leave Link  601 at Wed May  4 03:25:48 2022, MaxMem=  6710886400 cpu:               0.8 elap:               0.1
 (Enter /sw/apps/gaussian-16.0/g16/l9999.exe)
 1\1\GINC-BP1-COMPUTE067\SP\RZINDO CIS\STO-3G\C55H74Mg1N4O6\OF15641\04-
 May-2022\0\\#p ZINDO=(nstates=5)\\step_1301_chromophore_14 ZINDO\\0,1\
 Mg,0,45.627,44.497,43.17\C,0,42.196,44.148,42.958\C,0,46.007,41.232,42
 .482\C,0,48.846,45.12,42.817\C,0,45.054,48.006,43.425\N,0,44.223,42.92
 7,42.833\C,0,42.904,42.935,42.958\C,0,42.336,41.488,42.79\C,0,43.595,4
 0.592,42.896\C,0,44.691,41.666,42.832\C,0,43.65,39.812,44.237\C,0,41.4
 78,41.339,41.587\C,0,41.867,42.078,40.285\C,0,41.753,41.362,38.973\O,0

 Normal termination of Gaussian 16 at Wed May  4 03:25:48 2022.
