 Gaussian 16, Revision A.03,
 Gaussian 16:  ES64L-G16RevA.03 25-Dec-2016

 ------------------------------
 #p blyp/Def2SVP td=(nstates=5)
 ------------------------------

 --------------------------------------------------
 step_701_chromophore_15 TDDFT with blyp functional
 --------------------------------------------------
 Symbolic Z-matrix:
 Charge =  0 Multiplicity = 1

                         Standard orientation:
 ---------------------------------------------------------------------
 Center     Atomic      Atomic             Coordinates (Angstroms)
 Number     Number       Type             X           Y           Z
 ---------------------------------------------------------------------
      1         12           0       -4.773927    0.949635   -0.036286
      2          6           0       -4.256344   -2.356994    0.838312
      3          6           0       -1.309759    1.418399   -0.272279
      4          6           0       -5.356250    4.237755   -0.152167
      5          6           0       -8.250827    0.553002    0.863264
      6          7           0       -3.007463   -0.267652    0.218428
      7          6           0       -3.110782   -1.657090    0.360475
      8          6           0       -1.774608   -2.313088   -0.098321
      9          6           0       -0.788789   -1.097259    0.090801
     10          6           0       -1.724083    0.132740    0.095173
     11          6           0        0.276128   -1.077926    1.196791
     12          6           0       -1.944216   -2.871339   -1.548193
     13          6           0       -0.890809   -3.840635   -2.006715
     14          6           0        0.396399   -4.022019   -1.147552
     15          8           0        0.506228   -4.786013   -0.188854
     16          8           0        1.506895   -3.343484   -1.660011
     17          7           0       -3.553463    2.556027   -0.399410
     18          6           0       -2.145064    2.506435   -0.418404
     19          6           0       -1.683817    3.886781   -0.849509
     20          6           0       -2.798217    4.773296   -0.744492
     21          6           0       -3.959228    3.875468   -0.396768
     22          6           0       -0.165428    4.333610   -1.362429
     23          6           0       -2.897825    6.267863   -0.871103
     24          8           0       -3.946523    6.844312   -0.683630
     25          6           0       -1.709757    7.198490   -1.004218
     26          7           0       -6.604860    2.182358    0.211210
     27          6           0       -6.553389    3.520602    0.090887
     28          6           0       -7.893377    4.154184    0.362311
     29          6           0       -8.851621    2.968448    0.331006
     30          6           0       -7.846160    1.851177    0.609790
     31          6           0       -7.854194    4.933039    1.684907
     32          6           0       -9.631773    2.692937   -0.981624
     33          6           0      -10.914668    1.914160   -0.806706
     34          7           0       -5.976182   -0.541843    0.806924
     35          6           0       -7.336439   -0.577806    0.993817
     36          6           0       -7.750455   -1.988702    1.224809
     37          6           0       -6.549712   -2.715875    1.258816
     38          6           0       -5.527747   -1.783250    1.042516
     39          6           0       -9.180092   -2.531629    1.430136
     40          6           0       -5.917849   -4.000989    1.508178
     41          8           0       -6.447366   -5.099767    1.643871
     42          6           0       -4.453346   -3.805095    1.486291
     43          6           0       -3.897140   -4.799110    0.561316
     44          8           0       -4.269088   -5.043615   -0.557590
     45          8           0       -2.815542   -5.390652    1.167657
     46          6           0       -2.159239   -6.538820    0.411592
     47          6           0        2.784967   -3.640782   -0.974657
     48          6           0        3.951013   -3.207402   -1.844115
     49          6           0        5.268368   -3.296861   -1.552546
     50          6           0        5.839132   -3.941899   -0.357015
     51          6           0        6.204407   -2.730020   -2.543499
     52          6           0        6.364436   -1.166358   -2.488726
     53          6           0        7.119585   -0.535288   -3.622978
     54          6           0        8.150265    0.494710   -3.130876
     55          6           0        8.884350    1.114066   -4.337482
     56          6           0        9.272571   -0.152863   -2.183230
     57          6           0        9.268001    0.435205   -0.730712
     58          6           0       10.683786    0.705443   -0.302987
     59          6           0       10.943512    2.179101   -0.191710
     60          6           0       11.697228    2.768262   -1.340265
     61          6           0       11.788448    2.454711    1.120924
     62          6           0       10.952950    2.514488    2.446347
     63          6           0       10.992109    1.146568    3.229364
     64          6           0       11.596261    1.399341    4.630219
     65          6           0       13.107489    1.061547    4.601715
     66          6           0       10.859192    0.566358    5.706869
     67          1           0       -0.243791    1.606554   -0.418954
     68          1           0       -5.398537    5.328171   -0.106974
     69          1           0       -9.305094    0.411190    1.110897
     70          1           0       -1.532855   -3.112578    0.600558
     71          1           0       -0.193220   -1.096332   -0.820983
     72          1           0        0.141730   -1.949763    1.837130
     73          1           0        0.080584   -0.173148    1.771526
     74          1           0        1.273576   -0.979022    0.767986
     75          1           0       -2.016739   -2.112547   -2.327037
     76          1           0       -2.893400   -3.376187   -1.724653
     77          1           0       -0.512270   -3.574159   -2.992816
     78          1           0       -1.290275   -4.803229   -2.326261
     79          1           0       -0.138012    4.773646   -2.359080
     80          1           0        0.390392    3.411212   -1.534508
     81          1           0        0.193589    4.969941   -0.554319
     82          1           0       -1.119558    7.006498   -1.900150
     83          1           0       -1.194587    7.012091   -0.062431
     84          1           0       -2.011725    8.244536   -1.059041
     85          1           0       -8.176175    4.857008   -0.421168
     86          1           0       -9.523779    3.108706    1.177823
     87          1           0       -8.251645    5.923261    1.462452
     88          1           0       -6.909153    5.271948    2.108526
     89          1           0       -8.484547    4.568280    2.496827
     90          1           0       -8.994744    2.142275   -1.674155
     91          1           0       -9.968416    3.663928   -1.343913
     92          1           0      -11.077834    1.370543    0.124111
     93          1           0      -10.982701    1.080256   -1.505171
     94          1           0      -11.783569    2.545278   -0.992749
     95          1           0       -9.930664   -1.784619    1.173249
     96          1           0       -9.320094   -2.923696    2.437615
     97          1           0       -9.340008   -3.380509    0.764685
     98          1           0       -3.971854   -3.944030    2.454441
     99          1           0       -1.178020   -6.781152    0.820622
    100          1           0       -2.054758   -6.253679   -0.635876
    101          1           0       -2.673128   -7.498394    0.465469
    102          1           0        3.007363   -4.706671   -0.917976
    103          1           0        2.844674   -3.248190    0.040290
    104          1           0        3.722902   -2.639389   -2.746271
    105          1           0        6.639431   -3.278176   -0.029618
    106          1           0        6.285351   -4.920976   -0.527954
    107          1           0        5.058578   -3.895572    0.401976
    108          1           0        5.753647   -2.973224   -3.504449
    109          1           0        7.228303   -3.097737   -2.470844
    110          1           0        6.784154   -0.974275   -1.501148
    111          1           0        5.337962   -0.802666   -2.440898
    112          1           0        6.411431    0.062755   -4.197669
    113          1           0        7.468438   -1.263214   -4.356083
    114          1           0        7.663884    1.338669   -2.643015
    115          1           0        9.816612    1.608414   -4.065224
    116          1           0        8.227945    1.833966   -4.826669
    117          1           0        9.154055    0.340961   -5.056900
    118          1           0       10.193406    0.004252   -2.744994
    119          1           0        9.184945   -1.235576   -2.086204
    120          1           0        8.773029   -0.232895   -0.026820
    121          1           0        8.642984    1.325319   -0.796330
    122          1           0       11.429393    0.293765   -0.982734
    123          1           0       10.805606    0.214875    0.663182
    124          1           0        9.971341    2.660662   -0.080367
    125          1           0       11.725869    2.040347   -2.151312
    126          1           0       12.733284    2.968840   -1.067662
    127          1           0       11.121259    3.587032   -1.772736
    128          1           0       12.337172    3.395520    1.086729
    129          1           0       12.609266    1.754472    1.274853
    130          1           0        9.890178    2.728582    2.330686
    131          1           0       11.324564    3.381830    2.991069
    132          1           0       11.624866    0.371975    2.796403
    133          1           0        9.978405    0.751745    3.281753
    134          1           0       11.345253    2.428934    4.889342
    135          1           0       13.218299    0.089514    5.083070
    136          1           0       13.724405    1.801985    5.110995
    137          1           0       13.450256    0.850278    3.588906
    138          1           0       10.810876   -0.488813    5.438352
    139          1           0        9.827126    0.888089    5.848559
    140          1           0       11.363306    0.683712    6.665779
 ---------------------------------------------------------------------

 SCF Done:  E(RB-LYP) =  -3007.36214041     A.U. after   22 cycles

 Excitation energies and oscillator strengths:

 Excited State   1:      Singlet-A      1.8183 eV  681.89 nm  f=0.2937  <S**2>=0.000
     245 -> 248        0.20933
     246 -> 247        0.68466
     246 <- 247       -0.14229
 This state for optimization and/or second-order correction.
 Total Energy, E(TD-HF/TD-DFT) =  -3007.29532085
 Copying the excited state density for this state as the 1-particle RhoCI density.

 Excited State   2:      Singlet-A      1.9522 eV  635.10 nm  f=0.0264  <S**2>=0.000
     243 -> 247        0.21503
     244 -> 247        0.46623
     245 -> 247       -0.45976
     246 -> 248        0.14314

 Excited State   3:      Singlet-A      2.0173 eV  614.62 nm  f=0.0053  <S**2>=0.000
     243 -> 247        0.53608
     244 -> 247       -0.42518
     245 -> 247       -0.15882

 Excited State   4:      Singlet-A      2.0812 eV  595.72 nm  f=0.0314  <S**2>=0.000
     243 -> 247        0.40352
     244 -> 247        0.31078
     245 -> 247        0.41956
     246 -> 248       -0.24213

 Excited State   5:      Singlet-A      2.3210 eV  534.18 nm  f=0.0001  <S**2>=0.000
     242 -> 247        0.70708

 The electronic state is 1-A.
 Alpha  occ. eigenvalues --  -46.27200 -18.83161 -18.81501 -18.77787 -18.76172
 Alpha  occ. eigenvalues --  -18.75461 -18.74879 -14.03369 -14.02607 -14.01608
 Alpha  occ. eigenvalues --  -14.00777 -10.05174 -10.03078  -9.99931  -9.98783
 Alpha  occ. eigenvalues --   -9.98599  -9.96860  -9.96764  -9.96760  -9.96481
 Alpha  occ. eigenvalues --   -9.96447  -9.96125  -9.95736  -9.95382  -9.95346
 Alpha  occ. eigenvalues --   -9.94449  -9.94216  -9.94047  -9.93890  -9.93857
 Alpha  occ. eigenvalues --   -9.93796  -9.93524  -9.93442  -9.93400  -9.93331
 Alpha  occ. eigenvalues --   -9.93215  -9.93119  -9.93028  -9.92881  -9.92538
 Alpha  occ. eigenvalues --   -9.92469  -9.92394  -9.92352  -9.92220  -9.92078
 Alpha  occ. eigenvalues --   -9.92057  -9.91896  -9.91804  -9.91797  -9.91774
 Alpha  occ. eigenvalues --   -9.91700  -9.91661  -9.91497  -9.91419  -9.91262
 Alpha  occ. eigenvalues --   -9.91247  -9.91196  -9.91162  -9.91041  -9.90966
 Alpha  occ. eigenvalues --   -9.90950  -9.90895  -9.90635  -9.90583  -9.90355
 Alpha  occ. eigenvalues --   -9.90304  -2.91815  -1.72238  -1.71697  -1.71527
 Alpha  occ. eigenvalues --   -0.97706  -0.96935  -0.92521  -0.90672  -0.89935
 Alpha  occ. eigenvalues --   -0.89157  -0.87007  -0.85927  -0.85182  -0.83739
 Alpha  occ. eigenvalues --   -0.75352  -0.74529  -0.73653  -0.72699  -0.72517
 Alpha  occ. eigenvalues --   -0.72122  -0.71354  -0.71324  -0.70595  -0.69226
 Alpha  occ. eigenvalues --   -0.69081  -0.68852  -0.68070  -0.67582  -0.66974
 Alpha  occ. eigenvalues --   -0.66519  -0.65614  -0.65103  -0.64765  -0.64643
 Alpha  occ. eigenvalues --   -0.64092  -0.62330  -0.62247  -0.61636  -0.61335
 Alpha  occ. eigenvalues --   -0.60801  -0.60062  -0.59726  -0.59442  -0.58755
 Alpha  occ. eigenvalues --   -0.58259  -0.57114  -0.56447  -0.55729  -0.54581
 Alpha  occ. eigenvalues --   -0.53815  -0.53453  -0.52764  -0.52378  -0.51450
 Alpha  occ. eigenvalues --   -0.51232  -0.51025  -0.50371  -0.50256  -0.50178
 Alpha  occ. eigenvalues --   -0.49742  -0.49363  -0.48990  -0.48012  -0.46350
 Alpha  occ. eigenvalues --   -0.46253  -0.45764  -0.45481  -0.45003  -0.44278
 Alpha  occ. eigenvalues --   -0.44090  -0.43005  -0.42816  -0.42518  -0.42137
 Alpha  occ. eigenvalues --   -0.42099  -0.41738  -0.41606  -0.41297  -0.40984
 Alpha  occ. eigenvalues --   -0.40882  -0.40639  -0.40332  -0.40163  -0.40087
 Alpha  occ. eigenvalues --   -0.39891  -0.39645  -0.39476  -0.39253  -0.39128
 Alpha  occ. eigenvalues --   -0.38956  -0.38739  -0.38699  -0.38480  -0.38429
 Alpha  occ. eigenvalues --   -0.38283  -0.37980  -0.37703  -0.37675  -0.37273
 Alpha  occ. eigenvalues --   -0.37223  -0.36779  -0.36666  -0.36367  -0.36301
 Alpha  occ. eigenvalues --   -0.36057  -0.35944  -0.35639  -0.35469  -0.35333
 Alpha  occ. eigenvalues --   -0.35270  -0.35040  -0.34926  -0.34839  -0.34649
 Alpha  occ. eigenvalues --   -0.34500  -0.34400  -0.34273  -0.34166  -0.34043
 Alpha  occ. eigenvalues --   -0.33869  -0.33724  -0.33496  -0.33334  -0.33052
 Alpha  occ. eigenvalues --   -0.32922  -0.32704  -0.32573  -0.32233  -0.32133
 Alpha  occ. eigenvalues --   -0.32004  -0.31917  -0.31807  -0.31627  -0.31460
 Alpha  occ. eigenvalues --   -0.31015  -0.30869  -0.30812  -0.30545  -0.30428
 Alpha  occ. eigenvalues --   -0.30328  -0.30288  -0.30007  -0.29529  -0.29498
 Alpha  occ. eigenvalues --   -0.29436  -0.29340  -0.29295  -0.29154  -0.29070
 Alpha  occ. eigenvalues --   -0.28852  -0.28777  -0.28454  -0.28315  -0.27790
 Alpha  occ. eigenvalues --   -0.27542  -0.27449  -0.27314  -0.27142  -0.26891
 Alpha  occ. eigenvalues --   -0.26501  -0.26437  -0.26184  -0.26031  -0.25622
 Alpha  occ. eigenvalues --   -0.25412  -0.24610  -0.24084  -0.23513  -0.23354
 Alpha  occ. eigenvalues --   -0.22698  -0.22308  -0.22024  -0.21482  -0.20803
 Alpha  occ. eigenvalues --   -0.20378  -0.19683  -0.18520  -0.18386  -0.16994
 Alpha  occ. eigenvalues --   -0.15537
 Alpha virt. eigenvalues --   -0.11154  -0.06848  -0.06184  -0.04611  -0.04258
 Alpha virt. eigenvalues --   -0.02900  -0.02134  -0.01995  -0.01419   0.00262
 Alpha virt. eigenvalues --    0.01113   0.01565   0.02153   0.02719   0.03098

 Mulliken charges:
               1
     1  Mg   0.704505
     2  C   -0.011694
     3  C   -0.088900
     4  C   -0.022658
     5  C   -0.082181
     6  N   -0.234180
     7  C   -0.074411
     8  C    0.015053
     9  C   -0.035827
    10  C    0.067180
    11  C    0.150573
    12  C    0.144190
    13  C    0.133162
    14  C    0.097296
    15  O   -0.201880
    16  O   -0.284552
    17  N   -0.331526
    18  C    0.170386
    19  C   -0.168823
    20  C    0.071479
    21  C    0.049094
    22  C    0.123727
    23  C   -0.090250
    24  O   -0.156259
    25  C    0.133349
    26  N   -0.178821
    27  C    0.042561
    28  C    0.032658
    29  C    0.033533
    30  C   -0.004771
    31  C    0.123309
    32  C    0.149931
    33  C    0.056976
    34  N   -0.245472
    35  C    0.103131
    36  C   -0.199243
    37  C    0.096899
    38  C    0.062740
    39  C    0.167168
    40  C   -0.070888
    41  O   -0.139629
    42  C    0.191693
    43  C    0.066850
    44  O   -0.168016
    45  O   -0.285288
    46  C    0.223333
    47  C    0.305004
    48  C   -0.119865
    49  C   -0.176706
    50  C    0.180992
    51  C    0.119084
    52  C    0.072245
    53  C    0.161150
    54  C   -0.093685
    55  C    0.097847
    56  C    0.080419
    57  C    0.070778
    58  C    0.142484
    59  C   -0.086453
    60  C    0.162424
    61  C    0.076761
    62  C    0.070454
    63  C    0.071511
    64  C   -0.090664
    65  C    0.123616
    66  C    0.090701
    67  H   -0.057417
    68  H   -0.046829
    69  H   -0.055822
    70  H   -0.014040
    71  H   -0.030566
    72  H    0.003680
    73  H   -0.016502
    74  H   -0.001442
    75  H   -0.034298
    76  H   -0.000001
    77  H   -0.029067
    78  H    0.003561
    79  H    0.016698
    80  H   -0.009244
    81  H    0.024888
    82  H    0.000406
    83  H    0.013084
    84  H   -0.007552
    85  H   -0.028833
    86  H   -0.048857
    87  H   -0.022576
    88  H   -0.003072
    89  H   -0.008146
    90  H   -0.008313
    91  H   -0.021296
    92  H   -0.012936
    93  H   -0.017013
    94  H   -0.009972
    95  H   -0.019593
    96  H    0.010667
    97  H    0.006398
    98  H    0.001583
    99  H    0.021124
   100  H    0.007569
   101  H    0.011367
   102  H    0.009680
   103  H    0.020811
   104  H   -0.034094
   105  H   -0.017712
   106  H    0.015689
   107  H   -0.019667
   108  H   -0.026092
   109  H   -0.039720
   110  H   -0.036375
   111  H   -0.047510
   112  H   -0.047952
   113  H   -0.034691
   114  H   -0.030402
   115  H   -0.016133
   116  H   -0.021262
   117  H   -0.021379
   118  H   -0.034948
   119  H   -0.033584
   120  H   -0.025193
   121  H   -0.030325
   122  H   -0.035129
   123  H   -0.043483
   124  H   -0.044706
   125  H   -0.037823
   126  H   -0.012506
   127  H   -0.017613
   128  H   -0.050467
   129  H   -0.034909
   130  H   -0.033426
   131  H   -0.026091
   132  H   -0.016636
   133  H   -0.041114
   134  H   -0.033904
   135  H   -0.027208
   136  H   -0.004371
   137  H   -0.019534
   138  H   -0.020077
   139  H   -0.022079
   140  H   -0.019315
 Sum of Mulliken charges =  -0.00000

 Dipole moment (field-independent basis, Debye):
    X=              4.4694    Y=              3.0672    Z=             -1.9295  Tot=              5.7538
 Quadrupole moment (field-independent basis, Debye-Ang):
   XX=           -386.8993   YY=           -434.0874   ZZ=           -405.1756
   XY=            -29.8356   XZ=              3.6572   YZ=              8.0269

 Normal termination of Gaussian 16 at Thu May  5 06:30:49 2022.
