 Gaussian 16, Revision A.03,
 Gaussian 16:  ES64L-G16RevA.03 25-Dec-2016

 -----------------------------------
 #p cam-b3lyp/Def2SVP td=(nstates=5)
 -----------------------------------

 -------------------------------------------------------
 step_701_chromophore_15 TDDFT with cam-b3lyp functional
 -------------------------------------------------------
 Symbolic Z-matrix:
 Charge =  0 Multiplicity = 1

                         Standard orientation:
 ---------------------------------------------------------------------
 Center     Atomic      Atomic             Coordinates (Angstroms)
 Number     Number       Type             X           Y           Z
 ---------------------------------------------------------------------
      1         12           0       -4.773927    0.949635   -0.036286
      2          6           0       -4.256344   -2.356994    0.838312
      3          6           0       -1.309759    1.418399   -0.272279
      4          6           0       -5.356250    4.237755   -0.152167
      5          6           0       -8.250827    0.553002    0.863264
      6          7           0       -3.007463   -0.267652    0.218428
      7          6           0       -3.110782   -1.657090    0.360475
      8          6           0       -1.774608   -2.313088   -0.098321
      9          6           0       -0.788789   -1.097259    0.090801
     10          6           0       -1.724083    0.132740    0.095173
     11          6           0        0.276128   -1.077926    1.196791
     12          6           0       -1.944216   -2.871339   -1.548193
     13          6           0       -0.890809   -3.840635   -2.006715
     14          6           0        0.396399   -4.022019   -1.147552
     15          8           0        0.506228   -4.786013   -0.188854
     16          8           0        1.506895   -3.343484   -1.660011
     17          7           0       -3.553463    2.556027   -0.399410
     18          6           0       -2.145064    2.506435   -0.418404
     19          6           0       -1.683817    3.886781   -0.849509
     20          6           0       -2.798217    4.773296   -0.744492
     21          6           0       -3.959228    3.875468   -0.396768
     22          6           0       -0.165428    4.333610   -1.362429
     23          6           0       -2.897825    6.267863   -0.871103
     24          8           0       -3.946523    6.844312   -0.683630
     25          6           0       -1.709757    7.198490   -1.004218
     26          7           0       -6.604860    2.182358    0.211210
     27          6           0       -6.553389    3.520602    0.090887
     28          6           0       -7.893377    4.154184    0.362311
     29          6           0       -8.851621    2.968448    0.331006
     30          6           0       -7.846160    1.851177    0.609790
     31          6           0       -7.854194    4.933039    1.684907
     32          6           0       -9.631773    2.692937   -0.981624
     33          6           0      -10.914668    1.914160   -0.806706
     34          7           0       -5.976182   -0.541843    0.806924
     35          6           0       -7.336439   -0.577806    0.993817
     36          6           0       -7.750455   -1.988702    1.224809
     37          6           0       -6.549712   -2.715875    1.258816
     38          6           0       -5.527747   -1.783250    1.042516
     39          6           0       -9.180092   -2.531629    1.430136
     40          6           0       -5.917849   -4.000989    1.508178
     41          8           0       -6.447366   -5.099767    1.643871
     42          6           0       -4.453346   -3.805095    1.486291
     43          6           0       -3.897140   -4.799110    0.561316
     44          8           0       -4.269088   -5.043615   -0.557590
     45          8           0       -2.815542   -5.390652    1.167657
     46          6           0       -2.159239   -6.538820    0.411592
     47          6           0        2.784967   -3.640782   -0.974657
     48          6           0        3.951013   -3.207402   -1.844115
     49          6           0        5.268368   -3.296861   -1.552546
     50          6           0        5.839132   -3.941899   -0.357015
     51          6           0        6.204407   -2.730020   -2.543499
     52          6           0        6.364436   -1.166358   -2.488726
     53          6           0        7.119585   -0.535288   -3.622978
     54          6           0        8.150265    0.494710   -3.130876
     55          6           0        8.884350    1.114066   -4.337482
     56          6           0        9.272571   -0.152863   -2.183230
     57          6           0        9.268001    0.435205   -0.730712
     58          6           0       10.683786    0.705443   -0.302987
     59          6           0       10.943512    2.179101   -0.191710
     60          6           0       11.697228    2.768262   -1.340265
     61          6           0       11.788448    2.454711    1.120924
     62          6           0       10.952950    2.514488    2.446347
     63          6           0       10.992109    1.146568    3.229364
     64          6           0       11.596261    1.399341    4.630219
     65          6           0       13.107489    1.061547    4.601715
     66          6           0       10.859192    0.566358    5.706869
     67          1           0       -0.243791    1.606554   -0.418954
     68          1           0       -5.398537    5.328171   -0.106974
     69          1           0       -9.305094    0.411190    1.110897
     70          1           0       -1.532855   -3.112578    0.600558
     71          1           0       -0.193220   -1.096332   -0.820983
     72          1           0        0.141730   -1.949763    1.837130
     73          1           0        0.080584   -0.173148    1.771526
     74          1           0        1.273576   -0.979022    0.767986
     75          1           0       -2.016739   -2.112547   -2.327037
     76          1           0       -2.893400   -3.376187   -1.724653
     77          1           0       -0.512270   -3.574159   -2.992816
     78          1           0       -1.290275   -4.803229   -2.326261
     79          1           0       -0.138012    4.773646   -2.359080
     80          1           0        0.390392    3.411212   -1.534508
     81          1           0        0.193589    4.969941   -0.554319
     82          1           0       -1.119558    7.006498   -1.900150
     83          1           0       -1.194587    7.012091   -0.062431
     84          1           0       -2.011725    8.244536   -1.059041
     85          1           0       -8.176175    4.857008   -0.421168
     86          1           0       -9.523779    3.108706    1.177823
     87          1           0       -8.251645    5.923261    1.462452
     88          1           0       -6.909153    5.271948    2.108526
     89          1           0       -8.484547    4.568280    2.496827
     90          1           0       -8.994744    2.142275   -1.674155
     91          1           0       -9.968416    3.663928   -1.343913
     92          1           0      -11.077834    1.370543    0.124111
     93          1           0      -10.982701    1.080256   -1.505171
     94          1           0      -11.783569    2.545278   -0.992749
     95          1           0       -9.930664   -1.784619    1.173249
     96          1           0       -9.320094   -2.923696    2.437615
     97          1           0       -9.340008   -3.380509    0.764685
     98          1           0       -3.971854   -3.944030    2.454441
     99          1           0       -1.178020   -6.781152    0.820622
    100          1           0       -2.054758   -6.253679   -0.635876
    101          1           0       -2.673128   -7.498394    0.465469
    102          1           0        3.007363   -4.706671   -0.917976
    103          1           0        2.844674   -3.248190    0.040290
    104          1           0        3.722902   -2.639389   -2.746271
    105          1           0        6.639431   -3.278176   -0.029618
    106          1           0        6.285351   -4.920976   -0.527954
    107          1           0        5.058578   -3.895572    0.401976
    108          1           0        5.753647   -2.973224   -3.504449
    109          1           0        7.228303   -3.097737   -2.470844
    110          1           0        6.784154   -0.974275   -1.501148
    111          1           0        5.337962   -0.802666   -2.440898
    112          1           0        6.411431    0.062755   -4.197669
    113          1           0        7.468438   -1.263214   -4.356083
    114          1           0        7.663884    1.338669   -2.643015
    115          1           0        9.816612    1.608414   -4.065224
    116          1           0        8.227945    1.833966   -4.826669
    117          1           0        9.154055    0.340961   -5.056900
    118          1           0       10.193406    0.004252   -2.744994
    119          1           0        9.184945   -1.235576   -2.086204
    120          1           0        8.773029   -0.232895   -0.026820
    121          1           0        8.642984    1.325319   -0.796330
    122          1           0       11.429393    0.293765   -0.982734
    123          1           0       10.805606    0.214875    0.663182
    124          1           0        9.971341    2.660662   -0.080367
    125          1           0       11.725869    2.040347   -2.151312
    126          1           0       12.733284    2.968840   -1.067662
    127          1           0       11.121259    3.587032   -1.772736
    128          1           0       12.337172    3.395520    1.086729
    129          1           0       12.609266    1.754472    1.274853
    130          1           0        9.890178    2.728582    2.330686
    131          1           0       11.324564    3.381830    2.991069
    132          1           0       11.624866    0.371975    2.796403
    133          1           0        9.978405    0.751745    3.281753
    134          1           0       11.345253    2.428934    4.889342
    135          1           0       13.218299    0.089514    5.083070
    136          1           0       13.724405    1.801985    5.110995
    137          1           0       13.450256    0.850278    3.588906
    138          1           0       10.810876   -0.488813    5.438352
    139          1           0        9.827126    0.888089    5.848559
    140          1           0       11.363306    0.683712    6.665779
 ---------------------------------------------------------------------

 SCF Done:  E(RCAM-B3LYP) =  -3007.15782954     A.U. after   17 cycles

 Excitation energies and oscillator strengths:

 Excited State   1:      Singlet-A      1.7348 eV  714.69 nm  f=0.3614  <S**2>=0.000
     245 -> 248       -0.18948
     246 -> 247        0.68248
     245 <- 248       -0.10892
 This state for optimization and/or second-order correction.
 Total Energy, E(TD-HF/TD-DFT) =  -3007.09407707
 Copying the excited state density for this state as the 1-particle RhoCI density.

 Excited State   2:      Singlet-A      2.2494 eV  551.19 nm  f=0.0823  <S**2>=0.000
     245 -> 247        0.62176
     246 -> 248        0.32619

 Excited State   3:      Singlet-A      3.4503 eV  359.34 nm  f=0.6052  <S**2>=0.000
     239 -> 247       -0.10606
     241 -> 247        0.17307
     242 -> 247       -0.19115
     245 -> 247       -0.28641
     246 -> 248        0.57719
     245 <- 247        0.10506

 Excited State   4:      Singlet-A      3.6027 eV  344.14 nm  f=0.0814  <S**2>=0.000
     240 -> 247        0.13918
     240 -> 249       -0.13180
     241 -> 247        0.14898
     242 -> 247       -0.33902
     243 -> 247        0.49339
     245 -> 247        0.10166
     246 -> 248       -0.17708

 Excited State   5:      Singlet-A      3.6431 eV  340.32 nm  f=0.0118  <S**2>=0.000
     239 -> 247       -0.11523
     240 -> 247        0.45782
     240 -> 249       -0.30249
     240 -> 250       -0.12588
     240 -> 251        0.10448
     243 -> 247       -0.33307

 The electronic state is 1-A.
 Alpha  occ. eigenvalues --  -46.88702 -19.26019 -19.24312 -19.20792 -19.19114
 Alpha  occ. eigenvalues --  -19.19034 -19.17806 -14.42346 -14.41310 -14.40256
 Alpha  occ. eigenvalues --  -14.38962 -10.40536 -10.38325 -10.35418 -10.33724
 Alpha  occ. eigenvalues --  -10.32652 -10.31697 -10.31333 -10.31247 -10.31110
 Alpha  occ. eigenvalues --  -10.30798 -10.30779 -10.30740 -10.29548 -10.29342
 Alpha  occ. eigenvalues --  -10.28898 -10.28526 -10.28290 -10.28063 -10.27911
 Alpha  occ. eigenvalues --  -10.27811 -10.27674 -10.27589 -10.27348 -10.27334
 Alpha  occ. eigenvalues --  -10.27191 -10.26950 -10.26894 -10.26530 -10.26401
 Alpha  occ. eigenvalues --  -10.26400 -10.26294 -10.26196 -10.26171 -10.25987
 Alpha  occ. eigenvalues --  -10.25980 -10.25851 -10.25496 -10.25468 -10.25442
 Alpha  occ. eigenvalues --  -10.25435 -10.25230 -10.25120 -10.25108 -10.25042
 Alpha  occ. eigenvalues --  -10.24945 -10.24916 -10.24852 -10.24703 -10.24650
 Alpha  occ. eigenvalues --  -10.24622 -10.24612 -10.24258 -10.24180 -10.24053
 Alpha  occ. eigenvalues --  -10.23929  -3.17220  -1.92120  -1.91671  -1.91525
 Alpha  occ. eigenvalues --   -1.16101  -1.15387  -1.11312  -1.08801  -1.07731
 Alpha  occ. eigenvalues --   -1.06915  -1.04637  -1.03426  -1.02677  -1.01467
 Alpha  occ. eigenvalues --   -0.92270  -0.91520  -0.90534  -0.89444  -0.89063
 Alpha  occ. eigenvalues --   -0.88870  -0.88054  -0.88001  -0.87105  -0.86077
 Alpha  occ. eigenvalues --   -0.85634  -0.85051  -0.84329  -0.83591  -0.83077
 Alpha  occ. eigenvalues --   -0.82583  -0.81580  -0.81330  -0.80750  -0.80539
 Alpha  occ. eigenvalues --   -0.79858  -0.78281  -0.77754  -0.77104  -0.76795
 Alpha  occ. eigenvalues --   -0.76093  -0.75423  -0.74987  -0.74771  -0.74023
 Alpha  occ. eigenvalues --   -0.73281  -0.71977  -0.71331  -0.70535  -0.69016
 Alpha  occ. eigenvalues --   -0.68424  -0.68022  -0.67350  -0.66793  -0.65745
 Alpha  occ. eigenvalues --   -0.65236  -0.65127  -0.64489  -0.64313  -0.63970
 Alpha  occ. eigenvalues --   -0.63567  -0.63391  -0.62931  -0.61599  -0.59975
 Alpha  occ. eigenvalues --   -0.59901  -0.59173  -0.58851  -0.58412  -0.57737
 Alpha  occ. eigenvalues --   -0.57388  -0.56358  -0.55916  -0.55547  -0.55339
 Alpha  occ. eigenvalues --   -0.55125  -0.54826  -0.54661  -0.54478  -0.54007
 Alpha  occ. eigenvalues --   -0.53759  -0.53382  -0.53218  -0.53033  -0.52778
 Alpha  occ. eigenvalues --   -0.52600  -0.52200  -0.52143  -0.51965  -0.51606
 Alpha  occ. eigenvalues --   -0.51550  -0.51183  -0.51134  -0.51057  -0.50858
 Alpha  occ. eigenvalues --   -0.50638  -0.50414  -0.50205  -0.49898  -0.49776
 Alpha  occ. eigenvalues --   -0.49583  -0.49288  -0.48915  -0.48810  -0.48665
 Alpha  occ. eigenvalues --   -0.48518  -0.48097  -0.47863  -0.47646  -0.47601
 Alpha  occ. eigenvalues --   -0.47385  -0.47151  -0.47123  -0.46843  -0.46567
 Alpha  occ. eigenvalues --   -0.46311  -0.46166  -0.46078  -0.45918  -0.45782
 Alpha  occ. eigenvalues --   -0.45598  -0.45406  -0.45270  -0.45000  -0.44617
 Alpha  occ. eigenvalues --   -0.44560  -0.44504  -0.44400  -0.44204  -0.43702
 Alpha  occ. eigenvalues --   -0.43644  -0.43498  -0.43457  -0.43245  -0.42986
 Alpha  occ. eigenvalues --   -0.42484  -0.42359  -0.42269  -0.42126  -0.41867
 Alpha  occ. eigenvalues --   -0.41656  -0.41573  -0.41430  -0.41230  -0.40851
 Alpha  occ. eigenvalues --   -0.40640  -0.40505  -0.40450  -0.40210  -0.40134
 Alpha  occ. eigenvalues --   -0.39760  -0.39749  -0.39470  -0.39370  -0.38755
 Alpha  occ. eigenvalues --   -0.38495  -0.38411  -0.38290  -0.37976  -0.37824
 Alpha  occ. eigenvalues --   -0.37691  -0.37587  -0.37229  -0.36604  -0.36454
 Alpha  occ. eigenvalues --   -0.36299  -0.35899  -0.34594  -0.34369  -0.34201
 Alpha  occ. eigenvalues --   -0.33973  -0.33023  -0.32707  -0.31310  -0.31116
 Alpha  occ. eigenvalues --   -0.30587  -0.30179  -0.29364  -0.29259  -0.23780
 Alpha  occ. eigenvalues --   -0.20788
 Alpha virt. eigenvalues --   -0.08094  -0.01744   0.00313   0.02131   0.02565
 Alpha virt. eigenvalues --    0.03678   0.05229   0.05496   0.06302   0.06886
 Alpha virt. eigenvalues --    0.07572   0.08123   0.08395   0.08967   0.09313

 Mulliken charges:
               1
     1  Mg   0.835783
     2  C   -0.031314
     3  C   -0.101624
     4  C   -0.051536
     5  C   -0.085020
     6  N   -0.302822
     7  C   -0.034366
     8  C   -0.045921
     9  C   -0.085536
    10  C    0.083794
    11  C    0.092012
    12  C    0.088780
    13  C    0.069814
    14  C    0.168182
    15  O   -0.240713
    16  O   -0.349566
    17  N   -0.418093
    18  C    0.176760
    19  C   -0.165696
    20  C   -0.004314
    21  C    0.084283
    22  C    0.078631
    23  C   -0.012697
    24  O   -0.195625
    25  C    0.057112
    26  N   -0.249020
    27  C    0.065736
    28  C   -0.025007
    29  C   -0.024237
    30  C    0.012149
    31  C    0.062534
    32  C    0.093281
    33  C   -0.005781
    34  N   -0.332505
    35  C    0.103145
    36  C   -0.202902
    37  C    0.022703
    38  C    0.090295
    39  C    0.122342
    40  C    0.028201
    41  O   -0.179766
    42  C    0.101308
    43  C    0.159345
    44  O   -0.205796
    45  O   -0.350438
    46  C    0.189895
    47  C    0.276717
    48  C   -0.139535
    49  C   -0.197055
    50  C    0.119306
    51  C    0.057563
    52  C    0.023665
    53  C    0.102209
    54  C   -0.148408
    55  C    0.042815
    56  C    0.028599
    57  C    0.018213
    58  C    0.084487
    59  C   -0.139420
    60  C    0.100293
    61  C    0.024276
    62  C    0.017174
    63  C    0.015574
    64  C   -0.147726
    65  C    0.060014
    66  C    0.033419
    67  H   -0.021324
    68  H   -0.006887
    69  H   -0.023208
    70  H    0.021667
    71  H    0.006287
    72  H    0.029465
    73  H    0.010582
    74  H    0.020920
    75  H   -0.002218
    76  H    0.034890
    77  H    0.007930
    78  H    0.035179
    79  H    0.042940
    80  H    0.018243
    81  H    0.049638
    82  H    0.027567
    83  H    0.038529
    84  H    0.029010
    85  H    0.008568
    86  H   -0.010990
    87  H    0.002991
    88  H    0.024086
    89  H    0.018018
    90  H    0.020388
    91  H    0.006173
    92  H    0.008165
    93  H    0.008395
    94  H    0.014138
    95  H    0.001661
    96  H    0.034185
    97  H    0.030878
    98  H    0.047980
    99  H    0.045533
   100  H    0.026404
   101  H    0.034214
   102  H    0.037954
   103  H    0.043128
   104  H    0.000680
   105  H    0.005785
   106  H    0.041038
   107  H    0.004130
   108  H    0.004592
   109  H   -0.010501
   110  H   -0.011947
   111  H   -0.017736
   112  H   -0.016747
   113  H   -0.004976
   114  H   -0.000031
   115  H    0.006292
   116  H    0.003671
   117  H    0.002702
   118  H   -0.007231
   119  H   -0.006242
   120  H    0.001761
   121  H   -0.003645
   122  H   -0.005346
   123  H   -0.013383
   124  H   -0.012077
   125  H   -0.016242
   126  H    0.013181
   127  H    0.007409
   128  H   -0.018712
   129  H   -0.009068
   130  H   -0.005225
   131  H    0.002449
   132  H    0.007260
   133  H   -0.010925
   134  H   -0.002632
   135  H   -0.001441
   136  H    0.020156
   137  H    0.003078
   138  H    0.002646
   139  H    0.002427
   140  H    0.005797
 Sum of Mulliken charges =  -0.00000

 Dipole moment (field-independent basis, Debye):
    X=              5.4335    Y=              4.0989    Z=             -2.2880  Tot=              7.1804
 Quadrupole moment (field-independent basis, Debye-Ang):
   XX=           -392.7657   YY=           -428.9223   ZZ=           -404.6699
   XY=            -32.8481   XZ=              4.2848   YZ=              7.4339

 Normal termination of Gaussian 16 at Thu May  5 05:28:56 2022.
