 Gaussian 16, Revision A.03,
 Gaussian 16:  ES64L-G16RevA.03 25-Dec-2016

 ---------------------------------
 #p PBE1PBE/Def2SVP td=(nstates=5)
 ---------------------------------

 -----------------------------------------------------
 step_701_chromophore_15 TDDFT with PBE1PBE functional
 -----------------------------------------------------
 Symbolic Z-matrix:
 Charge =  0 Multiplicity = 1

                         Standard orientation:
 ---------------------------------------------------------------------
 Center     Atomic      Atomic             Coordinates (Angstroms)
 Number     Number       Type             X           Y           Z
 ---------------------------------------------------------------------
      1         12           0       -4.773927    0.949635   -0.036286
      2          6           0       -4.256344   -2.356994    0.838312
      3          6           0       -1.309759    1.418399   -0.272279
      4          6           0       -5.356250    4.237755   -0.152167
      5          6           0       -8.250827    0.553002    0.863264
      6          7           0       -3.007463   -0.267652    0.218428
      7          6           0       -3.110782   -1.657090    0.360475
      8          6           0       -1.774608   -2.313088   -0.098321
      9          6           0       -0.788789   -1.097259    0.090801
     10          6           0       -1.724083    0.132740    0.095173
     11          6           0        0.276128   -1.077926    1.196791
     12          6           0       -1.944216   -2.871339   -1.548193
     13          6           0       -0.890809   -3.840635   -2.006715
     14          6           0        0.396399   -4.022019   -1.147552
     15          8           0        0.506228   -4.786013   -0.188854
     16          8           0        1.506895   -3.343484   -1.660011
     17          7           0       -3.553463    2.556027   -0.399410
     18          6           0       -2.145064    2.506435   -0.418404
     19          6           0       -1.683817    3.886781   -0.849509
     20          6           0       -2.798217    4.773296   -0.744492
     21          6           0       -3.959228    3.875468   -0.396768
     22          6           0       -0.165428    4.333610   -1.362429
     23          6           0       -2.897825    6.267863   -0.871103
     24          8           0       -3.946523    6.844312   -0.683630
     25          6           0       -1.709757    7.198490   -1.004218
     26          7           0       -6.604860    2.182358    0.211210
     27          6           0       -6.553389    3.520602    0.090887
     28          6           0       -7.893377    4.154184    0.362311
     29          6           0       -8.851621    2.968448    0.331006
     30          6           0       -7.846160    1.851177    0.609790
     31          6           0       -7.854194    4.933039    1.684907
     32          6           0       -9.631773    2.692937   -0.981624
     33          6           0      -10.914668    1.914160   -0.806706
     34          7           0       -5.976182   -0.541843    0.806924
     35          6           0       -7.336439   -0.577806    0.993817
     36          6           0       -7.750455   -1.988702    1.224809
     37          6           0       -6.549712   -2.715875    1.258816
     38          6           0       -5.527747   -1.783250    1.042516
     39          6           0       -9.180092   -2.531629    1.430136
     40          6           0       -5.917849   -4.000989    1.508178
     41          8           0       -6.447366   -5.099767    1.643871
     42          6           0       -4.453346   -3.805095    1.486291
     43          6           0       -3.897140   -4.799110    0.561316
     44          8           0       -4.269088   -5.043615   -0.557590
     45          8           0       -2.815542   -5.390652    1.167657
     46          6           0       -2.159239   -6.538820    0.411592
     47          6           0        2.784967   -3.640782   -0.974657
     48          6           0        3.951013   -3.207402   -1.844115
     49          6           0        5.268368   -3.296861   -1.552546
     50          6           0        5.839132   -3.941899   -0.357015
     51          6           0        6.204407   -2.730020   -2.543499
     52          6           0        6.364436   -1.166358   -2.488726
     53          6           0        7.119585   -0.535288   -3.622978
     54          6           0        8.150265    0.494710   -3.130876
     55          6           0        8.884350    1.114066   -4.337482
     56          6           0        9.272571   -0.152863   -2.183230
     57          6           0        9.268001    0.435205   -0.730712
     58          6           0       10.683786    0.705443   -0.302987
     59          6           0       10.943512    2.179101   -0.191710
     60          6           0       11.697228    2.768262   -1.340265
     61          6           0       11.788448    2.454711    1.120924
     62          6           0       10.952950    2.514488    2.446347
     63          6           0       10.992109    1.146568    3.229364
     64          6           0       11.596261    1.399341    4.630219
     65          6           0       13.107489    1.061547    4.601715
     66          6           0       10.859192    0.566358    5.706869
     67          1           0       -0.243791    1.606554   -0.418954
     68          1           0       -5.398537    5.328171   -0.106974
     69          1           0       -9.305094    0.411190    1.110897
     70          1           0       -1.532855   -3.112578    0.600558
     71          1           0       -0.193220   -1.096332   -0.820983
     72          1           0        0.141730   -1.949763    1.837130
     73          1           0        0.080584   -0.173148    1.771526
     74          1           0        1.273576   -0.979022    0.767986
     75          1           0       -2.016739   -2.112547   -2.327037
     76          1           0       -2.893400   -3.376187   -1.724653
     77          1           0       -0.512270   -3.574159   -2.992816
     78          1           0       -1.290275   -4.803229   -2.326261
     79          1           0       -0.138012    4.773646   -2.359080
     80          1           0        0.390392    3.411212   -1.534508
     81          1           0        0.193589    4.969941   -0.554319
     82          1           0       -1.119558    7.006498   -1.900150
     83          1           0       -1.194587    7.012091   -0.062431
     84          1           0       -2.011725    8.244536   -1.059041
     85          1           0       -8.176175    4.857008   -0.421168
     86          1           0       -9.523779    3.108706    1.177823
     87          1           0       -8.251645    5.923261    1.462452
     88          1           0       -6.909153    5.271948    2.108526
     89          1           0       -8.484547    4.568280    2.496827
     90          1           0       -8.994744    2.142275   -1.674155
     91          1           0       -9.968416    3.663928   -1.343913
     92          1           0      -11.077834    1.370543    0.124111
     93          1           0      -10.982701    1.080256   -1.505171
     94          1           0      -11.783569    2.545278   -0.992749
     95          1           0       -9.930664   -1.784619    1.173249
     96          1           0       -9.320094   -2.923696    2.437615
     97          1           0       -9.340008   -3.380509    0.764685
     98          1           0       -3.971854   -3.944030    2.454441
     99          1           0       -1.178020   -6.781152    0.820622
    100          1           0       -2.054758   -6.253679   -0.635876
    101          1           0       -2.673128   -7.498394    0.465469
    102          1           0        3.007363   -4.706671   -0.917976
    103          1           0        2.844674   -3.248190    0.040290
    104          1           0        3.722902   -2.639389   -2.746271
    105          1           0        6.639431   -3.278176   -0.029618
    106          1           0        6.285351   -4.920976   -0.527954
    107          1           0        5.058578   -3.895572    0.401976
    108          1           0        5.753647   -2.973224   -3.504449
    109          1           0        7.228303   -3.097737   -2.470844
    110          1           0        6.784154   -0.974275   -1.501148
    111          1           0        5.337962   -0.802666   -2.440898
    112          1           0        6.411431    0.062755   -4.197669
    113          1           0        7.468438   -1.263214   -4.356083
    114          1           0        7.663884    1.338669   -2.643015
    115          1           0        9.816612    1.608414   -4.065224
    116          1           0        8.227945    1.833966   -4.826669
    117          1           0        9.154055    0.340961   -5.056900
    118          1           0       10.193406    0.004252   -2.744994
    119          1           0        9.184945   -1.235576   -2.086204
    120          1           0        8.773029   -0.232895   -0.026820
    121          1           0        8.642984    1.325319   -0.796330
    122          1           0       11.429393    0.293765   -0.982734
    123          1           0       10.805606    0.214875    0.663182
    124          1           0        9.971341    2.660662   -0.080367
    125          1           0       11.725869    2.040347   -2.151312
    126          1           0       12.733284    2.968840   -1.067662
    127          1           0       11.121259    3.587032   -1.772736
    128          1           0       12.337172    3.395520    1.086729
    129          1           0       12.609266    1.754472    1.274853
    130          1           0        9.890178    2.728582    2.330686
    131          1           0       11.324564    3.381830    2.991069
    132          1           0       11.624866    0.371975    2.796403
    133          1           0        9.978405    0.751745    3.281753
    134          1           0       11.345253    2.428934    4.889342
    135          1           0       13.218299    0.089514    5.083070
    136          1           0       13.724405    1.801985    5.110995
    137          1           0       13.450256    0.850278    3.588906
    138          1           0       10.810876   -0.488813    5.438352
    139          1           0        9.827126    0.888089    5.848559
    140          1           0       11.363306    0.683712    6.665779
 ---------------------------------------------------------------------

 SCF Done:  E(RPBE1PBE) =  -3005.34456272     A.U. after   15 cycles

 Excitation energies and oscillator strengths:

 Excited State   1:      Singlet-A      1.8714 eV  662.53 nm  f=0.3536  <S**2>=0.000
     245 -> 248       -0.18731
     246 -> 247        0.68867
 This state for optimization and/or second-order correction.
 Total Energy, E(TD-HF/TD-DFT) =  -3005.27579090
 Copying the excited state density for this state as the 1-particle RhoCI density.

 Excited State   2:      Singlet-A      2.2527 eV  550.37 nm  f=0.0831  <S**2>=0.000
     245 -> 247        0.63655
     246 -> 248        0.30081

 Excited State   3:      Singlet-A      3.1321 eV  395.85 nm  f=0.0021  <S**2>=0.000
     240 -> 247        0.11802
     241 -> 247        0.53559
     241 -> 249       -0.18166
     242 -> 247       -0.37465

 Excited State   4:      Singlet-A      3.1487 eV  393.77 nm  f=0.0167  <S**2>=0.000
     241 -> 247        0.33305
     242 -> 247        0.46269
     242 -> 249        0.14748
     242 -> 250        0.10427
     243 -> 247        0.31686
     246 -> 248        0.11968

 Excited State   5:      Singlet-A      3.2227 eV  384.72 nm  f=0.0006  <S**2>=0.000
     240 -> 247       -0.14896
     241 -> 247       -0.14330
     242 -> 247       -0.30734
     243 -> 247        0.59241

 The electronic state is 1-A.
 Alpha  occ. eigenvalues --  -46.92125 -19.26713 -19.25033 -19.21054 -19.19394
 Alpha  occ. eigenvalues --  -19.19019 -19.18245 -14.41817 -14.40858 -14.39836
 Alpha  occ. eigenvalues --  -14.38760 -10.37634 -10.35401 -10.32318 -10.31053
 Alpha  occ. eigenvalues --  -10.30074 -10.29151 -10.29114 -10.28743 -10.28724
 Alpha  occ. eigenvalues --  -10.28308 -10.28135 -10.28076 -10.27644 -10.27274
 Alpha  occ. eigenvalues --  -10.26423 -10.26091 -10.25942 -10.25703 -10.25672
 Alpha  occ. eigenvalues --  -10.25637 -10.25454 -10.25331 -10.25312 -10.24963
 Alpha  occ. eigenvalues --  -10.24852 -10.24789 -10.24567 -10.24146 -10.24111
 Alpha  occ. eigenvalues --  -10.24103 -10.23871 -10.23680 -10.23548 -10.23481
 Alpha  occ. eigenvalues --  -10.23409 -10.23351 -10.23161 -10.23130 -10.22973
 Alpha  occ. eigenvalues --  -10.22922 -10.22757 -10.22634 -10.22634 -10.22631
 Alpha  occ. eigenvalues --  -10.22603 -10.22470 -10.22384 -10.22285 -10.22187
 Alpha  occ. eigenvalues --  -10.22045 -10.22025 -10.22011 -10.21631 -10.21531
 Alpha  occ. eigenvalues --  -10.21453  -3.14222  -1.87061  -1.86591  -1.86449
 Alpha  occ. eigenvalues --   -1.10899  -1.10186  -1.05829  -1.03723  -1.02599
 Alpha  occ. eigenvalues --   -1.01814  -0.99310  -0.98157  -0.97393  -0.95939
 Alpha  occ. eigenvalues --   -0.86789  -0.85650  -0.84615  -0.83658  -0.83406
 Alpha  occ. eigenvalues --   -0.82962  -0.82323  -0.82103  -0.81438  -0.80066
 Alpha  occ. eigenvalues --   -0.79852  -0.79575  -0.78481  -0.77952  -0.77348
 Alpha  occ. eigenvalues --   -0.76832  -0.75769  -0.75368  -0.74931  -0.74737
 Alpha  occ. eigenvalues --   -0.74248  -0.72337  -0.72101  -0.71397  -0.70959
 Alpha  occ. eigenvalues --   -0.70448  -0.69491  -0.69360  -0.68893  -0.68162
 Alpha  occ. eigenvalues --   -0.67599  -0.66492  -0.65759  -0.64850  -0.63434
 Alpha  occ. eigenvalues --   -0.62901  -0.62240  -0.61737  -0.61026  -0.59929
 Alpha  occ. eigenvalues --   -0.59677  -0.59580  -0.58871  -0.58568  -0.58490
 Alpha  occ. eigenvalues --   -0.58162  -0.57522  -0.57109  -0.56261  -0.54437
 Alpha  occ. eigenvalues --   -0.54367  -0.53791  -0.53331  -0.53040  -0.52244
 Alpha  occ. eigenvalues --   -0.52072  -0.50847  -0.50259  -0.50146  -0.49820
 Alpha  occ. eigenvalues --   -0.49738  -0.49315  -0.49149  -0.48999  -0.48503
 Alpha  occ. eigenvalues --   -0.48253  -0.47857  -0.47560  -0.47444  -0.47265
 Alpha  occ. eigenvalues --   -0.47158  -0.46727  -0.46632  -0.46525  -0.46262
 Alpha  occ. eigenvalues --   -0.46028  -0.45682  -0.45604  -0.45529  -0.45397
 Alpha  occ. eigenvalues --   -0.45262  -0.45014  -0.44854  -0.44482  -0.44329
 Alpha  occ. eigenvalues --   -0.44200  -0.43872  -0.43530  -0.43392  -0.43309
 Alpha  occ. eigenvalues --   -0.43103  -0.42691  -0.42469  -0.42210  -0.42103
 Alpha  occ. eigenvalues --   -0.42068  -0.41822  -0.41751  -0.41514  -0.41267
 Alpha  occ. eigenvalues --   -0.41111  -0.40836  -0.40752  -0.40650  -0.40432
 Alpha  occ. eigenvalues --   -0.40270  -0.40040  -0.39986  -0.39805  -0.39449
 Alpha  occ. eigenvalues --   -0.39337  -0.39259  -0.39094  -0.38809  -0.38458
 Alpha  occ. eigenvalues --   -0.38376  -0.38272  -0.38150  -0.38057  -0.37835
 Alpha  occ. eigenvalues --   -0.37278  -0.37176  -0.37046  -0.36950  -0.36754
 Alpha  occ. eigenvalues --   -0.36532  -0.36289  -0.36188  -0.36145  -0.35683
 Alpha  occ. eigenvalues --   -0.35488  -0.35354  -0.35269  -0.35101  -0.34890
 Alpha  occ. eigenvalues --   -0.34744  -0.34466  -0.34279  -0.34251  -0.33670
 Alpha  occ. eigenvalues --   -0.33395  -0.33161  -0.33107  -0.32823  -0.32777
 Alpha  occ. eigenvalues --   -0.32557  -0.32488  -0.32001  -0.31681  -0.31504
 Alpha  occ. eigenvalues --   -0.31113  -0.30936  -0.29509  -0.29479  -0.29183
 Alpha  occ. eigenvalues --   -0.28906  -0.28263  -0.27996  -0.26797  -0.25965
 Alpha  occ. eigenvalues --   -0.25592  -0.25370  -0.25213  -0.24563  -0.20680
 Alpha  occ. eigenvalues --   -0.18423
 Alpha virt. eigenvalues --   -0.10645  -0.05230  -0.03862  -0.02018  -0.01049
 Alpha virt. eigenvalues --   -0.00536   0.00795   0.00972   0.01621   0.03296
 Alpha virt. eigenvalues --    0.04088   0.04398   0.04747   0.05633   0.06107

 Mulliken charges:
               1
     1  Mg   0.983323
     2  C   -0.036707
     3  C   -0.089246
     4  C   -0.046044
     5  C   -0.076865
     6  N   -0.406249
     7  C    0.036582
     8  C   -0.129371
     9  C   -0.153564
    10  C    0.117126
    11  C    0.033461
    12  C    0.042657
    13  C    0.005143
    14  C    0.225506
    15  O   -0.271576
    16  O   -0.380115
    17  N   -0.523734
    18  C    0.178822
    19  C   -0.171924
    20  C   -0.064768
    21  C    0.118136
    22  C    0.018915
    23  C    0.035957
    24  O   -0.233439
    25  C   -0.016513
    26  N   -0.347623
    27  C    0.095137
    28  C   -0.108377
    29  C   -0.099907
    30  C    0.052778
    31  C    0.012348
    32  C    0.029452
    33  C   -0.073563
    34  N   -0.457257
    35  C    0.126323
    36  C   -0.216659
    37  C   -0.020789
    38  C    0.137409
    39  C    0.068571
    40  C    0.128319
    41  O   -0.223709
    42  C   -0.026672
    43  C    0.262628
    44  O   -0.242724
    45  O   -0.383579
    46  C    0.131211
    47  C    0.238928
    48  C   -0.149743
    49  C   -0.237277
    50  C    0.052832
    51  C   -0.013322
    52  C   -0.039652
    53  C    0.048105
    54  C   -0.237504
    55  C   -0.021365
    56  C   -0.021095
    57  C   -0.044194
    58  C    0.026340
    59  C   -0.225749
    60  C    0.039809
    61  C   -0.036483
    62  C   -0.037030
    63  C   -0.040030
    64  C   -0.239667
    65  C   -0.001270
    66  C   -0.030055
    67  H    0.009963
    68  H    0.026397
    69  H    0.010217
    70  H    0.062016
    71  H    0.045292
    72  H    0.055674
    73  H    0.039688
    74  H    0.047715
    75  H    0.030924
    76  H    0.067931
    77  H    0.040673
    78  H    0.064111
    79  H    0.067640
    80  H    0.043677
    81  H    0.075309
    82  H    0.053096
    83  H    0.065271
    84  H    0.055454
    85  H    0.044652
    86  H    0.026818
    87  H    0.030654
    88  H    0.051393
    89  H    0.044006
    90  H    0.053083
    91  H    0.040733
    92  H    0.034023
    93  H    0.036591
    94  H    0.042370
    95  H    0.029383
    96  H    0.062830
    97  H    0.059606
    98  H    0.083517
    99  H    0.067117
   100  H    0.051036
   101  H    0.056493
   102  H    0.065522
   103  H    0.068256
   104  H    0.029990
   105  H    0.034701
   106  H    0.067987
   107  H    0.032451
   108  H    0.038024
   109  H    0.023302
   110  H    0.025785
   111  H    0.016459
   112  H    0.017881
   113  H    0.025173
   114  H    0.036806
   115  H    0.036691
   116  H    0.032455
   117  H    0.030961
   118  H    0.024364
   119  H    0.027833
   120  H    0.032438
   121  H    0.027814
   122  H    0.026809
   123  H    0.025132
   124  H    0.025973
   125  H    0.012524
   126  H    0.039994
   127  H    0.035280
   128  H    0.014665
   129  H    0.024848
   130  H    0.026733
   131  H    0.033145
   132  H    0.036646
   133  H    0.021805
   134  H    0.035215
   135  H    0.026530
   136  H    0.047501
   137  H    0.030367
   138  H    0.030530
   139  H    0.031070
   140  H    0.034580
 Sum of Mulliken charges =  -0.00000

 Dipole moment (field-independent basis, Debye):
    X=              4.9488    Y=              3.6415    Z=             -2.2031  Tot=              6.5272
 Quadrupole moment (field-independent basis, Debye-Ang):
   XX=           -382.8245   YY=           -427.4050   ZZ=           -402.0950
   XY=            -31.9982   XZ=              3.7230   YZ=              7.6204

 Normal termination of Gaussian 16 at Thu May  5 05:47:10 2022.
