 Gaussian 16, Revision A.03,
 Gaussian 16:  ES64L-G16RevA.03 25-Dec-2016

 --------------------------------
 #p wB97XD/Def2SVP td=(nstates=5)
 --------------------------------

 ----------------------------------------------------
 step_701_chromophore_15 TDDFT with wB97XD functional
 ----------------------------------------------------
 Symbolic Z-matrix:
 Charge =  0 Multiplicity = 1

                         Standard orientation:
 ---------------------------------------------------------------------
 Center     Atomic      Atomic             Coordinates (Angstroms)
 Number     Number       Type             X           Y           Z
 ---------------------------------------------------------------------
      1         12           0       -4.773927    0.949635   -0.036286
      2          6           0       -4.256344   -2.356994    0.838312
      3          6           0       -1.309759    1.418399   -0.272279
      4          6           0       -5.356250    4.237755   -0.152167
      5          6           0       -8.250827    0.553002    0.863264
      6          7           0       -3.007463   -0.267652    0.218428
      7          6           0       -3.110782   -1.657090    0.360475
      8          6           0       -1.774608   -2.313088   -0.098321
      9          6           0       -0.788789   -1.097259    0.090801
     10          6           0       -1.724083    0.132740    0.095173
     11          6           0        0.276128   -1.077926    1.196791
     12          6           0       -1.944216   -2.871339   -1.548193
     13          6           0       -0.890809   -3.840635   -2.006715
     14          6           0        0.396399   -4.022019   -1.147552
     15          8           0        0.506228   -4.786013   -0.188854
     16          8           0        1.506895   -3.343484   -1.660011
     17          7           0       -3.553463    2.556027   -0.399410
     18          6           0       -2.145064    2.506435   -0.418404
     19          6           0       -1.683817    3.886781   -0.849509
     20          6           0       -2.798217    4.773296   -0.744492
     21          6           0       -3.959228    3.875468   -0.396768
     22          6           0       -0.165428    4.333610   -1.362429
     23          6           0       -2.897825    6.267863   -0.871103
     24          8           0       -3.946523    6.844312   -0.683630
     25          6           0       -1.709757    7.198490   -1.004218
     26          7           0       -6.604860    2.182358    0.211210
     27          6           0       -6.553389    3.520602    0.090887
     28          6           0       -7.893377    4.154184    0.362311
     29          6           0       -8.851621    2.968448    0.331006
     30          6           0       -7.846160    1.851177    0.609790
     31          6           0       -7.854194    4.933039    1.684907
     32          6           0       -9.631773    2.692937   -0.981624
     33          6           0      -10.914668    1.914160   -0.806706
     34          7           0       -5.976182   -0.541843    0.806924
     35          6           0       -7.336439   -0.577806    0.993817
     36          6           0       -7.750455   -1.988702    1.224809
     37          6           0       -6.549712   -2.715875    1.258816
     38          6           0       -5.527747   -1.783250    1.042516
     39          6           0       -9.180092   -2.531629    1.430136
     40          6           0       -5.917849   -4.000989    1.508178
     41          8           0       -6.447366   -5.099767    1.643871
     42          6           0       -4.453346   -3.805095    1.486291
     43          6           0       -3.897140   -4.799110    0.561316
     44          8           0       -4.269088   -5.043615   -0.557590
     45          8           0       -2.815542   -5.390652    1.167657
     46          6           0       -2.159239   -6.538820    0.411592
     47          6           0        2.784967   -3.640782   -0.974657
     48          6           0        3.951013   -3.207402   -1.844115
     49          6           0        5.268368   -3.296861   -1.552546
     50          6           0        5.839132   -3.941899   -0.357015
     51          6           0        6.204407   -2.730020   -2.543499
     52          6           0        6.364436   -1.166358   -2.488726
     53          6           0        7.119585   -0.535288   -3.622978
     54          6           0        8.150265    0.494710   -3.130876
     55          6           0        8.884350    1.114066   -4.337482
     56          6           0        9.272571   -0.152863   -2.183230
     57          6           0        9.268001    0.435205   -0.730712
     58          6           0       10.683786    0.705443   -0.302987
     59          6           0       10.943512    2.179101   -0.191710
     60          6           0       11.697228    2.768262   -1.340265
     61          6           0       11.788448    2.454711    1.120924
     62          6           0       10.952950    2.514488    2.446347
     63          6           0       10.992109    1.146568    3.229364
     64          6           0       11.596261    1.399341    4.630219
     65          6           0       13.107489    1.061547    4.601715
     66          6           0       10.859192    0.566358    5.706869
     67          1           0       -0.243791    1.606554   -0.418954
     68          1           0       -5.398537    5.328171   -0.106974
     69          1           0       -9.305094    0.411190    1.110897
     70          1           0       -1.532855   -3.112578    0.600558
     71          1           0       -0.193220   -1.096332   -0.820983
     72          1           0        0.141730   -1.949763    1.837130
     73          1           0        0.080584   -0.173148    1.771526
     74          1           0        1.273576   -0.979022    0.767986
     75          1           0       -2.016739   -2.112547   -2.327037
     76          1           0       -2.893400   -3.376187   -1.724653
     77          1           0       -0.512270   -3.574159   -2.992816
     78          1           0       -1.290275   -4.803229   -2.326261
     79          1           0       -0.138012    4.773646   -2.359080
     80          1           0        0.390392    3.411212   -1.534508
     81          1           0        0.193589    4.969941   -0.554319
     82          1           0       -1.119558    7.006498   -1.900150
     83          1           0       -1.194587    7.012091   -0.062431
     84          1           0       -2.011725    8.244536   -1.059041
     85          1           0       -8.176175    4.857008   -0.421168
     86          1           0       -9.523779    3.108706    1.177823
     87          1           0       -8.251645    5.923261    1.462452
     88          1           0       -6.909153    5.271948    2.108526
     89          1           0       -8.484547    4.568280    2.496827
     90          1           0       -8.994744    2.142275   -1.674155
     91          1           0       -9.968416    3.663928   -1.343913
     92          1           0      -11.077834    1.370543    0.124111
     93          1           0      -10.982701    1.080256   -1.505171
     94          1           0      -11.783569    2.545278   -0.992749
     95          1           0       -9.930664   -1.784619    1.173249
     96          1           0       -9.320094   -2.923696    2.437615
     97          1           0       -9.340008   -3.380509    0.764685
     98          1           0       -3.971854   -3.944030    2.454441
     99          1           0       -1.178020   -6.781152    0.820622
    100          1           0       -2.054758   -6.253679   -0.635876
    101          1           0       -2.673128   -7.498394    0.465469
    102          1           0        3.007363   -4.706671   -0.917976
    103          1           0        2.844674   -3.248190    0.040290
    104          1           0        3.722902   -2.639389   -2.746271
    105          1           0        6.639431   -3.278176   -0.029618
    106          1           0        6.285351   -4.920976   -0.527954
    107          1           0        5.058578   -3.895572    0.401976
    108          1           0        5.753647   -2.973224   -3.504449
    109          1           0        7.228303   -3.097737   -2.470844
    110          1           0        6.784154   -0.974275   -1.501148
    111          1           0        5.337962   -0.802666   -2.440898
    112          1           0        6.411431    0.062755   -4.197669
    113          1           0        7.468438   -1.263214   -4.356083
    114          1           0        7.663884    1.338669   -2.643015
    115          1           0        9.816612    1.608414   -4.065224
    116          1           0        8.227945    1.833966   -4.826669
    117          1           0        9.154055    0.340961   -5.056900
    118          1           0       10.193406    0.004252   -2.744994
    119          1           0        9.184945   -1.235576   -2.086204
    120          1           0        8.773029   -0.232895   -0.026820
    121          1           0        8.642984    1.325319   -0.796330
    122          1           0       11.429393    0.293765   -0.982734
    123          1           0       10.805606    0.214875    0.663182
    124          1           0        9.971341    2.660662   -0.080367
    125          1           0       11.725869    2.040347   -2.151312
    126          1           0       12.733284    2.968840   -1.067662
    127          1           0       11.121259    3.587032   -1.772736
    128          1           0       12.337172    3.395520    1.086729
    129          1           0       12.609266    1.754472    1.274853
    130          1           0        9.890178    2.728582    2.330686
    131          1           0       11.324564    3.381830    2.991069
    132          1           0       11.624866    0.371975    2.796403
    133          1           0        9.978405    0.751745    3.281753
    134          1           0       11.345253    2.428934    4.889342
    135          1           0       13.218299    0.089514    5.083070
    136          1           0       13.724405    1.801985    5.110995
    137          1           0       13.450256    0.850278    3.588906
    138          1           0       10.810876   -0.488813    5.438352
    139          1           0        9.827126    0.888089    5.848559
    140          1           0       11.363306    0.683712    6.665779
 ---------------------------------------------------------------------

 SCF Done:  E(RwB97XD) =  -3007.85863857     A.U. after   18 cycles

 Excitation energies and oscillator strengths:

 Excited State   1:      Singlet-A      1.6919 eV  732.79 nm  f=0.3591  <S**2>=0.000
     245 -> 248       -0.19362
     246 -> 247        0.68021
     245 <- 248       -0.11706
 This state for optimization and/or second-order correction.
 Total Energy, E(TD-HF/TD-DFT) =  -3007.79646093
 Copying the excited state density for this state as the 1-particle RhoCI density.

 Excited State   2:      Singlet-A      2.1970 eV  564.34 nm  f=0.0802  <S**2>=0.000
     245 -> 247        0.61965
     246 -> 248        0.32754

 Excited State   3:      Singlet-A      3.4534 eV  359.03 nm  f=0.5812  <S**2>=0.000
     239 -> 247       -0.11747
     241 -> 247        0.24650
     242 -> 247       -0.14066
     245 -> 247       -0.27588
     246 -> 248        0.56605
     245 <- 247        0.10724

 Excited State   4:      Singlet-A      3.6236 eV  342.15 nm  f=0.1047  <S**2>=0.000
     240 -> 247        0.32277
     240 -> 249       -0.28134
     240 -> 250        0.14692
     241 -> 247        0.27686
     241 -> 249       -0.11731
     242 -> 247       -0.22976
     243 -> 247        0.26174
     245 -> 247        0.11373
     246 -> 248       -0.18557

 Excited State   5:      Singlet-A      3.6593 eV  338.82 nm  f=0.0283  <S**2>=0.000
     240 -> 247       -0.39294
     240 -> 249        0.22823
     241 -> 247        0.11610
     242 -> 247       -0.18427
     243 -> 247        0.43006

 The electronic state is 1-A.
 Alpha  occ. eigenvalues --  -46.95048 -19.31250 -19.29513 -19.25703 -19.24096
 Alpha  occ. eigenvalues --  -19.24021 -19.22810 -14.46969 -14.45879 -14.44905
 Alpha  occ. eigenvalues --  -14.43512 -10.44376 -10.42135 -10.39418 -10.37671
 Alpha  occ. eigenvalues --  -10.36565 -10.35859 -10.35485 -10.35320 -10.35131
 Alpha  occ. eigenvalues --  -10.35037 -10.34854 -10.34577 -10.33513 -10.33295
 Alpha  occ. eigenvalues --  -10.32909 -10.32682 -10.32474 -10.32152 -10.31914
 Alpha  occ. eigenvalues --  -10.31726 -10.31644 -10.31589 -10.31401 -10.31398
 Alpha  occ. eigenvalues --  -10.31229 -10.30979 -10.30874 -10.30516 -10.30315
 Alpha  occ. eigenvalues --  -10.30297 -10.30293 -10.30179 -10.30092 -10.30019
 Alpha  occ. eigenvalues --  -10.29820 -10.29811 -10.29452 -10.29377 -10.29317
 Alpha  occ. eigenvalues --  -10.29285 -10.29180 -10.29052 -10.29010 -10.28934
 Alpha  occ. eigenvalues --  -10.28914 -10.28845 -10.28778 -10.28651 -10.28554
 Alpha  occ. eigenvalues --  -10.28474 -10.28466 -10.28084 -10.28025 -10.27999
 Alpha  occ. eigenvalues --  -10.27850  -3.21009  -1.94597  -1.94125  -1.93983
 Alpha  occ. eigenvalues --   -1.18259  -1.17506  -1.13566  -1.10980  -1.09923
 Alpha  occ. eigenvalues --   -1.09091  -1.06629  -1.05420  -1.04687  -1.03559
 Alpha  occ. eigenvalues --   -0.94230  -0.93341  -0.92302  -0.91286  -0.90913
 Alpha  occ. eigenvalues --   -0.90654  -0.90020  -0.89781  -0.89018  -0.88088
 Alpha  occ. eigenvalues --   -0.87521  -0.86943  -0.86165  -0.85451  -0.84978
 Alpha  occ. eigenvalues --   -0.84473  -0.83488  -0.83234  -0.82610  -0.82409
 Alpha  occ. eigenvalues --   -0.81835  -0.80263  -0.79641  -0.79002  -0.78648
 Alpha  occ. eigenvalues --   -0.77983  -0.77210  -0.76949  -0.76601  -0.75853
 Alpha  occ. eigenvalues --   -0.75208  -0.73945  -0.73307  -0.72469  -0.70916
 Alpha  occ. eigenvalues --   -0.70427  -0.69898  -0.69379  -0.68687  -0.67597
 Alpha  occ. eigenvalues --   -0.67152  -0.67083  -0.66327  -0.66295  -0.65939
 Alpha  occ. eigenvalues --   -0.65560  -0.65209  -0.64774  -0.63577  -0.61967
 Alpha  occ. eigenvalues --   -0.61864  -0.61152  -0.60799  -0.60396  -0.59665
 Alpha  occ. eigenvalues --   -0.59395  -0.58320  -0.57782  -0.57535  -0.57257
 Alpha  occ. eigenvalues --   -0.57051  -0.56787  -0.56572  -0.56407  -0.55901
 Alpha  occ. eigenvalues --   -0.55652  -0.55281  -0.55174  -0.54928  -0.54666
 Alpha  occ. eigenvalues --   -0.54553  -0.54115  -0.54043  -0.53869  -0.53512
 Alpha  occ. eigenvalues --   -0.53436  -0.53106  -0.53026  -0.52965  -0.52752
 Alpha  occ. eigenvalues --   -0.52562  -0.52337  -0.52098  -0.51791  -0.51725
 Alpha  occ. eigenvalues --   -0.51491  -0.51223  -0.50838  -0.50756  -0.50615
 Alpha  occ. eigenvalues --   -0.50413  -0.49973  -0.49822  -0.49637  -0.49513
 Alpha  occ. eigenvalues --   -0.49283  -0.49047  -0.49003  -0.48733  -0.48457
 Alpha  occ. eigenvalues --   -0.48209  -0.48021  -0.47971  -0.47789  -0.47640
 Alpha  occ. eigenvalues --   -0.47476  -0.47265  -0.47165  -0.46930  -0.46531
 Alpha  occ. eigenvalues --   -0.46458  -0.46419  -0.46299  -0.46137  -0.45635
 Alpha  occ. eigenvalues --   -0.45565  -0.45430  -0.45329  -0.45146  -0.44932
 Alpha  occ. eigenvalues --   -0.44477  -0.44268  -0.44211  -0.44050  -0.43808
 Alpha  occ. eigenvalues --   -0.43558  -0.43436  -0.43318  -0.43155  -0.42746
 Alpha  occ. eigenvalues --   -0.42495  -0.42427  -0.42371  -0.42073  -0.41982
 Alpha  occ. eigenvalues --   -0.41649  -0.41595  -0.41341  -0.41272  -0.40630
 Alpha  occ. eigenvalues --   -0.40405  -0.40240  -0.40141  -0.39819  -0.39797
 Alpha  occ. eigenvalues --   -0.39562  -0.39538  -0.39087  -0.38767  -0.38393
 Alpha  occ. eigenvalues --   -0.38147  -0.37867  -0.36434  -0.36268  -0.36187
 Alpha  occ. eigenvalues --   -0.35915  -0.34933  -0.34866  -0.33528  -0.33107
 Alpha  occ. eigenvalues --   -0.32654  -0.32247  -0.31481  -0.31307  -0.25716
 Alpha  occ. eigenvalues --   -0.22610
 Alpha virt. eigenvalues --   -0.06418   0.00157   0.02384   0.04534   0.05359
 Alpha virt. eigenvalues --    0.05968   0.07462   0.07745   0.08519   0.09755
 Alpha virt. eigenvalues --    0.10758   0.11039   0.11180   0.12283   0.12849

 Mulliken charges:
               1
     1  Mg   0.972797
     2  C   -0.039543
     3  C   -0.110732
     4  C   -0.064470
     5  C   -0.088291
     6  N   -0.372525
     7  C    0.002701
     8  C   -0.090573
     9  C   -0.131860
    10  C    0.105410
    11  C    0.043525
    12  C    0.048305
    13  C    0.016422
    14  C    0.213267
    15  O   -0.267381
    16  O   -0.378099
    17  N   -0.498021
    18  C    0.185279
    19  C   -0.172244
    20  C   -0.053837
    21  C    0.112226
    22  C    0.034966
    23  C    0.033903
    24  O   -0.226840
    25  C   -0.004940
    26  N   -0.317452
    27  C    0.088136
    28  C   -0.081284
    29  C   -0.071047
    30  C    0.035420
    31  C    0.016901
    32  C    0.044060
    33  C   -0.060826
    34  N   -0.419115
    35  C    0.115967
    36  C   -0.219939
    37  C   -0.017011
    38  C    0.120087
    39  C    0.082721
    40  C    0.107206
    41  O   -0.216367
    42  C    0.016791
    43  C    0.232531
    44  O   -0.235520
    45  O   -0.380508
    46  C    0.149776
    47  C    0.250936
    48  C   -0.159050
    49  C   -0.224142
    50  C    0.067930
    51  C    0.008876
    52  C   -0.017323
    53  C    0.057965
    54  C   -0.205642
    55  C   -0.004788
    56  C   -0.007624
    57  C   -0.024516
    58  C    0.045218
    59  C   -0.196581
    60  C    0.052936
    61  C   -0.012990
    62  C   -0.026041
    63  C   -0.024821
    64  C   -0.209392
    65  C    0.010266
    66  C   -0.016781
    67  H    0.005091
    68  H    0.020364
    69  H   -0.001267
    70  H    0.043943
    71  H    0.032847
    72  H    0.052093
    73  H    0.032835
    74  H    0.042803
    75  H    0.023748
    76  H    0.059495
    77  H    0.035500
    78  H    0.060480
    79  H    0.064608
    80  H    0.040331
    81  H    0.070985
    82  H    0.048873
    83  H    0.059775
    84  H    0.055632
    85  H    0.036397
    86  H    0.015778
    87  H    0.025108
    88  H    0.045700
    89  H    0.039820
    90  H    0.044820
    91  H    0.031617
    92  H    0.027152
    93  H    0.031039
    94  H    0.037282
    95  H    0.022159
    96  H    0.056555
    97  H    0.053370
    98  H    0.079619
    99  H    0.065231
   100  H    0.040166
   101  H    0.053616
   102  H    0.059243
   103  H    0.062691
   104  H    0.026613
   105  H    0.027906
   106  H    0.064119
   107  H    0.025837
   108  H    0.029099
   109  H    0.014377
   110  H    0.009253
   111  H    0.006569
   112  H    0.009661
   113  H    0.017997
   114  H    0.025260
   115  H    0.028009
   116  H    0.026657
   117  H    0.023890
   118  H    0.011176
   119  H    0.018203
   120  H    0.026024
   121  H    0.014837
   122  H    0.017082
   123  H    0.011715
   124  H    0.011850
   125  H    0.001728
   126  H    0.034832
   127  H    0.030521
   128  H    0.006197
   129  H    0.011622
   130  H    0.019141
   131  H    0.025135
   132  H    0.023733
   133  H    0.014224
   134  H    0.023407
   135  H    0.020034
   136  H    0.043245
   137  H    0.022907
   138  H    0.023464
   139  H    0.025102
   140  H    0.028665
 Sum of Mulliken charges =  -0.00000

 Dipole moment (field-independent basis, Debye):
    X=              5.5957    Y=              4.2906    Z=             -2.4003  Tot=              7.4487
 Quadrupole moment (field-independent basis, Debye-Ang):
   XX=           -388.8075   YY=           -424.6446   ZZ=           -401.6077
   XY=            -33.4868   XZ=              4.6636   YZ=              7.1067

 Normal termination of Gaussian 16 at Thu May  5 06:17:33 2022.
