 Gaussian 16, Revision A.03,
 Gaussian 16:  ES64L-G16RevA.03 25-Dec-2016

 --------------------
 #p ZINDO=(nstates=5)
 --------------------

 -----------------------------
 step_701_chromophore_15 ZINDO
 -----------------------------
 Symbolic Z-matrix:
 Charge =  0 Multiplicity = 1

                         Standard orientation:
 ---------------------------------------------------------------------
 Center     Atomic      Atomic             Coordinates (Angstroms)
 Number     Number       Type             X           Y           Z
 ---------------------------------------------------------------------
      1         12           0       -4.773927    0.949635   -0.036286
      2          6           0       -4.256344   -2.356994    0.838312
      3          6           0       -1.309759    1.418399   -0.272279
      4          6           0       -5.356250    4.237755   -0.152167
      5          6           0       -8.250827    0.553002    0.863264
      6          7           0       -3.007463   -0.267652    0.218428
      7          6           0       -3.110782   -1.657090    0.360475
      8          6           0       -1.774608   -2.313088   -0.098321
      9          6           0       -0.788789   -1.097259    0.090801
     10          6           0       -1.724083    0.132740    0.095173
     11          6           0        0.276128   -1.077926    1.196791
     12          6           0       -1.944216   -2.871339   -1.548193
     13          6           0       -0.890809   -3.840635   -2.006715
     14          6           0        0.396399   -4.022019   -1.147552
     15          8           0        0.506228   -4.786013   -0.188854
     16          8           0        1.506895   -3.343484   -1.660011
     17          7           0       -3.553463    2.556027   -0.399410
     18          6           0       -2.145064    2.506435   -0.418404
     19          6           0       -1.683817    3.886781   -0.849509
     20          6           0       -2.798217    4.773296   -0.744492
     21          6           0       -3.959228    3.875468   -0.396768
     22          6           0       -0.165428    4.333610   -1.362429
     23          6           0       -2.897825    6.267863   -0.871103
     24          8           0       -3.946523    6.844312   -0.683630
     25          6           0       -1.709757    7.198490   -1.004218
     26          7           0       -6.604860    2.182358    0.211210
     27          6           0       -6.553389    3.520602    0.090887
     28          6           0       -7.893377    4.154184    0.362311
     29          6           0       -8.851621    2.968448    0.331006
     30          6           0       -7.846160    1.851177    0.609790
     31          6           0       -7.854194    4.933039    1.684907
     32          6           0       -9.631773    2.692937   -0.981624
     33          6           0      -10.914668    1.914160   -0.806706
     34          7           0       -5.976182   -0.541843    0.806924
     35          6           0       -7.336439   -0.577806    0.993817
     36          6           0       -7.750455   -1.988702    1.224809
     37          6           0       -6.549712   -2.715875    1.258816
     38          6           0       -5.527747   -1.783250    1.042516
     39          6           0       -9.180092   -2.531629    1.430136
     40          6           0       -5.917849   -4.000989    1.508178
     41          8           0       -6.447366   -5.099767    1.643871
     42          6           0       -4.453346   -3.805095    1.486291
     43          6           0       -3.897140   -4.799110    0.561316
     44          8           0       -4.269088   -5.043615   -0.557590
     45          8           0       -2.815542   -5.390652    1.167657
     46          6           0       -2.159239   -6.538820    0.411592
     47          6           0        2.784967   -3.640782   -0.974657
     48          6           0        3.951013   -3.207402   -1.844115
     49          6           0        5.268368   -3.296861   -1.552546
     50          6           0        5.839132   -3.941899   -0.357015
     51          6           0        6.204407   -2.730020   -2.543499
     52          6           0        6.364436   -1.166358   -2.488726
     53          6           0        7.119585   -0.535288   -3.622978
     54          6           0        8.150265    0.494710   -3.130876
     55          6           0        8.884350    1.114066   -4.337482
     56          6           0        9.272571   -0.152863   -2.183230
     57          6           0        9.268001    0.435205   -0.730712
     58          6           0       10.683786    0.705443   -0.302987
     59          6           0       10.943512    2.179101   -0.191710
     60          6           0       11.697228    2.768262   -1.340265
     61          6           0       11.788448    2.454711    1.120924
     62          6           0       10.952950    2.514488    2.446347
     63          6           0       10.992109    1.146568    3.229364
     64          6           0       11.596261    1.399341    4.630219
     65          6           0       13.107489    1.061547    4.601715
     66          6           0       10.859192    0.566358    5.706869
     67          1           0       -0.243791    1.606554   -0.418954
     68          1           0       -5.398537    5.328171   -0.106974
     69          1           0       -9.305094    0.411190    1.110897
     70          1           0       -1.532855   -3.112578    0.600558
     71          1           0       -0.193220   -1.096332   -0.820983
     72          1           0        0.141730   -1.949763    1.837130
     73          1           0        0.080584   -0.173148    1.771526
     74          1           0        1.273576   -0.979022    0.767986
     75          1           0       -2.016739   -2.112547   -2.327037
     76          1           0       -2.893400   -3.376187   -1.724653
     77          1           0       -0.512270   -3.574159   -2.992816
     78          1           0       -1.290275   -4.803229   -2.326261
     79          1           0       -0.138012    4.773646   -2.359080
     80          1           0        0.390392    3.411212   -1.534508
     81          1           0        0.193589    4.969941   -0.554319
     82          1           0       -1.119558    7.006498   -1.900150
     83          1           0       -1.194587    7.012091   -0.062431
     84          1           0       -2.011725    8.244536   -1.059041
     85          1           0       -8.176175    4.857008   -0.421168
     86          1           0       -9.523779    3.108706    1.177823
     87          1           0       -8.251645    5.923261    1.462452
     88          1           0       -6.909153    5.271948    2.108526
     89          1           0       -8.484547    4.568280    2.496827
     90          1           0       -8.994744    2.142275   -1.674155
     91          1           0       -9.968416    3.663928   -1.343913
     92          1           0      -11.077834    1.370543    0.124111
     93          1           0      -10.982701    1.080256   -1.505171
     94          1           0      -11.783569    2.545278   -0.992749
     95          1           0       -9.930664   -1.784619    1.173249
     96          1           0       -9.320094   -2.923696    2.437615
     97          1           0       -9.340008   -3.380509    0.764685
     98          1           0       -3.971854   -3.944030    2.454441
     99          1           0       -1.178020   -6.781152    0.820622
    100          1           0       -2.054758   -6.253679   -0.635876
    101          1           0       -2.673128   -7.498394    0.465469
    102          1           0        3.007363   -4.706671   -0.917976
    103          1           0        2.844674   -3.248190    0.040290
    104          1           0        3.722902   -2.639389   -2.746271
    105          1           0        6.639431   -3.278176   -0.029618
    106          1           0        6.285351   -4.920976   -0.527954
    107          1           0        5.058578   -3.895572    0.401976
    108          1           0        5.753647   -2.973224   -3.504449
    109          1           0        7.228303   -3.097737   -2.470844
    110          1           0        6.784154   -0.974275   -1.501148
    111          1           0        5.337962   -0.802666   -2.440898
    112          1           0        6.411431    0.062755   -4.197669
    113          1           0        7.468438   -1.263214   -4.356083
    114          1           0        7.663884    1.338669   -2.643015
    115          1           0        9.816612    1.608414   -4.065224
    116          1           0        8.227945    1.833966   -4.826669
    117          1           0        9.154055    0.340961   -5.056900
    118          1           0       10.193406    0.004252   -2.744994
    119          1           0        9.184945   -1.235576   -2.086204
    120          1           0        8.773029   -0.232895   -0.026820
    121          1           0        8.642984    1.325319   -0.796330
    122          1           0       11.429393    0.293765   -0.982734
    123          1           0       10.805606    0.214875    0.663182
    124          1           0        9.971341    2.660662   -0.080367
    125          1           0       11.725869    2.040347   -2.151312
    126          1           0       12.733284    2.968840   -1.067662
    127          1           0       11.121259    3.587032   -1.772736
    128          1           0       12.337172    3.395520    1.086729
    129          1           0       12.609266    1.754472    1.274853
    130          1           0        9.890178    2.728582    2.330686
    131          1           0       11.324564    3.381830    2.991069
    132          1           0       11.624866    0.371975    2.796403
    133          1           0        9.978405    0.751745    3.281753
    134          1           0       11.345253    2.428934    4.889342
    135          1           0       13.218299    0.089514    5.083070
    136          1           0       13.724405    1.801985    5.110995
    137          1           0       13.450256    0.850278    3.588906
    138          1           0       10.810876   -0.488813    5.438352
    139          1           0        9.827126    0.888089    5.848559
    140          1           0       11.363306    0.683712    6.665779
 ---------------------------------------------------------------------

 SCF Done:  E(RZINDO/S) =  -474.215885064     A.U. after   20 cycles

 Excitation energies and oscillator strengths:

 Excited State   1:      Singlet-A      1.2952 eV  957.23 nm  f=0.5425  <S**2>=0.000
     175 ->178         0.18096
     176 ->177         0.66522
 This state for optimization and/or second-order correction.
 Total Energy, E(CIS/TDA) =  -474.168285811
 Copying the excited state density for this state as the 1-particle RhoCI density.

 Excited State   2:      Singlet-A      1.9044 eV  651.03 nm  f=0.0100  <S**2>=0.000
     175 ->177         0.50327
     176 ->178        -0.46921

 Excited State   3:      Singlet-A      2.8339 eV  437.50 nm  f=0.0018  <S**2>=0.000
     168 ->177        -0.32140
     168 ->179         0.48104
     168 ->180         0.12455
     168 ->181        -0.16865
     168 ->185         0.20555
     168 ->188         0.15095

 Excited State   4:      Singlet-A      2.9348 eV  422.46 nm  f=0.7573  <S**2>=0.000
     175 ->177         0.35842
     176 ->178         0.41444
     176 ->179        -0.31245
     176 ->180         0.12266
     176 ->181        -0.20358

 Excited State   5:      Singlet-A      3.0216 eV  410.33 nm  f=0.3696  <S**2>=0.000
     169 ->181         0.12685
     170 ->177        -0.18017
     170 ->178         0.10167
     170 ->179        -0.13652
     170 ->180         0.11649
     170 ->181        -0.22587
     170 ->185        -0.12752
     175 ->177         0.22587
     176 ->178         0.23620
     176 ->179         0.33962
     176 ->181         0.10581

 The electronic state is 1-A.
 Alpha  occ. eigenvalues --   -1.83973  -1.81904  -1.78514  -1.71748  -1.71530
 Alpha  occ. eigenvalues --   -1.69041  -1.67738  -1.62221  -1.61351  -1.58089
 Alpha  occ. eigenvalues --   -1.57185  -1.52839  -1.47723  -1.46299  -1.45396
 Alpha  occ. eigenvalues --   -1.43617  -1.42287  -1.39252  -1.38496  -1.37624
 Alpha  occ. eigenvalues --   -1.35670  -1.33294  -1.32666  -1.30735  -1.30028
 Alpha  occ. eigenvalues --   -1.27820  -1.23828  -1.21400  -1.20760  -1.18480
 Alpha  occ. eigenvalues --   -1.17081  -1.16449  -1.15318  -1.14846  -1.12983
 Alpha  occ. eigenvalues --   -1.12404  -1.11368  -1.10637  -1.04808  -1.03748
 Alpha  occ. eigenvalues --   -1.02519  -0.99955  -0.97967  -0.97685  -0.97172
 Alpha  occ. eigenvalues --   -0.96622  -0.95097  -0.94594  -0.92808  -0.92608
 Alpha  occ. eigenvalues --   -0.91434  -0.90183  -0.89308  -0.87996  -0.87553
 Alpha  occ. eigenvalues --   -0.85651  -0.85077  -0.82768  -0.82485  -0.80677
 Alpha  occ. eigenvalues --   -0.79815  -0.78978  -0.77598  -0.77084  -0.75519
 Alpha  occ. eigenvalues --   -0.74883  -0.74328  -0.73649  -0.73440  -0.72953
 Alpha  occ. eigenvalues --   -0.72761  -0.71837  -0.71471  -0.71199  -0.70801
 Alpha  occ. eigenvalues --   -0.70117  -0.69380  -0.69061  -0.68530  -0.68259
 Alpha  occ. eigenvalues --   -0.68088  -0.67633  -0.67311  -0.66763  -0.66235
 Alpha  occ. eigenvalues --   -0.65703  -0.64528  -0.64409  -0.63710  -0.63609
 Alpha  occ. eigenvalues --   -0.63406  -0.62709  -0.62594  -0.61870  -0.61701
 Alpha  occ. eigenvalues --   -0.61326  -0.60859  -0.60817  -0.60410  -0.60384
 Alpha  occ. eigenvalues --   -0.59951  -0.59495  -0.59005  -0.58698  -0.58461
 Alpha  occ. eigenvalues --   -0.57781  -0.57545  -0.57360  -0.57033  -0.56449
 Alpha  occ. eigenvalues --   -0.56138  -0.55352  -0.54968  -0.54635  -0.54571
 Alpha  occ. eigenvalues --   -0.54277  -0.54122  -0.53713  -0.53076  -0.52621
 Alpha  occ. eigenvalues --   -0.52187  -0.52083  -0.51779  -0.51579  -0.51457
 Alpha  occ. eigenvalues --   -0.51303  -0.50797  -0.50483  -0.50410  -0.50067
 Alpha  occ. eigenvalues --   -0.49656  -0.49459  -0.49332  -0.49201  -0.48879
 Alpha  occ. eigenvalues --   -0.48789  -0.48450  -0.48395  -0.48190  -0.47968
 Alpha  occ. eigenvalues --   -0.47669  -0.47274  -0.46948  -0.46848  -0.46669
 Alpha  occ. eigenvalues --   -0.46469  -0.46124  -0.45830  -0.45610  -0.45567
 Alpha  occ. eigenvalues --   -0.44939  -0.44796  -0.44682  -0.44555  -0.43901
 Alpha  occ. eigenvalues --   -0.43753  -0.43499  -0.42772  -0.42313  -0.42104
 Alpha  occ. eigenvalues --   -0.41356  -0.40671  -0.40429  -0.38968  -0.38555
 Alpha  occ. eigenvalues --   -0.37348  -0.36980  -0.35461  -0.34393  -0.34159
 Alpha  occ. eigenvalues --   -0.33992  -0.32301  -0.31604  -0.31491  -0.26563
 Alpha  occ. eigenvalues --   -0.21478
 Alpha virt. eigenvalues --   -0.07939  -0.02300  -0.00545   0.01387   0.01546
 Alpha virt. eigenvalues --    0.01941   0.02783   0.03959   0.04643   0.04684
 Alpha virt. eigenvalues --    0.05796   0.06305   0.07448   0.07608   0.07984

 Mulliken charges:
               1
     1  Mg   0.430506
     2  C   -0.033565
     3  C   -0.067272
     4  C   -0.099876
     5  C   -0.078569
     6  N   -0.271260
     7  C    0.077392
     8  C    0.009339
     9  C    0.000810
    10  C    0.152907
    11  C   -0.046195
    12  C   -0.009674
    13  C    0.006990
    14  C    0.462563
    15  O   -0.518152
    16  O   -0.273964
    17  N   -0.331892
    18  C    0.127131
    19  C    0.003942
    20  C   -0.035050
    21  C    0.154165
    22  C   -0.048940
    23  C    0.331289
    24  O   -0.514006
    25  C   -0.025806
    26  N   -0.277542
    27  C    0.182440
    28  C    0.022176
    29  C    0.001511
    30  C    0.100281
    31  C   -0.053578
    32  C   -0.017254
    33  C   -0.058336
    34  N   -0.307986
    35  C    0.074023
    36  C   -0.004624
    37  C   -0.052558
    38  C    0.087930
    39  C   -0.040487
    40  C    0.350454
    41  O   -0.528441
    42  C    0.067195
    43  C    0.498241
    44  O   -0.525812
    45  O   -0.283173
    46  C    0.069204
    47  C    0.104688
    48  C   -0.102876
    49  C   -0.004679
    50  C   -0.041170
    51  C   -0.025313
    52  C   -0.032536
    53  C   -0.023369
    54  C   -0.015481
    55  C   -0.059858
    56  C   -0.046318
    57  C   -0.035138
    58  C   -0.025221
    59  C   -0.004253
    60  C   -0.055236
    61  C   -0.043705
    62  C   -0.044348
    63  C   -0.037267
    64  C   -0.013575
    65  C   -0.055561
    66  C   -0.057652
    67  H    0.031665
    68  H    0.039847
    69  H    0.032149
    70  H    0.040580
    71  H    0.020062
    72  H    0.033410
    73  H    0.017829
    74  H    0.026475
    75  H    0.022483
    76  H    0.041106
    77  H    0.020011
    78  H    0.049027
    79  H    0.038288
    80  H    0.025527
    81  H    0.041718
    82  H    0.032005
    83  H    0.040841
    84  H    0.039802
    85  H    0.029430
    86  H    0.024175
    87  H    0.008028
    88  H    0.030983
    89  H    0.025176
    90  H    0.034063
    91  H    0.018306
    92  H    0.021791
    93  H    0.012738
    94  H    0.016424
    95  H    0.019708
    96  H    0.034079
    97  H    0.031285
    98  H    0.065361
    99  H    0.038030
   100  H    0.044832
   101  H    0.043572
   102  H    0.051848
   103  H    0.054147
   104  H    0.029724
   105  H    0.019436
   106  H    0.041178
   107  H    0.023579
   108  H    0.021632
   109  H    0.017521
   110  H    0.018854
   111  H    0.014175
   112  H    0.006294
   113  H    0.028471
   114  H    0.026645
   115  H    0.016571
   116  H    0.011224
   117  H    0.016498
   118  H    0.023564
   119  H    0.016638
   120  H    0.018296
   121  H    0.021381
   122  H    0.022646
   123  H    0.013550
   124  H    0.022608
   125  H    0.008587
   126  H    0.028544
   127  H    0.020049
   128  H    0.006493
   129  H    0.020574
   130  H    0.016013
   131  H    0.020082
   132  H    0.024919
   133  H    0.014968
   134  H    0.022260
   135  H    0.015880
   136  H    0.023461
   137  H    0.020572
   138  H    0.017685
   139  H    0.011658
   140  H    0.013359
 Sum of Mulliken charges =  -0.00000

 Dipole moment (field-independent basis, Debye):
    X=              9.1410    Y=              7.2044    Z=             -2.4173  Tot=             11.8871
 N-N= 4.368793347096D+03 E-N= 0.000000000000D+00  KE=-9.412002003974D+03
 Leave Link  601 at Thu May  5 06:30:56 2022, MaxMem=  6710886400 cpu:               0.8 elap:               0.1
 (Enter /sw/apps/gaussian-16.0/g16/l9999.exe)
 1\1\GINC-BP1-COMPUTE063\SP\RZINDO CIS\STO-3G\C55H74Mg1N4O6\OF15641\05-
 May-2022\0\\#p ZINDO=(nstates=5)\\step_701_chromophore_15 ZINDO\\0,1\M
 g,0,47.215,35.024,28.033\C,0,45.482,32.988,30.228\C,0,47.349,37.529,30
 .479\C,0,48.216,37.129,25.639\C,0,46.461,32.674,25.394\N,0,46.544,35.2
 59,30.073\C,0,46.053,34.164,30.795\C,0,46.242,34.436,32.317\C,0,46.314
 ,36.011,32.311\C,0,46.687,36.353,30.851\C,0,45.187,36.879,32.889\C,0,4
 7.505,33.669,32.826\C,0,47.63,33.525,34.317\C,0,46.675,34.341,35.239\O

 Normal termination of Gaussian 16 at Thu May  5 06:30:56 2022.
