 Gaussian 16, Revision A.03,
 Gaussian 16:  ES64L-G16RevA.03 25-Dec-2016

 ------------------------------
 #p blyp/Def2SVP td=(nstates=5)
 ------------------------------

 --------------------------------------------------
 step_751_chromophore_27 TDDFT with blyp functional
 --------------------------------------------------
 Symbolic Z-matrix:
 Charge =  0 Multiplicity = 1

                         Standard orientation:
 ---------------------------------------------------------------------
 Center     Atomic      Atomic             Coordinates (Angstroms)
 Number     Number       Type             X           Y           Z
 ---------------------------------------------------------------------
      1         12           0       -4.775852    0.845998   -0.111230
      2          6           0       -4.099489   -2.625824    0.337882
      3          6           0       -1.435004    1.463092    0.180780
      4          6           0       -5.540751    4.044685   -0.122644
      5          6           0       -8.209999    0.035616    0.364103
      6          7           0       -3.086071   -0.483185    0.305777
      7          6           0       -2.963320   -1.878380    0.280100
      8          6           0       -1.499453   -2.350707    0.072881
      9          6           0       -0.670353   -0.987197    0.218368
     10          6           0       -1.788256    0.128062    0.287567
     11          6           0        0.226524   -1.066355    1.434656
     12          6           0       -1.133948   -3.101924   -1.210204
     13          6           0       -0.081765   -4.232251   -1.018638
     14          6           0        1.118097   -4.349889   -1.917474
     15          8           0        1.422581   -5.425984   -2.394391
     16          8           0        1.924932   -3.139151   -1.973518
     17          7           0       -3.597278    2.543825   -0.100073
     18          6           0       -2.218576    2.648042    0.078844
     19          6           0       -1.851579    3.986583    0.073696
     20          6           0       -3.019400    4.760961   -0.056664
     21          6           0       -4.171354    3.800391   -0.120673
     22          6           0       -0.396544    4.377711    0.279469
     23          6           0       -3.222159    6.231480   -0.018026
     24          8           0       -4.292974    6.848957   -0.244162
     25          6           0       -2.100678    7.167504   -0.019316
     26          7           0       -6.615474    1.945231    0.402032
     27          6           0       -6.629582    3.198756    0.114801
     28          6           0       -8.091236    3.746638    0.411594
     29          6           0       -8.974197    2.533675    0.058020
     30          6           0       -7.904203    1.437427    0.258771
     31          6           0       -8.276612    4.461944    1.803614
     32          6           0       -9.474827    2.611911   -1.420776
     33          6           0      -10.908443    3.182482   -1.578715
     34          7           0       -5.997514   -0.956599    0.155239
     35          6           0       -7.402199   -1.068337    0.341390
     36          6           0       -7.676355   -2.487370    0.409961
     37          6           0       -6.385810   -3.130686    0.464397
     38          6           0       -5.432510   -2.164287    0.261289
     39          6           0       -9.018784   -3.215360    0.384970
     40          6           0       -5.764665   -4.436460    0.535802
     41          8           0       -6.214877   -5.565124    0.736887
     42          6           0       -4.266750   -4.176678    0.460835
     43          6           0       -3.623546   -4.604865    1.724034
     44          8           0       -4.137653   -4.511920    2.839699
     45          8           0       -2.444818   -5.210380    1.458305
     46          6           0       -1.862216   -5.884833    2.567661
     47          6           0        3.200390   -3.550101   -2.512689
     48          6           0        4.033229   -2.286096   -2.595026
     49          6           0        5.186870   -1.991574   -1.930519
     50          6           0        5.814943   -2.856903   -0.797205
     51          6           0        6.004529   -0.794983   -2.356704
     52          6           0        6.731850   -0.695743   -3.710162
     53          6           0        8.216424   -0.305756   -3.720859
     54          6           0        8.555248    1.087769   -4.136905
     55          6           0        8.572386    1.322283   -5.672839
     56          6           0        9.825536    1.703277   -3.451344
     57          6           0        9.483076    2.283337   -2.041261
     58          6           0       10.645525    2.066870   -0.966044
     59          6           0       10.136429    1.438688    0.351514
     60          6           0       10.289586   -0.088411    0.414966
     61          6           0       10.975393    1.993190    1.554596
     62          6           0       10.235143    1.565267    2.846499
     63          6           0       11.313014    0.821710    3.759642
     64          6           0       11.129857    1.144188    5.270536
     65          6           0       12.433345    0.813112    5.980126
     66          6           0        9.962044    0.347338    5.881332
     67          1           0       -0.367161    1.677411    0.261432
     68          1           0       -5.913110    5.068766   -0.053621
     69          1           0       -9.219677   -0.374501    0.437364
     70          1           0       -1.230235   -2.974728    0.924532
     71          1           0        0.115495   -0.867965   -0.527975
     72          1           0        0.522005   -2.112193    1.522707
     73          1           0       -0.260945   -0.716930    2.344099
     74          1           0        1.093332   -0.415384    1.322359
     75          1           0       -0.806767   -2.339099   -1.916588
     76          1           0       -2.037734   -3.547157   -1.626693
     77          1           0       -0.579082   -5.199589   -0.950914
     78          1           0        0.261289   -4.169735    0.014408
     79          1           0       -0.061410    5.198961   -0.354271
     80          1           0        0.240004    3.549604   -0.034215
     81          1           0       -0.138183    4.702928    1.287230
     82          1           0       -1.250826    6.722179    0.498466
     83          1           0       -2.301795    8.147722    0.410393
     84          1           0       -1.847331    7.211413   -1.079295
     85          1           0       -8.313751    4.556143   -0.283711
     86          1           0       -9.712755    2.333295    0.834221
     87          1           0       -7.369081    4.372115    2.400826
     88          1           0       -9.149260    4.130694    2.365575
     89          1           0       -8.418088    5.538052    1.699711
     90          1           0       -9.382189    1.595015   -1.801372
     91          1           0       -8.723518    3.123668   -2.022522
     92          1           0      -11.421738    3.314126   -0.625850
     93          1           0      -11.477486    2.435752   -2.132521
     94          1           0      -10.845922    4.108845   -2.148402
     95          1           0       -9.282489   -3.382536    1.428766
     96          1           0       -9.011802   -4.144645   -0.185847
     97          1           0       -9.780880   -2.557118   -0.032002
     98          1           0       -3.826235   -4.727203   -0.369925
     99          1           0       -0.997391   -6.454766    2.228475
    100          1           0       -2.505530   -6.467110    3.226757
    101          1           0       -1.404225   -5.163334    3.243713
    102          1           0        3.209493   -4.141282   -3.428113
    103          1           0        3.764381   -4.179764   -1.824891
    104          1           0        3.716829   -1.593627   -3.375284
    105          1           0        5.690489   -3.922548   -0.990108
    106          1           0        5.443358   -2.615815    0.199126
    107          1           0        6.897620   -2.793136   -0.910289
    108          1           0        6.672193   -0.383751   -1.599946
    109          1           0        5.214023   -0.072351   -2.556729
    110          1           0        6.203279    0.033767   -4.323120
    111          1           0        6.640775   -1.682234   -4.163499
    112          1           0        8.721501   -1.002748   -4.389984
    113          1           0        8.636146   -0.518545   -2.737493
    114          1           0        7.713802    1.727319   -3.868259
    115          1           0        8.423355    0.420199   -6.267200
    116          1           0        9.485752    1.664158   -6.159387
    117          1           0        7.802127    2.013719   -6.015001
    118          1           0       10.392901    2.403607   -4.064438
    119          1           0       10.438486    0.822549   -3.259784
    120          1           0        8.525011    1.947068   -1.645182
    121          1           0        9.519186    3.372771   -2.068420
    122          1           0       11.195853    2.947312   -0.636677
    123          1           0       11.439286    1.510496   -1.463245
    124          1           0        9.120687    1.806530    0.494851
    125          1           0       10.928313   -0.539945    1.174225
    126          1           0       10.744031   -0.485782   -0.492605
    127          1           0        9.359597   -0.655940    0.455259
    128          1           0       10.937524    3.077203    1.442449
    129          1           0       11.980057    1.590606    1.430132
    130          1           0        9.365984    0.928225    2.687499
    131          1           0        9.964549    2.481589    3.372343
    132          1           0       12.312669    1.143658    3.466048
    133          1           0       11.055007   -0.206739    3.506322
    134          1           0       10.889336    2.198987    5.400853
    135          1           0       12.198964    0.698140    7.038578
    136          1           0       13.185627    1.567420    5.748955
    137          1           0       12.882947   -0.137574    5.692042
    138          1           0       10.286627   -0.446799    6.552936
    139          1           0        9.506675   -0.146774    5.022594
    140          1           0        9.297830    1.091127    6.321444
 ---------------------------------------------------------------------

 SCF Done:  E(RB-LYP) =  -3007.34110747     A.U. after   22 cycles

 Excitation energies and oscillator strengths:

 Excited State   1:      Singlet-A      1.4436 eV  858.86 nm  f=0.0005  <S**2>=0.000
     244 -> 247       -0.16459
     245 -> 247        0.68469
 This state for optimization and/or second-order correction.
 Total Energy, E(TD-HF/TD-DFT) =  -3007.28805668
 Copying the excited state density for this state as the 1-particle RhoCI density.

 Excited State   2:      Singlet-A      1.6719 eV  741.59 nm  f=0.0027  <S**2>=0.000
     243 -> 247        0.68904
     244 -> 247        0.14245

 Excited State   3:      Singlet-A      1.7718 eV  699.77 nm  f=0.2806  <S**2>=0.000
     244 -> 247        0.10219
     244 -> 248        0.17105
     246 -> 247        0.67968
     246 <- 247       -0.15140

 Excited State   4:      Singlet-A      1.9071 eV  650.13 nm  f=0.0928  <S**2>=0.000
     242 -> 247        0.20713
     243 -> 247       -0.12557
     244 -> 247        0.59976
     245 -> 247        0.15331
     246 -> 247       -0.10854
     246 -> 248       -0.18348

 Excited State   5:      Singlet-A      2.1669 eV  572.16 nm  f=0.0076  <S**2>=0.000
     241 -> 247        0.62139
     242 -> 247        0.31932

 The electronic state is 1-A.
 Alpha  occ. eigenvalues --  -46.28241 -18.83536 -18.82662 -18.78578 -18.76603
 Alpha  occ. eigenvalues --  -18.75164 -18.74506 -14.03779 -14.03636 -14.01576
 Alpha  occ. eigenvalues --  -14.00310 -10.04995 -10.03998  -9.99042  -9.98981
 Alpha  occ. eigenvalues --   -9.97885  -9.97508  -9.97426  -9.97405  -9.97085
 Alpha  occ. eigenvalues --   -9.96594  -9.96433  -9.95865  -9.95545  -9.94378
 Alpha  occ. eigenvalues --   -9.94262  -9.94223  -9.94193  -9.94153  -9.94125
 Alpha  occ. eigenvalues --   -9.94013  -9.93935  -9.93820  -9.93812  -9.93718
 Alpha  occ. eigenvalues --   -9.93671  -9.93570  -9.93473  -9.93459  -9.93376
 Alpha  occ. eigenvalues --   -9.93153  -9.92774  -9.92595  -9.92417  -9.92384
 Alpha  occ. eigenvalues --   -9.92283  -9.92147  -9.92138  -9.91972  -9.91943
 Alpha  occ. eigenvalues --   -9.91910  -9.91876  -9.91665  -9.91616  -9.91535
 Alpha  occ. eigenvalues --   -9.91404  -9.91201  -9.91114  -9.91009  -9.90973
 Alpha  occ. eigenvalues --   -9.90923  -9.90831  -9.90826  -9.90741  -9.90710
 Alpha  occ. eigenvalues --   -9.90517  -2.92662  -1.73067  -1.72582  -1.72356
 Alpha  occ. eigenvalues --   -0.99620  -0.97534  -0.91094  -0.90743  -0.89737
 Alpha  occ. eigenvalues --   -0.89563  -0.87795  -0.85452  -0.85361  -0.83425
 Alpha  occ. eigenvalues --   -0.75713  -0.73812  -0.73236  -0.72949  -0.72789
 Alpha  occ. eigenvalues --   -0.72078  -0.71942  -0.71107  -0.70922  -0.70646
 Alpha  occ. eigenvalues --   -0.69634  -0.69124  -0.68153  -0.67915  -0.67085
 Alpha  occ. eigenvalues --   -0.66518  -0.66168  -0.65946  -0.64995  -0.64507
 Alpha  occ. eigenvalues --   -0.63842  -0.62863  -0.62712  -0.62533  -0.61141
 Alpha  occ. eigenvalues --   -0.61077  -0.60379  -0.60122  -0.60037  -0.58553
 Alpha  occ. eigenvalues --   -0.58348  -0.57391  -0.56977  -0.56045  -0.54964
 Alpha  occ. eigenvalues --   -0.54190  -0.54014  -0.53063  -0.52337  -0.51886
 Alpha  occ. eigenvalues --   -0.51227  -0.51166  -0.50998  -0.50757  -0.50433
 Alpha  occ. eigenvalues --   -0.50092  -0.49449  -0.49238  -0.48864  -0.46777
 Alpha  occ. eigenvalues --   -0.46673  -0.46041  -0.45969  -0.45511  -0.44960
 Alpha  occ. eigenvalues --   -0.44607  -0.43979  -0.43318  -0.42767  -0.42606
 Alpha  occ. eigenvalues --   -0.42116  -0.41781  -0.41704  -0.41433  -0.41178
 Alpha  occ. eigenvalues --   -0.40927  -0.40883  -0.40867  -0.40633  -0.40444
 Alpha  occ. eigenvalues --   -0.40187  -0.39758  -0.39716  -0.39621  -0.39403
 Alpha  occ. eigenvalues --   -0.39112  -0.38670  -0.38579  -0.38423  -0.38239
 Alpha  occ. eigenvalues --   -0.38187  -0.38071  -0.37982  -0.37841  -0.37660
 Alpha  occ. eigenvalues --   -0.37356  -0.37177  -0.36827  -0.36811  -0.36559
 Alpha  occ. eigenvalues --   -0.36403  -0.36064  -0.35883  -0.35674  -0.35377
 Alpha  occ. eigenvalues --   -0.35294  -0.35165  -0.34915  -0.34772  -0.34530
 Alpha  occ. eigenvalues --   -0.34470  -0.34459  -0.34267  -0.34078  -0.34045
 Alpha  occ. eigenvalues --   -0.33965  -0.33816  -0.33641  -0.33582  -0.33331
 Alpha  occ. eigenvalues --   -0.33217  -0.32936  -0.32923  -0.32805  -0.32477
 Alpha  occ. eigenvalues --   -0.31981  -0.31916  -0.31700  -0.31601  -0.31375
 Alpha  occ. eigenvalues --   -0.31364  -0.31169  -0.31141  -0.31025  -0.30616
 Alpha  occ. eigenvalues --   -0.30518  -0.30477  -0.30411  -0.30349  -0.29777
 Alpha  occ. eigenvalues --   -0.29764  -0.29441  -0.29414  -0.29202  -0.28698
 Alpha  occ. eigenvalues --   -0.28652  -0.28457  -0.27981  -0.27899  -0.27660
 Alpha  occ. eigenvalues --   -0.27572  -0.27331  -0.27163  -0.26974  -0.26887
 Alpha  occ. eigenvalues --   -0.26305  -0.26262  -0.26083  -0.25673  -0.25641
 Alpha  occ. eigenvalues --   -0.25483  -0.25268  -0.25214  -0.24627  -0.23678
 Alpha  occ. eigenvalues --   -0.23268  -0.22730  -0.22620  -0.21928  -0.21061
 Alpha  occ. eigenvalues --   -0.20362  -0.19729  -0.18464  -0.17690  -0.17600
 Alpha  occ. eigenvalues --   -0.16535
 Alpha virt. eigenvalues --   -0.12396  -0.07523  -0.06194  -0.05169  -0.04603
 Alpha virt. eigenvalues --   -0.03306  -0.03141  -0.02753  -0.02544   0.00190
 Alpha virt. eigenvalues --    0.01036   0.01654   0.01944   0.02448   0.02936

 Mulliken charges:
               1
     1  Mg   0.665259
     2  C   -0.008017
     3  C   -0.057992
     4  C   -0.005418
     5  C   -0.025868
     6  N   -0.269712
     7  C   -0.106953
     8  C    0.046744
     9  C   -0.059285
    10  C    0.126853
    11  C    0.107149
    12  C    0.155209
    13  C    0.145087
    14  C    0.100008
    15  O   -0.167521
    16  O   -0.306857
    17  N   -0.329460
    18  C    0.113416
    19  C   -0.101573
    20  C    0.078892
    21  C    0.128736
    22  C    0.151227
    23  C   -0.087917
    24  O   -0.213828
    25  C    0.145896
    26  N   -0.177711
    27  C   -0.036777
    28  C    0.005559
    29  C    0.029153
    30  C    0.030726
    31  C    0.127341
    32  C    0.092509
    33  C    0.095816
    34  N   -0.244264
    35  C    0.061510
    36  C   -0.149496
    37  C    0.042448
    38  C    0.105667
    39  C    0.173487
    40  C   -0.036770
    41  O   -0.139249
    42  C    0.106028
    43  C    0.094205
    44  O   -0.184914
    45  O   -0.242940
    46  C    0.228483
    47  C    0.328666
    48  C   -0.089603
    49  C   -0.141810
    50  C    0.126315
    51  C    0.124519
    52  C    0.086034
    53  C    0.119137
    54  C   -0.067583
    55  C    0.085342
    56  C    0.118767
    57  C    0.070958
    58  C    0.101344
    59  C   -0.103395
    60  C    0.107898
    61  C    0.077721
    62  C    0.079801
    63  C    0.056561
    64  C   -0.102405
    65  C    0.113581
    66  C    0.124609
    67  H   -0.067118
    68  H   -0.039747
    69  H   -0.071695
    70  H   -0.027369
    71  H   -0.012448
    72  H   -0.009681
    73  H   -0.011610
    74  H   -0.010326
    75  H   -0.011436
    76  H   -0.019590
    77  H   -0.008842
    78  H   -0.005005
    79  H   -0.007913
    80  H   -0.011302
    81  H    0.018601
    82  H   -0.043165
    83  H    0.004195
    84  H    0.019147
    85  H   -0.037885
    86  H   -0.028069
    87  H   -0.001748
    88  H   -0.009506
    89  H   -0.006768
    90  H   -0.032985
    91  H   -0.021099
    92  H   -0.003957
    93  H   -0.004624
    94  H    0.003422
    95  H    0.013351
    96  H    0.019383
    97  H   -0.019015
    98  H   -0.007877
    99  H    0.004731
   100  H    0.026037
   101  H   -0.010422
   102  H    0.006153
   103  H   -0.040412
   104  H   -0.042684
   105  H   -0.009279
   106  H    0.020794
   107  H   -0.011451
   108  H   -0.030761
   109  H   -0.027369
   110  H   -0.029566
   111  H   -0.038582
   112  H   -0.037717
   113  H   -0.039536
   114  H   -0.038943
   115  H   -0.034320
   116  H   -0.024631
   117  H   -0.017543
   118  H   -0.025254
   119  H   -0.031425
   120  H   -0.013397
   121  H   -0.025600
   122  H   -0.050238
   123  H   -0.046438
   124  H   -0.033361
   125  H   -0.018140
   126  H   -0.029564
   127  H   -0.021661
   128  H   -0.035659
   129  H   -0.015598
   130  H   -0.011329
   131  H   -0.040496
   132  H   -0.024855
   133  H   -0.017768
   134  H   -0.035173
   135  H   -0.023028
   136  H   -0.015764
   137  H   -0.023601
   138  H   -0.016012
   139  H   -0.029483
   140  H   -0.009316
 Sum of Mulliken charges =  -0.00000

 Dipole moment (field-independent basis, Debye):
    X=              3.3859    Y=              2.9032    Z=             -1.2998  Tot=              4.6457
 Quadrupole moment (field-independent basis, Debye-Ang):
   XX=           -380.3542   YY=           -449.2580   ZZ=           -411.6033
   XY=            -19.6611   XZ=             12.5243   YZ=              0.7965

 Normal termination of Gaussian 16 at Thu May  5 10:33:35 2022.
