 Gaussian 16, Revision A.03,
 Gaussian 16:  ES64L-G16RevA.03 25-Dec-2016

 -----------------------------------
 #p cam-b3lyp/Def2SVP td=(nstates=5)
 -----------------------------------

 -------------------------------------------------------
 step_751_chromophore_27 TDDFT with cam-b3lyp functional
 -------------------------------------------------------
 Symbolic Z-matrix:
 Charge =  0 Multiplicity = 1

                         Standard orientation:
 ---------------------------------------------------------------------
 Center     Atomic      Atomic             Coordinates (Angstroms)
 Number     Number       Type             X           Y           Z
 ---------------------------------------------------------------------
      1         12           0       -4.775852    0.845998   -0.111230
      2          6           0       -4.099489   -2.625824    0.337882
      3          6           0       -1.435004    1.463092    0.180780
      4          6           0       -5.540751    4.044685   -0.122644
      5          6           0       -8.209999    0.035616    0.364103
      6          7           0       -3.086071   -0.483185    0.305777
      7          6           0       -2.963320   -1.878380    0.280100
      8          6           0       -1.499453   -2.350707    0.072881
      9          6           0       -0.670353   -0.987197    0.218368
     10          6           0       -1.788256    0.128062    0.287567
     11          6           0        0.226524   -1.066355    1.434656
     12          6           0       -1.133948   -3.101924   -1.210204
     13          6           0       -0.081765   -4.232251   -1.018638
     14          6           0        1.118097   -4.349889   -1.917474
     15          8           0        1.422581   -5.425984   -2.394391
     16          8           0        1.924932   -3.139151   -1.973518
     17          7           0       -3.597278    2.543825   -0.100073
     18          6           0       -2.218576    2.648042    0.078844
     19          6           0       -1.851579    3.986583    0.073696
     20          6           0       -3.019400    4.760961   -0.056664
     21          6           0       -4.171354    3.800391   -0.120673
     22          6           0       -0.396544    4.377711    0.279469
     23          6           0       -3.222159    6.231480   -0.018026
     24          8           0       -4.292974    6.848957   -0.244162
     25          6           0       -2.100678    7.167504   -0.019316
     26          7           0       -6.615474    1.945231    0.402032
     27          6           0       -6.629582    3.198756    0.114801
     28          6           0       -8.091236    3.746638    0.411594
     29          6           0       -8.974197    2.533675    0.058020
     30          6           0       -7.904203    1.437427    0.258771
     31          6           0       -8.276612    4.461944    1.803614
     32          6           0       -9.474827    2.611911   -1.420776
     33          6           0      -10.908443    3.182482   -1.578715
     34          7           0       -5.997514   -0.956599    0.155239
     35          6           0       -7.402199   -1.068337    0.341390
     36          6           0       -7.676355   -2.487370    0.409961
     37          6           0       -6.385810   -3.130686    0.464397
     38          6           0       -5.432510   -2.164287    0.261289
     39          6           0       -9.018784   -3.215360    0.384970
     40          6           0       -5.764665   -4.436460    0.535802
     41          8           0       -6.214877   -5.565124    0.736887
     42          6           0       -4.266750   -4.176678    0.460835
     43          6           0       -3.623546   -4.604865    1.724034
     44          8           0       -4.137653   -4.511920    2.839699
     45          8           0       -2.444818   -5.210380    1.458305
     46          6           0       -1.862216   -5.884833    2.567661
     47          6           0        3.200390   -3.550101   -2.512689
     48          6           0        4.033229   -2.286096   -2.595026
     49          6           0        5.186870   -1.991574   -1.930519
     50          6           0        5.814943   -2.856903   -0.797205
     51          6           0        6.004529   -0.794983   -2.356704
     52          6           0        6.731850   -0.695743   -3.710162
     53          6           0        8.216424   -0.305756   -3.720859
     54          6           0        8.555248    1.087769   -4.136905
     55          6           0        8.572386    1.322283   -5.672839
     56          6           0        9.825536    1.703277   -3.451344
     57          6           0        9.483076    2.283337   -2.041261
     58          6           0       10.645525    2.066870   -0.966044
     59          6           0       10.136429    1.438688    0.351514
     60          6           0       10.289586   -0.088411    0.414966
     61          6           0       10.975393    1.993190    1.554596
     62          6           0       10.235143    1.565267    2.846499
     63          6           0       11.313014    0.821710    3.759642
     64          6           0       11.129857    1.144188    5.270536
     65          6           0       12.433345    0.813112    5.980126
     66          6           0        9.962044    0.347338    5.881332
     67          1           0       -0.367161    1.677411    0.261432
     68          1           0       -5.913110    5.068766   -0.053621
     69          1           0       -9.219677   -0.374501    0.437364
     70          1           0       -1.230235   -2.974728    0.924532
     71          1           0        0.115495   -0.867965   -0.527975
     72          1           0        0.522005   -2.112193    1.522707
     73          1           0       -0.260945   -0.716930    2.344099
     74          1           0        1.093332   -0.415384    1.322359
     75          1           0       -0.806767   -2.339099   -1.916588
     76          1           0       -2.037734   -3.547157   -1.626693
     77          1           0       -0.579082   -5.199589   -0.950914
     78          1           0        0.261289   -4.169735    0.014408
     79          1           0       -0.061410    5.198961   -0.354271
     80          1           0        0.240004    3.549604   -0.034215
     81          1           0       -0.138183    4.702928    1.287230
     82          1           0       -1.250826    6.722179    0.498466
     83          1           0       -2.301795    8.147722    0.410393
     84          1           0       -1.847331    7.211413   -1.079295
     85          1           0       -8.313751    4.556143   -0.283711
     86          1           0       -9.712755    2.333295    0.834221
     87          1           0       -7.369081    4.372115    2.400826
     88          1           0       -9.149260    4.130694    2.365575
     89          1           0       -8.418088    5.538052    1.699711
     90          1           0       -9.382189    1.595015   -1.801372
     91          1           0       -8.723518    3.123668   -2.022522
     92          1           0      -11.421738    3.314126   -0.625850
     93          1           0      -11.477486    2.435752   -2.132521
     94          1           0      -10.845922    4.108845   -2.148402
     95          1           0       -9.282489   -3.382536    1.428766
     96          1           0       -9.011802   -4.144645   -0.185847
     97          1           0       -9.780880   -2.557118   -0.032002
     98          1           0       -3.826235   -4.727203   -0.369925
     99          1           0       -0.997391   -6.454766    2.228475
    100          1           0       -2.505530   -6.467110    3.226757
    101          1           0       -1.404225   -5.163334    3.243713
    102          1           0        3.209493   -4.141282   -3.428113
    103          1           0        3.764381   -4.179764   -1.824891
    104          1           0        3.716829   -1.593627   -3.375284
    105          1           0        5.690489   -3.922548   -0.990108
    106          1           0        5.443358   -2.615815    0.199126
    107          1           0        6.897620   -2.793136   -0.910289
    108          1           0        6.672193   -0.383751   -1.599946
    109          1           0        5.214023   -0.072351   -2.556729
    110          1           0        6.203279    0.033767   -4.323120
    111          1           0        6.640775   -1.682234   -4.163499
    112          1           0        8.721501   -1.002748   -4.389984
    113          1           0        8.636146   -0.518545   -2.737493
    114          1           0        7.713802    1.727319   -3.868259
    115          1           0        8.423355    0.420199   -6.267200
    116          1           0        9.485752    1.664158   -6.159387
    117          1           0        7.802127    2.013719   -6.015001
    118          1           0       10.392901    2.403607   -4.064438
    119          1           0       10.438486    0.822549   -3.259784
    120          1           0        8.525011    1.947068   -1.645182
    121          1           0        9.519186    3.372771   -2.068420
    122          1           0       11.195853    2.947312   -0.636677
    123          1           0       11.439286    1.510496   -1.463245
    124          1           0        9.120687    1.806530    0.494851
    125          1           0       10.928313   -0.539945    1.174225
    126          1           0       10.744031   -0.485782   -0.492605
    127          1           0        9.359597   -0.655940    0.455259
    128          1           0       10.937524    3.077203    1.442449
    129          1           0       11.980057    1.590606    1.430132
    130          1           0        9.365984    0.928225    2.687499
    131          1           0        9.964549    2.481589    3.372343
    132          1           0       12.312669    1.143658    3.466048
    133          1           0       11.055007   -0.206739    3.506322
    134          1           0       10.889336    2.198987    5.400853
    135          1           0       12.198964    0.698140    7.038578
    136          1           0       13.185627    1.567420    5.748955
    137          1           0       12.882947   -0.137574    5.692042
    138          1           0       10.286627   -0.446799    6.552936
    139          1           0        9.506675   -0.146774    5.022594
    140          1           0        9.297830    1.091127    6.321444
 ---------------------------------------------------------------------

 SCF Done:  E(RCAM-B3LYP) =  -3007.12878118     A.U. after   17 cycles

 Excitation energies and oscillator strengths:

 Excited State   1:      Singlet-A      1.6570 eV  748.23 nm  f=0.3818  <S**2>=0.000
     245 -> 248        0.16833
     246 -> 247        0.68663
     245 <- 248        0.10436
 This state for optimization and/or second-order correction.
 Total Energy, E(TD-HF/TD-DFT) =  -3007.06788634
 Copying the excited state density for this state as the 1-particle RhoCI density.

 Excited State   2:      Singlet-A      2.1242 eV  583.67 nm  f=0.1351  <S**2>=0.000
     245 -> 247        0.65230
     246 -> 248       -0.24361

 Excited State   3:      Singlet-A      2.9853 eV  415.32 nm  f=0.0089  <S**2>=0.000
     244 -> 247        0.67999

 Excited State   4:      Singlet-A      3.1160 eV  397.90 nm  f=0.0007  <S**2>=0.000
     241 -> 247        0.18055
     242 -> 247        0.55132
     242 -> 248        0.16821
     242 -> 249        0.24743
     242 -> 251       -0.16672

 Excited State   5:      Singlet-A      3.3671 eV  368.22 nm  f=0.0082  <S**2>=0.000
     240 -> 247        0.42129
     240 -> 249       -0.20691
     240 -> 250        0.13721
     240 -> 251       -0.11906
     241 -> 247        0.41603
     242 -> 247       -0.11955
     246 -> 248        0.17345

 The electronic state is 1-A.
 Alpha  occ. eigenvalues --  -46.89813 -19.26483 -19.25574 -19.21647 -19.19601
 Alpha  occ. eigenvalues --  -19.18262 -19.17821 -14.42673 -14.42475 -14.40115
 Alpha  occ. eigenvalues --  -14.38574 -10.40432 -10.39328 -10.34381 -10.34177
 Alpha  occ. eigenvalues --  -10.31998 -10.31910 -10.31804 -10.31536 -10.31463
 Alpha  occ. eigenvalues --  -10.31103 -10.30887 -10.30298 -10.29617 -10.28937
 Alpha  occ. eigenvalues --  -10.28682 -10.28429 -10.28404 -10.28134 -10.28070
 Alpha  occ. eigenvalues --  -10.28057 -10.27968 -10.27946 -10.27903 -10.27827
 Alpha  occ. eigenvalues --  -10.27744 -10.27730 -10.27680 -10.27591 -10.27429
 Alpha  occ. eigenvalues --  -10.26852 -10.26678 -10.26468 -10.26294 -10.26001
 Alpha  occ. eigenvalues --  -10.25968 -10.25956 -10.25861 -10.25788 -10.25661
 Alpha  occ. eigenvalues --  -10.25614 -10.25536 -10.25393 -10.25337 -10.25330
 Alpha  occ. eigenvalues --  -10.25231 -10.25035 -10.24846 -10.24749 -10.24694
 Alpha  occ. eigenvalues --  -10.24689 -10.24572 -10.24558 -10.24451 -10.24294
 Alpha  occ. eigenvalues --  -10.24102  -3.18127  -1.93013  -1.92610  -1.92405
 Alpha  occ. eigenvalues --   -1.18111  -1.16020  -1.08979  -1.08957  -1.08028
 Alpha  occ. eigenvalues --   -1.07720  -1.05609  -1.03078  -1.02921  -1.00813
 Alpha  occ. eigenvalues --   -0.92747  -0.90677  -0.89983  -0.89766  -0.89558
 Alpha  occ. eigenvalues --   -0.88794  -0.88629  -0.87734  -0.87563  -0.87228
 Alpha  occ. eigenvalues --   -0.86112  -0.85463  -0.84384  -0.84064  -0.83234
 Alpha  occ. eigenvalues --   -0.82571  -0.82290  -0.81884  -0.80990  -0.80321
 Alpha  occ. eigenvalues --   -0.79610  -0.78630  -0.78312  -0.78142  -0.76581
 Alpha  occ. eigenvalues --   -0.76483  -0.75690  -0.75491  -0.75397  -0.73765
 Alpha  occ. eigenvalues --   -0.73401  -0.72355  -0.71818  -0.70871  -0.69546
 Alpha  occ. eigenvalues --   -0.68899  -0.68628  -0.67494  -0.66714  -0.66002
 Alpha  occ. eigenvalues --   -0.65316  -0.65172  -0.65003  -0.64969  -0.64320
 Alpha  occ. eigenvalues --   -0.64136  -0.63423  -0.62966  -0.62783  -0.60459
 Alpha  occ. eigenvalues --   -0.60281  -0.59604  -0.59456  -0.58879  -0.58417
 Alpha  occ. eigenvalues --   -0.57992  -0.57291  -0.56577  -0.55979  -0.55911
 Alpha  occ. eigenvalues --   -0.55515  -0.54962  -0.54873  -0.54192  -0.53972
 Alpha  occ. eigenvalues --   -0.53769  -0.53608  -0.53574  -0.53399  -0.53144
 Alpha  occ. eigenvalues --   -0.52765  -0.52570  -0.52463  -0.52084  -0.52051
 Alpha  occ. eigenvalues --   -0.51642  -0.51204  -0.50987  -0.50908  -0.50773
 Alpha  occ. eigenvalues --   -0.50520  -0.50390  -0.50254  -0.50174  -0.49943
 Alpha  occ. eigenvalues --   -0.49536  -0.49379  -0.49343  -0.49220  -0.48843
 Alpha  occ. eigenvalues --   -0.48541  -0.48249  -0.48107  -0.47932  -0.47661
 Alpha  occ. eigenvalues --   -0.47378  -0.47148  -0.46979  -0.46808  -0.46722
 Alpha  occ. eigenvalues --   -0.46502  -0.46372  -0.46227  -0.46088  -0.45793
 Alpha  occ. eigenvalues --   -0.45663  -0.45615  -0.45329  -0.45271  -0.45047
 Alpha  occ. eigenvalues --   -0.44918  -0.44751  -0.44505  -0.44412  -0.44306
 Alpha  occ. eigenvalues --   -0.43603  -0.43548  -0.43400  -0.43013  -0.42967
 Alpha  occ. eigenvalues --   -0.42773  -0.42656  -0.42608  -0.42505  -0.42250
 Alpha  occ. eigenvalues --   -0.41856  -0.41727  -0.41613  -0.41544  -0.41129
 Alpha  occ. eigenvalues --   -0.40951  -0.40849  -0.40547  -0.40406  -0.40043
 Alpha  occ. eigenvalues --   -0.39701  -0.39439  -0.38938  -0.38924  -0.38526
 Alpha  occ. eigenvalues --   -0.38466  -0.38148  -0.37968  -0.37775  -0.37678
 Alpha  occ. eigenvalues --   -0.37479  -0.37029  -0.36888  -0.36817  -0.36708
 Alpha  occ. eigenvalues --   -0.36519  -0.36258  -0.35908  -0.35444  -0.34634
 Alpha  occ. eigenvalues --   -0.34445  -0.33666  -0.32890  -0.31883  -0.30615
 Alpha  occ. eigenvalues --   -0.30526  -0.30144  -0.30053  -0.28851  -0.24465
 Alpha  occ. eigenvalues --   -0.21898
 Alpha virt. eigenvalues --   -0.09661  -0.02286   0.00189   0.01519   0.02024
 Alpha virt. eigenvalues --    0.03132   0.04180   0.04818   0.05181   0.06919
 Alpha virt. eigenvalues --    0.07522   0.08235   0.08600   0.08632   0.09323

 Mulliken charges:
               1
     1  Mg   0.792453
     2  C   -0.047419
     3  C   -0.074408
     4  C   -0.023184
     5  C   -0.031189
     6  N   -0.342189
     7  C   -0.057037
     8  C    0.000026
     9  C   -0.110688
    10  C    0.143031
    11  C    0.056171
    12  C    0.097449
    13  C    0.074792
    14  C    0.183737
    15  O   -0.208727
    16  O   -0.369012
    17  N   -0.416881
    18  C    0.123891
    19  C   -0.109984
    20  C    0.007298
    21  C    0.154312
    22  C    0.095027
    23  C   -0.010747
    24  O   -0.253058
    25  C    0.067644
    26  N   -0.238118
    27  C   -0.022052
    28  C   -0.044305
    29  C   -0.030455
    30  C    0.040194
    31  C    0.070955
    32  C    0.038533
    33  C    0.032499
    34  N   -0.331713
    35  C    0.064460
    36  C   -0.146317
    37  C   -0.035127
    38  C    0.149752
    39  C    0.123245
    40  C    0.060042
    41  O   -0.178351
    42  C    0.029173
    43  C    0.185862
    44  O   -0.222689
    45  O   -0.306634
    46  C    0.182845
    47  C    0.288159
    48  C   -0.107255
    49  C   -0.163450
    50  C    0.067456
    51  C    0.063805
    52  C    0.032352
    53  C    0.064113
    54  C   -0.125415
    55  C    0.026628
    56  C    0.067700
    57  C    0.014426
    58  C    0.052307
    59  C   -0.156538
    60  C    0.046066
    61  C    0.025733
    62  C    0.025400
    63  C    0.002133
    64  C   -0.157533
    65  C    0.051514
    66  C    0.061973
    67  H   -0.034623
    68  H    0.001760
    69  H   -0.034478
    70  H    0.005798
    71  H    0.022310
    72  H    0.011232
    73  H    0.014687
    74  H    0.013527
    75  H    0.020973
    76  H    0.011210
    77  H    0.026462
    78  H    0.023787
    79  H    0.019409
    80  H    0.017021
    81  H    0.045595
    82  H   -0.013664
    83  H    0.038243
    84  H    0.047089
    85  H   -0.001812
    86  H    0.007823
    87  H    0.023435
    88  H    0.014916
    89  H    0.017409
    90  H   -0.002047
    91  H    0.007455
    92  H    0.018795
    93  H    0.018925
    94  H    0.025892
    95  H    0.039841
    96  H    0.045581
    97  H    0.004322
    98  H    0.034641
    99  H    0.028259
   100  H    0.051693
   101  H    0.012962
   102  H    0.036538
   103  H   -0.011423
   104  H   -0.008865
   105  H    0.014369
   106  H    0.044974
   107  H    0.011928
   108  H   -0.003689
   109  H    0.003330
   110  H   -0.001912
   111  H   -0.007141
   112  H   -0.007156
   113  H   -0.014071
   114  H   -0.006655
   115  H   -0.009110
   116  H    0.000684
   117  H    0.006676
   118  H    0.004627
   119  H   -0.005126
   120  H    0.010615
   121  H    0.003903
   122  H   -0.019148
   123  H   -0.017340
   124  H   -0.002124
   125  H    0.006363
   126  H   -0.004778
   127  H    0.000957
   128  H   -0.005687
   129  H    0.010897
   130  H    0.014648
   131  H   -0.010533
   132  H    0.003587
   133  H    0.007603
   134  H   -0.003738
   135  H    0.002143
   136  H    0.008638
   137  H    0.001120
   138  H    0.009285
   139  H   -0.006245
   140  H    0.014749
 Sum of Mulliken charges =  -0.00000

 Dipole moment (field-independent basis, Debye):
    X=              3.7870    Y=              3.4976    Z=             -1.3696  Tot=              5.3338
 Quadrupole moment (field-independent basis, Debye-Ang):
   XX=           -379.1453   YY=           -445.7837   ZZ=           -411.8128
   XY=            -21.1530   XZ=             13.0713   YZ=              1.1164

 Normal termination of Gaussian 16 at Thu May  5 08:30:26 2022.
