 Gaussian 16, Revision A.03,
 Gaussian 16:  ES64L-G16RevA.03 25-Dec-2016

 ---------------------------------
 #p PBE1PBE/Def2SVP td=(nstates=5)
 ---------------------------------

 -----------------------------------------------------
 step_751_chromophore_27 TDDFT with PBE1PBE functional
 -----------------------------------------------------
 Symbolic Z-matrix:
 Charge =  0 Multiplicity = 1

                         Standard orientation:
 ---------------------------------------------------------------------
 Center     Atomic      Atomic             Coordinates (Angstroms)
 Number     Number       Type             X           Y           Z
 ---------------------------------------------------------------------
      1         12           0       -4.775852    0.845998   -0.111230
      2          6           0       -4.099489   -2.625824    0.337882
      3          6           0       -1.435004    1.463092    0.180780
      4          6           0       -5.540751    4.044685   -0.122644
      5          6           0       -8.209999    0.035616    0.364103
      6          7           0       -3.086071   -0.483185    0.305777
      7          6           0       -2.963320   -1.878380    0.280100
      8          6           0       -1.499453   -2.350707    0.072881
      9          6           0       -0.670353   -0.987197    0.218368
     10          6           0       -1.788256    0.128062    0.287567
     11          6           0        0.226524   -1.066355    1.434656
     12          6           0       -1.133948   -3.101924   -1.210204
     13          6           0       -0.081765   -4.232251   -1.018638
     14          6           0        1.118097   -4.349889   -1.917474
     15          8           0        1.422581   -5.425984   -2.394391
     16          8           0        1.924932   -3.139151   -1.973518
     17          7           0       -3.597278    2.543825   -0.100073
     18          6           0       -2.218576    2.648042    0.078844
     19          6           0       -1.851579    3.986583    0.073696
     20          6           0       -3.019400    4.760961   -0.056664
     21          6           0       -4.171354    3.800391   -0.120673
     22          6           0       -0.396544    4.377711    0.279469
     23          6           0       -3.222159    6.231480   -0.018026
     24          8           0       -4.292974    6.848957   -0.244162
     25          6           0       -2.100678    7.167504   -0.019316
     26          7           0       -6.615474    1.945231    0.402032
     27          6           0       -6.629582    3.198756    0.114801
     28          6           0       -8.091236    3.746638    0.411594
     29          6           0       -8.974197    2.533675    0.058020
     30          6           0       -7.904203    1.437427    0.258771
     31          6           0       -8.276612    4.461944    1.803614
     32          6           0       -9.474827    2.611911   -1.420776
     33          6           0      -10.908443    3.182482   -1.578715
     34          7           0       -5.997514   -0.956599    0.155239
     35          6           0       -7.402199   -1.068337    0.341390
     36          6           0       -7.676355   -2.487370    0.409961
     37          6           0       -6.385810   -3.130686    0.464397
     38          6           0       -5.432510   -2.164287    0.261289
     39          6           0       -9.018784   -3.215360    0.384970
     40          6           0       -5.764665   -4.436460    0.535802
     41          8           0       -6.214877   -5.565124    0.736887
     42          6           0       -4.266750   -4.176678    0.460835
     43          6           0       -3.623546   -4.604865    1.724034
     44          8           0       -4.137653   -4.511920    2.839699
     45          8           0       -2.444818   -5.210380    1.458305
     46          6           0       -1.862216   -5.884833    2.567661
     47          6           0        3.200390   -3.550101   -2.512689
     48          6           0        4.033229   -2.286096   -2.595026
     49          6           0        5.186870   -1.991574   -1.930519
     50          6           0        5.814943   -2.856903   -0.797205
     51          6           0        6.004529   -0.794983   -2.356704
     52          6           0        6.731850   -0.695743   -3.710162
     53          6           0        8.216424   -0.305756   -3.720859
     54          6           0        8.555248    1.087769   -4.136905
     55          6           0        8.572386    1.322283   -5.672839
     56          6           0        9.825536    1.703277   -3.451344
     57          6           0        9.483076    2.283337   -2.041261
     58          6           0       10.645525    2.066870   -0.966044
     59          6           0       10.136429    1.438688    0.351514
     60          6           0       10.289586   -0.088411    0.414966
     61          6           0       10.975393    1.993190    1.554596
     62          6           0       10.235143    1.565267    2.846499
     63          6           0       11.313014    0.821710    3.759642
     64          6           0       11.129857    1.144188    5.270536
     65          6           0       12.433345    0.813112    5.980126
     66          6           0        9.962044    0.347338    5.881332
     67          1           0       -0.367161    1.677411    0.261432
     68          1           0       -5.913110    5.068766   -0.053621
     69          1           0       -9.219677   -0.374501    0.437364
     70          1           0       -1.230235   -2.974728    0.924532
     71          1           0        0.115495   -0.867965   -0.527975
     72          1           0        0.522005   -2.112193    1.522707
     73          1           0       -0.260945   -0.716930    2.344099
     74          1           0        1.093332   -0.415384    1.322359
     75          1           0       -0.806767   -2.339099   -1.916588
     76          1           0       -2.037734   -3.547157   -1.626693
     77          1           0       -0.579082   -5.199589   -0.950914
     78          1           0        0.261289   -4.169735    0.014408
     79          1           0       -0.061410    5.198961   -0.354271
     80          1           0        0.240004    3.549604   -0.034215
     81          1           0       -0.138183    4.702928    1.287230
     82          1           0       -1.250826    6.722179    0.498466
     83          1           0       -2.301795    8.147722    0.410393
     84          1           0       -1.847331    7.211413   -1.079295
     85          1           0       -8.313751    4.556143   -0.283711
     86          1           0       -9.712755    2.333295    0.834221
     87          1           0       -7.369081    4.372115    2.400826
     88          1           0       -9.149260    4.130694    2.365575
     89          1           0       -8.418088    5.538052    1.699711
     90          1           0       -9.382189    1.595015   -1.801372
     91          1           0       -8.723518    3.123668   -2.022522
     92          1           0      -11.421738    3.314126   -0.625850
     93          1           0      -11.477486    2.435752   -2.132521
     94          1           0      -10.845922    4.108845   -2.148402
     95          1           0       -9.282489   -3.382536    1.428766
     96          1           0       -9.011802   -4.144645   -0.185847
     97          1           0       -9.780880   -2.557118   -0.032002
     98          1           0       -3.826235   -4.727203   -0.369925
     99          1           0       -0.997391   -6.454766    2.228475
    100          1           0       -2.505530   -6.467110    3.226757
    101          1           0       -1.404225   -5.163334    3.243713
    102          1           0        3.209493   -4.141282   -3.428113
    103          1           0        3.764381   -4.179764   -1.824891
    104          1           0        3.716829   -1.593627   -3.375284
    105          1           0        5.690489   -3.922548   -0.990108
    106          1           0        5.443358   -2.615815    0.199126
    107          1           0        6.897620   -2.793136   -0.910289
    108          1           0        6.672193   -0.383751   -1.599946
    109          1           0        5.214023   -0.072351   -2.556729
    110          1           0        6.203279    0.033767   -4.323120
    111          1           0        6.640775   -1.682234   -4.163499
    112          1           0        8.721501   -1.002748   -4.389984
    113          1           0        8.636146   -0.518545   -2.737493
    114          1           0        7.713802    1.727319   -3.868259
    115          1           0        8.423355    0.420199   -6.267200
    116          1           0        9.485752    1.664158   -6.159387
    117          1           0        7.802127    2.013719   -6.015001
    118          1           0       10.392901    2.403607   -4.064438
    119          1           0       10.438486    0.822549   -3.259784
    120          1           0        8.525011    1.947068   -1.645182
    121          1           0        9.519186    3.372771   -2.068420
    122          1           0       11.195853    2.947312   -0.636677
    123          1           0       11.439286    1.510496   -1.463245
    124          1           0        9.120687    1.806530    0.494851
    125          1           0       10.928313   -0.539945    1.174225
    126          1           0       10.744031   -0.485782   -0.492605
    127          1           0        9.359597   -0.655940    0.455259
    128          1           0       10.937524    3.077203    1.442449
    129          1           0       11.980057    1.590606    1.430132
    130          1           0        9.365984    0.928225    2.687499
    131          1           0        9.964549    2.481589    3.372343
    132          1           0       12.312669    1.143658    3.466048
    133          1           0       11.055007   -0.206739    3.506322
    134          1           0       10.889336    2.198987    5.400853
    135          1           0       12.198964    0.698140    7.038578
    136          1           0       13.185627    1.567420    5.748955
    137          1           0       12.882947   -0.137574    5.692042
    138          1           0       10.286627   -0.446799    6.552936
    139          1           0        9.506675   -0.146774    5.022594
    140          1           0        9.297830    1.091127    6.321444
 ---------------------------------------------------------------------

 SCF Done:  E(RPBE1PBE) =  -3005.31815732     A.U. after   16 cycles

 Excitation energies and oscillator strengths:

 Excited State   1:      Singlet-A      1.8149 eV  683.16 nm  f=0.3636  <S**2>=0.000
     245 -> 248        0.16127
     246 -> 247        0.69360
     246 <- 247       -0.11150
 This state for optimization and/or second-order correction.
 Total Energy, E(TD-HF/TD-DFT) =  -3005.25146241
 Copying the excited state density for this state as the 1-particle RhoCI density.

 Excited State   2:      Singlet-A      2.1232 eV  583.94 nm  f=0.1266  <S**2>=0.000
     244 -> 247        0.11341
     245 -> 247        0.65763
     246 -> 248       -0.21403

 Excited State   3:      Singlet-A      2.5539 eV  485.47 nm  f=0.0005  <S**2>=0.000
     243 -> 247        0.65321
     243 -> 248        0.10591
     243 -> 249       -0.12452
     244 -> 247        0.18066

 Excited State   4:      Singlet-A      2.6529 eV  467.36 nm  f=0.0155  <S**2>=0.000
     243 -> 247       -0.17800
     244 -> 247        0.66596

 Excited State   5:      Singlet-A      2.7885 eV  444.63 nm  f=0.0001  <S**2>=0.000
     241 -> 247        0.68108
     241 -> 249        0.13229

 The electronic state is 1-A.
 Alpha  occ. eigenvalues --  -46.93210 -19.27112 -19.26288 -19.21958 -19.19868
 Alpha  occ. eigenvalues --  -19.18579 -19.17969 -14.42203 -14.42018 -14.39745
 Alpha  occ. eigenvalues --  -14.38318 -10.37520 -10.36371 -10.31387 -10.31382
 Alpha  occ. eigenvalues --  -10.29801 -10.29733 -10.29330 -10.29032 -10.28875
 Alpha  occ. eigenvalues --  -10.28748 -10.28555 -10.27871 -10.27445 -10.26483
 Alpha  occ. eigenvalues --  -10.26427 -10.26277 -10.26117 -10.25923 -10.25843
 Alpha  occ. eigenvalues --  -10.25813 -10.25798 -10.25596 -10.25593 -10.25533
 Alpha  occ. eigenvalues --  -10.25530 -10.25319 -10.25261 -10.25167 -10.24971
 Alpha  occ. eigenvalues --  -10.24509 -10.24156 -10.23883 -10.23754 -10.23571
 Alpha  occ. eigenvalues --  -10.23542 -10.23438 -10.23417 -10.23389 -10.23261
 Alpha  occ. eigenvalues --  -10.23199 -10.23101 -10.22972 -10.22923 -10.22891
 Alpha  occ. eigenvalues --  -10.22588 -10.22516 -10.22498 -10.22435 -10.22351
 Alpha  occ. eigenvalues --  -10.22302 -10.22174 -10.21976 -10.21868 -10.21678
 Alpha  occ. eigenvalues --  -10.21485  -3.15112  -1.87936  -1.87513  -1.87310
 Alpha  occ. eigenvalues --   -1.12921  -1.10830  -1.03872  -1.03766  -1.02631
 Alpha  occ. eigenvalues --   -1.02558  -1.00203  -0.97702  -0.97612  -0.95453
 Alpha  occ. eigenvalues --   -0.87178  -0.84809  -0.84210  -0.83888  -0.83837
 Alpha  occ. eigenvalues --   -0.82945  -0.82905  -0.81878  -0.81834  -0.81533
 Alpha  occ. eigenvalues --   -0.80423  -0.79778  -0.78613  -0.78341  -0.77470
 Alpha  occ. eigenvalues --   -0.76787  -0.76466  -0.76189  -0.75253  -0.74583
 Alpha  occ. eigenvalues --   -0.73790  -0.72902  -0.72602  -0.72434  -0.70922
 Alpha  occ. eigenvalues --   -0.70658  -0.70027  -0.69577  -0.69503  -0.67978
 Alpha  occ. eigenvalues --   -0.67836  -0.66707  -0.66276  -0.65206  -0.63855
 Alpha  occ. eigenvalues --   -0.63320  -0.62881  -0.61986  -0.60958  -0.60411
 Alpha  occ. eigenvalues --   -0.59772  -0.59672  -0.59585  -0.59183  -0.58844
 Alpha  occ. eigenvalues --   -0.58298  -0.57597  -0.57572  -0.56967  -0.54934
 Alpha  occ. eigenvalues --   -0.54729  -0.54148  -0.53962  -0.53504  -0.52995
 Alpha  occ. eigenvalues --   -0.52590  -0.51780  -0.51181  -0.50501  -0.50444
 Alpha  occ. eigenvalues --   -0.49987  -0.49583  -0.49416  -0.48559  -0.48472
 Alpha  occ. eigenvalues --   -0.48256  -0.48209  -0.48106  -0.47996  -0.47830
 Alpha  occ. eigenvalues --   -0.47201  -0.47009  -0.46831  -0.46630  -0.46592
 Alpha  occ. eigenvalues --   -0.46291  -0.45897  -0.45535  -0.45428  -0.45312
 Alpha  occ. eigenvalues --   -0.45021  -0.44885  -0.44845  -0.44763  -0.44503
 Alpha  occ. eigenvalues --   -0.44154  -0.43948  -0.43892  -0.43793  -0.43526
 Alpha  occ. eigenvalues --   -0.43167  -0.42928  -0.42790  -0.42574  -0.42320
 Alpha  occ. eigenvalues --   -0.42036  -0.41825  -0.41649  -0.41504  -0.41392
 Alpha  occ. eigenvalues --   -0.41203  -0.41063  -0.40907  -0.40799  -0.40415
 Alpha  occ. eigenvalues --   -0.40358  -0.40279  -0.40139  -0.39933  -0.39843
 Alpha  occ. eigenvalues --   -0.39714  -0.39501  -0.39211  -0.39129  -0.39088
 Alpha  occ. eigenvalues --   -0.38440  -0.38334  -0.38250  -0.37742  -0.37687
 Alpha  occ. eigenvalues --   -0.37595  -0.37468  -0.37428  -0.37226  -0.37094
 Alpha  occ. eigenvalues --   -0.36673  -0.36484  -0.36455  -0.36413  -0.36064
 Alpha  occ. eigenvalues --   -0.35736  -0.35697  -0.35373  -0.35243  -0.34877
 Alpha  occ. eigenvalues --   -0.34531  -0.34237  -0.33898  -0.33825  -0.33435
 Alpha  occ. eigenvalues --   -0.33286  -0.32959  -0.32837  -0.32805  -0.32514
 Alpha  occ. eigenvalues --   -0.32508  -0.31860  -0.31835  -0.31714  -0.31607
 Alpha  occ. eigenvalues --   -0.31547  -0.31166  -0.30732  -0.30352  -0.29887
 Alpha  occ. eigenvalues --   -0.29545  -0.28942  -0.27942  -0.27514  -0.26087
 Alpha  occ. eigenvalues --   -0.25484  -0.25384  -0.24770  -0.24578  -0.21402
 Alpha  occ. eigenvalues --   -0.19516
 Alpha virt. eigenvalues --   -0.12072  -0.05849  -0.03969  -0.02625  -0.01471
 Alpha virt. eigenvalues --   -0.01015  -0.00274   0.00301   0.00472   0.03180
 Alpha virt. eigenvalues --    0.04135   0.04357   0.04747   0.05212   0.05866

 Mulliken charges:
               1
     1  Mg   0.933888
     2  C   -0.068118
     3  C   -0.067311
     4  C   -0.022326
     5  C   -0.034911
     6  N   -0.437679
     7  C    0.018498
     8  C   -0.066917
     9  C   -0.183990
    10  C    0.168131
    11  C   -0.000201
    12  C    0.043758
    13  C   -0.001603
    14  C    0.243866
    15  O   -0.239747
    16  O   -0.393948
    17  N   -0.529748
    18  C    0.150620
    19  C   -0.138254
    20  C   -0.054652
    21  C    0.195265
    22  C    0.040743
    23  C    0.039065
    24  O   -0.287406
    25  C   -0.007528
    26  N   -0.331393
    27  C    0.011973
    28  C   -0.111673
    29  C   -0.115331
    30  C    0.075047
    31  C    0.016114
    32  C   -0.016454
    33  C   -0.039266
    34  N   -0.454195
    35  C    0.089912
    36  C   -0.168550
    37  C   -0.079130
    38  C    0.209133
    39  C    0.070581
    40  C    0.151185
    41  O   -0.223943
    42  C   -0.081632
    43  C    0.280718
    44  O   -0.256600
    45  O   -0.340706
    46  C    0.126149
    47  C    0.240547
    48  C   -0.120775
    49  C   -0.200471
    50  C    0.003988
    51  C   -0.004222
    52  C   -0.028157
    53  C    0.006054
    54  C   -0.214266
    55  C   -0.026563
    56  C    0.009989
    57  C   -0.051770
    58  C    0.006363
    59  C   -0.246623
    60  C   -0.009809
    61  C   -0.031976
    62  C   -0.034810
    63  C   -0.057195
    64  C   -0.248222
    65  C   -0.012136
    66  C    0.001930
    67  H   -0.001476
    68  H    0.032239
    69  H   -0.001373
    70  H    0.047574
    71  H    0.057308
    72  H    0.040073
    73  H    0.043101
    74  H    0.040685
    75  H    0.053323
    76  H    0.045825
    77  H    0.058849
    78  H    0.056175
    79  H    0.047039
    80  H    0.043563
    81  H    0.072377
    82  H    0.015274
    83  H    0.064430
    84  H    0.074500
    85  H    0.036429
    86  H    0.043579
    87  H    0.051329
    88  H    0.041659
    89  H    0.044029
    90  H    0.032402
    91  H    0.039686
    92  H    0.045701
    93  H    0.046669
    94  H    0.053198
    95  H    0.068207
    96  H    0.071841
    97  H    0.031379
    98  H    0.071474
    99  H    0.050293
   100  H    0.073403
   101  H    0.035627
   102  H    0.063356
   103  H    0.018686
   104  H    0.021186
   105  H    0.040512
   106  H    0.071908
   107  H    0.040167
   108  H    0.029446
   109  H    0.037374
   110  H    0.030135
   111  H    0.026375
   112  H    0.026045
   113  H    0.021796
   114  H    0.033362
   115  H    0.017950
   116  H    0.027376
   117  H    0.033447
   118  H    0.035470
   119  H    0.028954
   120  H    0.042254
   121  H    0.038586
   122  H    0.012906
   123  H    0.014208
   124  H    0.035611
   125  H    0.034667
   126  H    0.022769
   127  H    0.028370
   128  H    0.027904
   129  H    0.042767
   130  H    0.045148
   131  H    0.023830
   132  H    0.036101
   133  H    0.040526
   134  H    0.033429
   135  H    0.030712
   136  H    0.037046
   137  H    0.029400
   138  H    0.036196
   139  H    0.022385
   140  H    0.041941
 Sum of Mulliken charges =  -0.00000

 Dipole moment (field-independent basis, Debye):
    X=              3.7581    Y=              3.3157    Z=             -1.3895  Tot=              5.2007
 Quadrupole moment (field-independent basis, Debye-Ang):
   XX=           -372.7690   YY=           -443.6256   ZZ=           -409.2770
   XY=            -20.9906   XZ=             12.9670   YZ=              0.9075

 Normal termination of Gaussian 16 at Thu May  5 09:02:39 2022.
