 Gaussian 16, Revision A.03,
 Gaussian 16:  ES64L-G16RevA.03 25-Dec-2016

 --------------------------------
 #p wB97XD/Def2SVP td=(nstates=5)
 --------------------------------

 ----------------------------------------------------
 step_751_chromophore_27 TDDFT with wB97XD functional
 ----------------------------------------------------
 Symbolic Z-matrix:
 Charge =  0 Multiplicity = 1

                         Standard orientation:
 ---------------------------------------------------------------------
 Center     Atomic      Atomic             Coordinates (Angstroms)
 Number     Number       Type             X           Y           Z
 ---------------------------------------------------------------------
      1         12           0       -4.775852    0.845998   -0.111230
      2          6           0       -4.099489   -2.625824    0.337882
      3          6           0       -1.435004    1.463092    0.180780
      4          6           0       -5.540751    4.044685   -0.122644
      5          6           0       -8.209999    0.035616    0.364103
      6          7           0       -3.086071   -0.483185    0.305777
      7          6           0       -2.963320   -1.878380    0.280100
      8          6           0       -1.499453   -2.350707    0.072881
      9          6           0       -0.670353   -0.987197    0.218368
     10          6           0       -1.788256    0.128062    0.287567
     11          6           0        0.226524   -1.066355    1.434656
     12          6           0       -1.133948   -3.101924   -1.210204
     13          6           0       -0.081765   -4.232251   -1.018638
     14          6           0        1.118097   -4.349889   -1.917474
     15          8           0        1.422581   -5.425984   -2.394391
     16          8           0        1.924932   -3.139151   -1.973518
     17          7           0       -3.597278    2.543825   -0.100073
     18          6           0       -2.218576    2.648042    0.078844
     19          6           0       -1.851579    3.986583    0.073696
     20          6           0       -3.019400    4.760961   -0.056664
     21          6           0       -4.171354    3.800391   -0.120673
     22          6           0       -0.396544    4.377711    0.279469
     23          6           0       -3.222159    6.231480   -0.018026
     24          8           0       -4.292974    6.848957   -0.244162
     25          6           0       -2.100678    7.167504   -0.019316
     26          7           0       -6.615474    1.945231    0.402032
     27          6           0       -6.629582    3.198756    0.114801
     28          6           0       -8.091236    3.746638    0.411594
     29          6           0       -8.974197    2.533675    0.058020
     30          6           0       -7.904203    1.437427    0.258771
     31          6           0       -8.276612    4.461944    1.803614
     32          6           0       -9.474827    2.611911   -1.420776
     33          6           0      -10.908443    3.182482   -1.578715
     34          7           0       -5.997514   -0.956599    0.155239
     35          6           0       -7.402199   -1.068337    0.341390
     36          6           0       -7.676355   -2.487370    0.409961
     37          6           0       -6.385810   -3.130686    0.464397
     38          6           0       -5.432510   -2.164287    0.261289
     39          6           0       -9.018784   -3.215360    0.384970
     40          6           0       -5.764665   -4.436460    0.535802
     41          8           0       -6.214877   -5.565124    0.736887
     42          6           0       -4.266750   -4.176678    0.460835
     43          6           0       -3.623546   -4.604865    1.724034
     44          8           0       -4.137653   -4.511920    2.839699
     45          8           0       -2.444818   -5.210380    1.458305
     46          6           0       -1.862216   -5.884833    2.567661
     47          6           0        3.200390   -3.550101   -2.512689
     48          6           0        4.033229   -2.286096   -2.595026
     49          6           0        5.186870   -1.991574   -1.930519
     50          6           0        5.814943   -2.856903   -0.797205
     51          6           0        6.004529   -0.794983   -2.356704
     52          6           0        6.731850   -0.695743   -3.710162
     53          6           0        8.216424   -0.305756   -3.720859
     54          6           0        8.555248    1.087769   -4.136905
     55          6           0        8.572386    1.322283   -5.672839
     56          6           0        9.825536    1.703277   -3.451344
     57          6           0        9.483076    2.283337   -2.041261
     58          6           0       10.645525    2.066870   -0.966044
     59          6           0       10.136429    1.438688    0.351514
     60          6           0       10.289586   -0.088411    0.414966
     61          6           0       10.975393    1.993190    1.554596
     62          6           0       10.235143    1.565267    2.846499
     63          6           0       11.313014    0.821710    3.759642
     64          6           0       11.129857    1.144188    5.270536
     65          6           0       12.433345    0.813112    5.980126
     66          6           0        9.962044    0.347338    5.881332
     67          1           0       -0.367161    1.677411    0.261432
     68          1           0       -5.913110    5.068766   -0.053621
     69          1           0       -9.219677   -0.374501    0.437364
     70          1           0       -1.230235   -2.974728    0.924532
     71          1           0        0.115495   -0.867965   -0.527975
     72          1           0        0.522005   -2.112193    1.522707
     73          1           0       -0.260945   -0.716930    2.344099
     74          1           0        1.093332   -0.415384    1.322359
     75          1           0       -0.806767   -2.339099   -1.916588
     76          1           0       -2.037734   -3.547157   -1.626693
     77          1           0       -0.579082   -5.199589   -0.950914
     78          1           0        0.261289   -4.169735    0.014408
     79          1           0       -0.061410    5.198961   -0.354271
     80          1           0        0.240004    3.549604   -0.034215
     81          1           0       -0.138183    4.702928    1.287230
     82          1           0       -1.250826    6.722179    0.498466
     83          1           0       -2.301795    8.147722    0.410393
     84          1           0       -1.847331    7.211413   -1.079295
     85          1           0       -8.313751    4.556143   -0.283711
     86          1           0       -9.712755    2.333295    0.834221
     87          1           0       -7.369081    4.372115    2.400826
     88          1           0       -9.149260    4.130694    2.365575
     89          1           0       -8.418088    5.538052    1.699711
     90          1           0       -9.382189    1.595015   -1.801372
     91          1           0       -8.723518    3.123668   -2.022522
     92          1           0      -11.421738    3.314126   -0.625850
     93          1           0      -11.477486    2.435752   -2.132521
     94          1           0      -10.845922    4.108845   -2.148402
     95          1           0       -9.282489   -3.382536    1.428766
     96          1           0       -9.011802   -4.144645   -0.185847
     97          1           0       -9.780880   -2.557118   -0.032002
     98          1           0       -3.826235   -4.727203   -0.369925
     99          1           0       -0.997391   -6.454766    2.228475
    100          1           0       -2.505530   -6.467110    3.226757
    101          1           0       -1.404225   -5.163334    3.243713
    102          1           0        3.209493   -4.141282   -3.428113
    103          1           0        3.764381   -4.179764   -1.824891
    104          1           0        3.716829   -1.593627   -3.375284
    105          1           0        5.690489   -3.922548   -0.990108
    106          1           0        5.443358   -2.615815    0.199126
    107          1           0        6.897620   -2.793136   -0.910289
    108          1           0        6.672193   -0.383751   -1.599946
    109          1           0        5.214023   -0.072351   -2.556729
    110          1           0        6.203279    0.033767   -4.323120
    111          1           0        6.640775   -1.682234   -4.163499
    112          1           0        8.721501   -1.002748   -4.389984
    113          1           0        8.636146   -0.518545   -2.737493
    114          1           0        7.713802    1.727319   -3.868259
    115          1           0        8.423355    0.420199   -6.267200
    116          1           0        9.485752    1.664158   -6.159387
    117          1           0        7.802127    2.013719   -6.015001
    118          1           0       10.392901    2.403607   -4.064438
    119          1           0       10.438486    0.822549   -3.259784
    120          1           0        8.525011    1.947068   -1.645182
    121          1           0        9.519186    3.372771   -2.068420
    122          1           0       11.195853    2.947312   -0.636677
    123          1           0       11.439286    1.510496   -1.463245
    124          1           0        9.120687    1.806530    0.494851
    125          1           0       10.928313   -0.539945    1.174225
    126          1           0       10.744031   -0.485782   -0.492605
    127          1           0        9.359597   -0.655940    0.455259
    128          1           0       10.937524    3.077203    1.442449
    129          1           0       11.980057    1.590606    1.430132
    130          1           0        9.365984    0.928225    2.687499
    131          1           0        9.964549    2.481589    3.372343
    132          1           0       12.312669    1.143658    3.466048
    133          1           0       11.055007   -0.206739    3.506322
    134          1           0       10.889336    2.198987    5.400853
    135          1           0       12.198964    0.698140    7.038578
    136          1           0       13.185627    1.567420    5.748955
    137          1           0       12.882947   -0.137574    5.692042
    138          1           0       10.286627   -0.446799    6.552936
    139          1           0        9.506675   -0.146774    5.022594
    140          1           0        9.297830    1.091127    6.321444
 ---------------------------------------------------------------------

 SCF Done:  E(RwB97XD) =  -3007.82521481     A.U. after   18 cycles

 Excitation energies and oscillator strengths:

 Excited State   1:      Singlet-A      1.5981 eV  775.80 nm  f=0.3809  <S**2>=0.000
     245 -> 248        0.17444
     246 -> 247        0.68419
     245 <- 248        0.11385
 This state for optimization and/or second-order correction.
 Total Energy, E(TD-HF/TD-DFT) =  -3007.76648402
 Copying the excited state density for this state as the 1-particle RhoCI density.

 Excited State   2:      Singlet-A      2.0699 eV  599.00 nm  f=0.1307  <S**2>=0.000
     245 -> 247        0.64948
     246 -> 248       -0.24755

 Excited State   3:      Singlet-A      3.0151 eV  411.21 nm  f=0.0074  <S**2>=0.000
     240 -> 247       -0.11063
     244 -> 247        0.66957

 Excited State   4:      Singlet-A      3.1333 eV  395.70 nm  f=0.0007  <S**2>=0.000
     242 -> 247        0.54825
     242 -> 248        0.18020
     242 -> 249        0.27608
     242 -> 250        0.18914

 Excited State   5:      Singlet-A      3.3917 eV  365.56 nm  f=0.0253  <S**2>=0.000
     240 -> 247        0.47691
     241 -> 247        0.34452
     241 -> 249       -0.12292
     241 -> 250        0.10129
     242 -> 247       -0.10535
     246 -> 248        0.28406

 The electronic state is 1-A.
 Alpha  occ. eigenvalues --  -46.96147 -19.31669 -19.30835 -19.26600 -19.24530
 Alpha  occ. eigenvalues --  -19.23317 -19.22893 -14.47257 -14.47098 -14.44737
 Alpha  occ. eigenvalues --  -14.43172 -10.44284 -10.43152 -10.38355 -10.38184
 Alpha  occ. eigenvalues --  -10.36078 -10.35923 -10.35567 -10.35525 -10.35362
 Alpha  occ. eigenvalues --  -10.35155 -10.34873 -10.34335 -10.33614 -10.33070
 Alpha  occ. eigenvalues --  -10.32828 -10.32485 -10.32399 -10.32168 -10.32113
 Alpha  occ. eigenvalues --  -10.32054 -10.32017 -10.31987 -10.31934 -10.31914
 Alpha  occ. eigenvalues --  -10.31781 -10.31770 -10.31660 -10.31547 -10.31454
 Alpha  occ. eigenvalues --  -10.30783 -10.30769 -10.30316 -10.30167 -10.29909
 Alpha  occ. eigenvalues --  -10.29863 -10.29809 -10.29804 -10.29657 -10.29633
 Alpha  occ. eigenvalues --  -10.29558 -10.29473 -10.29344 -10.29295 -10.29188
 Alpha  occ. eigenvalues --  -10.29173 -10.28971 -10.28787 -10.28722 -10.28701
 Alpha  occ. eigenvalues --  -10.28643 -10.28526 -10.28408 -10.28297 -10.28100
 Alpha  occ. eigenvalues --  -10.27922  -3.21932  -1.95501  -1.95075  -1.94874
 Alpha  occ. eigenvalues --   -1.20281  -1.18193  -1.11197  -1.11181  -1.10252
 Alpha  occ. eigenvalues --   -1.09909  -1.07610  -1.05121  -1.04944  -1.02811
 Alpha  occ. eigenvalues --   -0.94722  -0.92474  -0.91820  -0.91548  -0.91460
 Alpha  occ. eigenvalues --   -0.90604  -0.90534  -0.89533  -0.89493  -0.89157
 Alpha  occ. eigenvalues --   -0.88050  -0.87371  -0.86252  -0.85968  -0.85119
 Alpha  occ. eigenvalues --   -0.84447  -0.84162  -0.83833  -0.82929  -0.82217
 Alpha  occ. eigenvalues --   -0.81450  -0.80594  -0.80215  -0.80058  -0.78514
 Alpha  occ. eigenvalues --   -0.78329  -0.77624  -0.77280  -0.77199  -0.75623
 Alpha  occ. eigenvalues --   -0.75376  -0.74293  -0.73794  -0.72798  -0.71430
 Alpha  occ. eigenvalues --   -0.70895  -0.70515  -0.69509  -0.68597  -0.67914
 Alpha  occ. eigenvalues --   -0.67260  -0.67156  -0.66991  -0.66835  -0.66308
 Alpha  occ. eigenvalues --   -0.65969  -0.65255  -0.64944  -0.64615  -0.62448
 Alpha  occ. eigenvalues --   -0.62206  -0.61561  -0.61414  -0.60859  -0.60396
 Alpha  occ. eigenvalues --   -0.59990  -0.59211  -0.58569  -0.57898  -0.57847
 Alpha  occ. eigenvalues --   -0.57417  -0.56944  -0.56820  -0.56045  -0.55867
 Alpha  occ. eigenvalues --   -0.55639  -0.55546  -0.55515  -0.55336  -0.55082
 Alpha  occ. eigenvalues --   -0.54638  -0.54515  -0.54395  -0.53996  -0.53921
 Alpha  occ. eigenvalues --   -0.53574  -0.53158  -0.52881  -0.52824  -0.52658
 Alpha  occ. eigenvalues --   -0.52469  -0.52272  -0.52164  -0.52072  -0.51829
 Alpha  occ. eigenvalues --   -0.51460  -0.51301  -0.51244  -0.51121  -0.50798
 Alpha  occ. eigenvalues --   -0.50439  -0.50211  -0.50026  -0.49848  -0.49606
 Alpha  occ. eigenvalues --   -0.49302  -0.49073  -0.48889  -0.48706  -0.48686
 Alpha  occ. eigenvalues --   -0.48432  -0.48267  -0.48124  -0.48017  -0.47657
 Alpha  occ. eigenvalues --   -0.47543  -0.47504  -0.47248  -0.47156  -0.46989
 Alpha  occ. eigenvalues --   -0.46852  -0.46653  -0.46357  -0.46335  -0.46228
 Alpha  occ. eigenvalues --   -0.45548  -0.45475  -0.45328  -0.44912  -0.44872
 Alpha  occ. eigenvalues --   -0.44656  -0.44553  -0.44511  -0.44369  -0.44240
 Alpha  occ. eigenvalues --   -0.43760  -0.43575  -0.43525  -0.43437  -0.43067
 Alpha  occ. eigenvalues --   -0.42818  -0.42733  -0.42436  -0.42374  -0.42031
 Alpha  occ. eigenvalues --   -0.41571  -0.41312  -0.40854  -0.40813  -0.40380
 Alpha  occ. eigenvalues --   -0.40367  -0.39996  -0.39835  -0.39812  -0.39515
 Alpha  occ. eigenvalues --   -0.39469  -0.38887  -0.38866  -0.38764  -0.38637
 Alpha  occ. eigenvalues --   -0.38449  -0.38125  -0.37782  -0.37388  -0.36688
 Alpha  occ. eigenvalues --   -0.36437  -0.35787  -0.34737  -0.34084  -0.32707
 Alpha  occ. eigenvalues --   -0.32568  -0.32098  -0.32094  -0.31015  -0.26386
 Alpha  occ. eigenvalues --   -0.23695
 Alpha virt. eigenvalues --   -0.08015  -0.00363   0.02240   0.03880   0.04902
 Alpha virt. eigenvalues --    0.05370   0.06429   0.07100   0.07350   0.09731
 Alpha virt. eigenvalues --    0.10858   0.11026   0.11398   0.11907   0.12636

 Mulliken charges:
               1
     1  Mg   0.927071
     2  C   -0.068262
     3  C   -0.085008
     4  C   -0.032484
     5  C   -0.042631
     6  N   -0.411131
     7  C   -0.012346
     8  C   -0.035896
     9  C   -0.160271
    10  C    0.160024
    11  C    0.010805
    12  C    0.053836
    13  C    0.014742
    14  C    0.239148
    15  O   -0.239499
    16  O   -0.395523
    17  N   -0.499765
    18  C    0.143274
    19  C   -0.128834
    20  C   -0.042967
    21  C    0.181356
    22  C    0.049452
    23  C    0.034956
    24  O   -0.281285
    25  C    0.006008
    26  N   -0.300640
    27  C   -0.005289
    28  C   -0.087481
    29  C   -0.085766
    30  C    0.058020
    31  C    0.023913
    32  C   -0.004212
    33  C   -0.024240
    34  N   -0.417291
    35  C    0.079074
    36  C   -0.162424
    37  C   -0.077190
    38  C    0.189976
    39  C    0.081321
    40  C    0.134525
    41  O   -0.214572
    42  C   -0.042597
    43  C    0.256624
    44  O   -0.252049
    45  O   -0.337778
    46  C    0.140035
    47  C    0.259269
    48  C   -0.129044
    49  C   -0.190654
    50  C    0.018103
    51  C    0.018269
    52  C   -0.012902
    53  C    0.022721
    54  C   -0.181819
    55  C   -0.018713
    56  C    0.029584
    57  C   -0.035214
    58  C    0.018692
    59  C   -0.212904
    60  C   -0.001072
    61  C   -0.011843
    62  C   -0.020095
    63  C   -0.036721
    64  C   -0.219135
    65  C    0.000540
    66  C    0.011817
    67  H   -0.010465
    68  H    0.028396
    69  H   -0.007280
    70  H    0.025524
    71  H    0.049434
    72  H    0.031680
    73  H    0.037589
    74  H    0.035637
    75  H    0.045853
    76  H    0.036756
    77  H    0.054991
    78  H    0.047372
    79  H    0.041621
    80  H    0.039941
    81  H    0.069050
    82  H    0.007943
    83  H    0.064069
    84  H    0.070060
    85  H    0.024554
    86  H    0.034267
    87  H    0.044945
    88  H    0.036664
    89  H    0.038887
    90  H    0.022709
    91  H    0.031282
    92  H    0.039700
    93  H    0.041016
    94  H    0.047637
    95  H    0.063210
    96  H    0.068628
    97  H    0.025042
    98  H    0.064814
    99  H    0.047102
   100  H    0.069996
   101  H    0.030866
   102  H    0.058853
   103  H    0.008687
   104  H    0.018019
   105  H    0.034494
   106  H    0.067801
   107  H    0.033830
   108  H    0.019626
   109  H    0.028007
   110  H    0.021395
   111  H    0.018075
   112  H    0.018176
   113  H    0.007227
   114  H    0.018121
   115  H    0.011548
   116  H    0.021825
   117  H    0.028502
   118  H    0.029996
   119  H    0.014963
   120  H    0.030296
   121  H    0.030951
   122  H    0.004602
   123  H    0.004189
   124  H    0.022532
   125  H    0.026192
   126  H    0.015887
   127  H    0.022835
   128  H    0.019137
   129  H    0.031417
   130  H    0.035469
   131  H    0.014682
   132  H    0.025707
   133  H    0.027818
   134  H    0.022760
   135  H    0.024399
   136  H    0.031270
   137  H    0.022721
   138  H    0.031158
   139  H    0.014340
   140  H    0.037392
 Sum of Mulliken charges =  -0.00000

 Dipole moment (field-independent basis, Debye):
    X=              3.8869    Y=              3.6115    Z=             -1.4111  Tot=              5.4901
 Quadrupole moment (field-independent basis, Debye-Ang):
   XX=           -374.2104   YY=           -441.7165   ZZ=           -408.8670
   XY=            -21.3178   XZ=             13.3861   YZ=              0.9917

 Normal termination of Gaussian 16 at Thu May  5 10:04:06 2022.
