 Gaussian 16, Revision A.03,
 Gaussian 16:  ES64L-G16RevA.03 25-Dec-2016

 --------------------
 #p ZINDO=(nstates=5)
 --------------------

 -----------------------------
 step_751_chromophore_27 ZINDO
 -----------------------------
 Symbolic Z-matrix:
 Charge =  0 Multiplicity = 1

                         Standard orientation:
 ---------------------------------------------------------------------
 Center     Atomic      Atomic             Coordinates (Angstroms)
 Number     Number       Type             X           Y           Z
 ---------------------------------------------------------------------
      1         12           0       -4.775852    0.845998   -0.111230
      2          6           0       -4.099489   -2.625824    0.337882
      3          6           0       -1.435004    1.463092    0.180780
      4          6           0       -5.540751    4.044685   -0.122644
      5          6           0       -8.209999    0.035616    0.364103
      6          7           0       -3.086071   -0.483185    0.305777
      7          6           0       -2.963320   -1.878380    0.280100
      8          6           0       -1.499453   -2.350707    0.072881
      9          6           0       -0.670353   -0.987197    0.218368
     10          6           0       -1.788256    0.128062    0.287567
     11          6           0        0.226524   -1.066355    1.434656
     12          6           0       -1.133948   -3.101924   -1.210204
     13          6           0       -0.081765   -4.232251   -1.018638
     14          6           0        1.118097   -4.349889   -1.917474
     15          8           0        1.422581   -5.425984   -2.394391
     16          8           0        1.924932   -3.139151   -1.973518
     17          7           0       -3.597278    2.543825   -0.100073
     18          6           0       -2.218576    2.648042    0.078844
     19          6           0       -1.851579    3.986583    0.073696
     20          6           0       -3.019400    4.760961   -0.056664
     21          6           0       -4.171354    3.800391   -0.120673
     22          6           0       -0.396544    4.377711    0.279469
     23          6           0       -3.222159    6.231480   -0.018026
     24          8           0       -4.292974    6.848957   -0.244162
     25          6           0       -2.100678    7.167504   -0.019316
     26          7           0       -6.615474    1.945231    0.402032
     27          6           0       -6.629582    3.198756    0.114801
     28          6           0       -8.091236    3.746638    0.411594
     29          6           0       -8.974197    2.533675    0.058020
     30          6           0       -7.904203    1.437427    0.258771
     31          6           0       -8.276612    4.461944    1.803614
     32          6           0       -9.474827    2.611911   -1.420776
     33          6           0      -10.908443    3.182482   -1.578715
     34          7           0       -5.997514   -0.956599    0.155239
     35          6           0       -7.402199   -1.068337    0.341390
     36          6           0       -7.676355   -2.487370    0.409961
     37          6           0       -6.385810   -3.130686    0.464397
     38          6           0       -5.432510   -2.164287    0.261289
     39          6           0       -9.018784   -3.215360    0.384970
     40          6           0       -5.764665   -4.436460    0.535802
     41          8           0       -6.214877   -5.565124    0.736887
     42          6           0       -4.266750   -4.176678    0.460835
     43          6           0       -3.623546   -4.604865    1.724034
     44          8           0       -4.137653   -4.511920    2.839699
     45          8           0       -2.444818   -5.210380    1.458305
     46          6           0       -1.862216   -5.884833    2.567661
     47          6           0        3.200390   -3.550101   -2.512689
     48          6           0        4.033229   -2.286096   -2.595026
     49          6           0        5.186870   -1.991574   -1.930519
     50          6           0        5.814943   -2.856903   -0.797205
     51          6           0        6.004529   -0.794983   -2.356704
     52          6           0        6.731850   -0.695743   -3.710162
     53          6           0        8.216424   -0.305756   -3.720859
     54          6           0        8.555248    1.087769   -4.136905
     55          6           0        8.572386    1.322283   -5.672839
     56          6           0        9.825536    1.703277   -3.451344
     57          6           0        9.483076    2.283337   -2.041261
     58          6           0       10.645525    2.066870   -0.966044
     59          6           0       10.136429    1.438688    0.351514
     60          6           0       10.289586   -0.088411    0.414966
     61          6           0       10.975393    1.993190    1.554596
     62          6           0       10.235143    1.565267    2.846499
     63          6           0       11.313014    0.821710    3.759642
     64          6           0       11.129857    1.144188    5.270536
     65          6           0       12.433345    0.813112    5.980126
     66          6           0        9.962044    0.347338    5.881332
     67          1           0       -0.367161    1.677411    0.261432
     68          1           0       -5.913110    5.068766   -0.053621
     69          1           0       -9.219677   -0.374501    0.437364
     70          1           0       -1.230235   -2.974728    0.924532
     71          1           0        0.115495   -0.867965   -0.527975
     72          1           0        0.522005   -2.112193    1.522707
     73          1           0       -0.260945   -0.716930    2.344099
     74          1           0        1.093332   -0.415384    1.322359
     75          1           0       -0.806767   -2.339099   -1.916588
     76          1           0       -2.037734   -3.547157   -1.626693
     77          1           0       -0.579082   -5.199589   -0.950914
     78          1           0        0.261289   -4.169735    0.014408
     79          1           0       -0.061410    5.198961   -0.354271
     80          1           0        0.240004    3.549604   -0.034215
     81          1           0       -0.138183    4.702928    1.287230
     82          1           0       -1.250826    6.722179    0.498466
     83          1           0       -2.301795    8.147722    0.410393
     84          1           0       -1.847331    7.211413   -1.079295
     85          1           0       -8.313751    4.556143   -0.283711
     86          1           0       -9.712755    2.333295    0.834221
     87          1           0       -7.369081    4.372115    2.400826
     88          1           0       -9.149260    4.130694    2.365575
     89          1           0       -8.418088    5.538052    1.699711
     90          1           0       -9.382189    1.595015   -1.801372
     91          1           0       -8.723518    3.123668   -2.022522
     92          1           0      -11.421738    3.314126   -0.625850
     93          1           0      -11.477486    2.435752   -2.132521
     94          1           0      -10.845922    4.108845   -2.148402
     95          1           0       -9.282489   -3.382536    1.428766
     96          1           0       -9.011802   -4.144645   -0.185847
     97          1           0       -9.780880   -2.557118   -0.032002
     98          1           0       -3.826235   -4.727203   -0.369925
     99          1           0       -0.997391   -6.454766    2.228475
    100          1           0       -2.505530   -6.467110    3.226757
    101          1           0       -1.404225   -5.163334    3.243713
    102          1           0        3.209493   -4.141282   -3.428113
    103          1           0        3.764381   -4.179764   -1.824891
    104          1           0        3.716829   -1.593627   -3.375284
    105          1           0        5.690489   -3.922548   -0.990108
    106          1           0        5.443358   -2.615815    0.199126
    107          1           0        6.897620   -2.793136   -0.910289
    108          1           0        6.672193   -0.383751   -1.599946
    109          1           0        5.214023   -0.072351   -2.556729
    110          1           0        6.203279    0.033767   -4.323120
    111          1           0        6.640775   -1.682234   -4.163499
    112          1           0        8.721501   -1.002748   -4.389984
    113          1           0        8.636146   -0.518545   -2.737493
    114          1           0        7.713802    1.727319   -3.868259
    115          1           0        8.423355    0.420199   -6.267200
    116          1           0        9.485752    1.664158   -6.159387
    117          1           0        7.802127    2.013719   -6.015001
    118          1           0       10.392901    2.403607   -4.064438
    119          1           0       10.438486    0.822549   -3.259784
    120          1           0        8.525011    1.947068   -1.645182
    121          1           0        9.519186    3.372771   -2.068420
    122          1           0       11.195853    2.947312   -0.636677
    123          1           0       11.439286    1.510496   -1.463245
    124          1           0        9.120687    1.806530    0.494851
    125          1           0       10.928313   -0.539945    1.174225
    126          1           0       10.744031   -0.485782   -0.492605
    127          1           0        9.359597   -0.655940    0.455259
    128          1           0       10.937524    3.077203    1.442449
    129          1           0       11.980057    1.590606    1.430132
    130          1           0        9.365984    0.928225    2.687499
    131          1           0        9.964549    2.481589    3.372343
    132          1           0       12.312669    1.143658    3.466048
    133          1           0       11.055007   -0.206739    3.506322
    134          1           0       10.889336    2.198987    5.400853
    135          1           0       12.198964    0.698140    7.038578
    136          1           0       13.185627    1.567420    5.748955
    137          1           0       12.882947   -0.137574    5.692042
    138          1           0       10.286627   -0.446799    6.552936
    139          1           0        9.506675   -0.146774    5.022594
    140          1           0        9.297830    1.091127    6.321444
 ---------------------------------------------------------------------

 SCF Done:  E(RZINDO/S) =  -474.216128979     A.U. after   20 cycles

 Excitation energies and oscillator strengths:

 Excited State   1:      Singlet-A      1.1931 eV 1039.18 nm  f=0.6253  <S**2>=0.000
     175 ->178         0.18178
     176 ->177         0.66347
 This state for optimization and/or second-order correction.
 Total Energy, E(CIS/TDA) =  -474.172283682
 Copying the excited state density for this state as the 1-particle RhoCI density.

 Excited State   2:      Singlet-A      1.8995 eV  652.72 nm  f=0.0809  <S**2>=0.000
     175 ->177         0.57985
     176 ->178        -0.37269

 Excited State   3:      Singlet-A      2.6584 eV  466.38 nm  f=0.0007  <S**2>=0.000
     169 ->177        -0.12109
     169 ->179        -0.11963
     169 ->181        -0.10630
     170 ->177         0.34981
     170 ->178         0.17444
     170 ->179         0.31254
     170 ->181         0.28903
     170 ->186         0.18984
     170 ->189         0.10987

 Excited State   4:      Singlet-A      2.9531 eV  419.84 nm  f=0.6287  <S**2>=0.000
     169 ->177         0.11860
     169 ->179        -0.10183
     171 ->177         0.11501
     174 ->177         0.23048
     175 ->177         0.27130
     176 ->178         0.49807
     176 ->179         0.14344

 Excited State   5:      Singlet-A      2.9812 eV  415.88 nm  f=0.0130  <S**2>=0.000
     169 ->177         0.27709
     169 ->179        -0.30869
     169 ->181         0.24694
     169 ->186        -0.14869
     169 ->187        -0.15875
     170 ->177         0.10798
     170 ->179        -0.10089
     172 ->177         0.13825
     174 ->177        -0.28255

 The electronic state is 1-A.
 Alpha  occ. eigenvalues --   -1.83658  -1.82156  -1.78635  -1.74299  -1.72543
 Alpha  occ. eigenvalues --   -1.69410  -1.65608  -1.61965  -1.60003  -1.59325
 Alpha  occ. eigenvalues --   -1.55406  -1.52269  -1.48609  -1.47586  -1.46773
 Alpha  occ. eigenvalues --   -1.45542  -1.44032  -1.40144  -1.39003  -1.38140
 Alpha  occ. eigenvalues --   -1.35450  -1.32913  -1.32351  -1.31554  -1.29294
 Alpha  occ. eigenvalues --   -1.26045  -1.25446  -1.21501  -1.20018  -1.18393
 Alpha  occ. eigenvalues --   -1.17063  -1.16546  -1.16121  -1.15357  -1.15067
 Alpha  occ. eigenvalues --   -1.13955  -1.10858  -1.09513  -1.05854  -1.03800
 Alpha  occ. eigenvalues --   -1.01539  -1.00778  -0.98838  -0.98335  -0.96657
 Alpha  occ. eigenvalues --   -0.96340  -0.94990  -0.94241  -0.93100  -0.91680
 Alpha  occ. eigenvalues --   -0.90985  -0.90318  -0.88690  -0.88278  -0.88040
 Alpha  occ. eigenvalues --   -0.86638  -0.85249  -0.83991  -0.82638  -0.81490
 Alpha  occ. eigenvalues --   -0.80907  -0.79237  -0.78040  -0.76952  -0.76690
 Alpha  occ. eigenvalues --   -0.76166  -0.75679  -0.74920  -0.74430  -0.73979
 Alpha  occ. eigenvalues --   -0.73544  -0.72576  -0.71578  -0.71421  -0.70793
 Alpha  occ. eigenvalues --   -0.70459  -0.70072  -0.68884  -0.68352  -0.67959
 Alpha  occ. eigenvalues --   -0.67859  -0.67124  -0.66740  -0.66165  -0.65774
 Alpha  occ. eigenvalues --   -0.65530  -0.64715  -0.64155  -0.63849  -0.63695
 Alpha  occ. eigenvalues --   -0.63156  -0.62997  -0.62691  -0.62305  -0.62214
 Alpha  occ. eigenvalues --   -0.61416  -0.61012  -0.60613  -0.60455  -0.59577
 Alpha  occ. eigenvalues --   -0.59420  -0.59017  -0.58883  -0.58792  -0.58395
 Alpha  occ. eigenvalues --   -0.58284  -0.57521  -0.57191  -0.56794  -0.56436
 Alpha  occ. eigenvalues --   -0.56230  -0.56152  -0.55912  -0.55005  -0.54515
 Alpha  occ. eigenvalues --   -0.54429  -0.53923  -0.53360  -0.53069  -0.53018
 Alpha  occ. eigenvalues --   -0.52678  -0.52525  -0.52262  -0.52066  -0.51949
 Alpha  occ. eigenvalues --   -0.51244  -0.51005  -0.50754  -0.50731  -0.50526
 Alpha  occ. eigenvalues --   -0.50316  -0.50014  -0.49672  -0.49416  -0.49287
 Alpha  occ. eigenvalues --   -0.48676  -0.48540  -0.48018  -0.47842  -0.47779
 Alpha  occ. eigenvalues --   -0.47378  -0.47213  -0.46686  -0.46595  -0.46505
 Alpha  occ. eigenvalues --   -0.46258  -0.45729  -0.45470  -0.45402  -0.45174
 Alpha  occ. eigenvalues --   -0.44863  -0.44584  -0.44359  -0.44272  -0.44098
 Alpha  occ. eigenvalues --   -0.43776  -0.43507  -0.43423  -0.43162  -0.42842
 Alpha  occ. eigenvalues --   -0.42131  -0.41365  -0.40706  -0.39743  -0.39548
 Alpha  occ. eigenvalues --   -0.38032  -0.37689  -0.35697  -0.34768  -0.34499
 Alpha  occ. eigenvalues --   -0.33698  -0.32962  -0.32547  -0.32086  -0.27074
 Alpha  occ. eigenvalues --   -0.22313
 Alpha virt. eigenvalues --   -0.09368  -0.02396  -0.00616   0.00786   0.00925
 Alpha virt. eigenvalues --    0.01444   0.02151   0.02744   0.03970   0.04682
 Alpha virt. eigenvalues --    0.05828   0.07078   0.07342   0.07561   0.07892

 Mulliken charges:
               1
     1  Mg   0.430441
     2  C   -0.051620
     3  C   -0.076868
     4  C   -0.046417
     5  C   -0.036845
     6  N   -0.323259
     7  C    0.138465
     8  C    0.000667
     9  C   -0.009582
    10  C    0.126981
    11  C   -0.049470
    12  C   -0.014184
    13  C    0.002480
    14  C    0.462331
    15  O   -0.488607
    16  O   -0.271022
    17  N   -0.332767
    18  C    0.115851
    19  C    0.019591
    20  C   -0.035145
    21  C    0.131904
    22  C   -0.045436
    23  C    0.324719
    24  O   -0.554448
    25  C   -0.022924
    26  N   -0.231154
    27  C    0.145557
    28  C    0.000676
    29  C    0.006601
    30  C    0.102477
    31  C   -0.050856
    32  C   -0.024991
    33  C   -0.053988
    34  N   -0.354881
    35  C    0.086619
    36  C    0.047543
    37  C   -0.060318
    38  C    0.151257
    39  C   -0.035777
    40  C    0.338304
    41  O   -0.528058
    42  C    0.051662
    43  C    0.492575
    44  O   -0.526864
    45  O   -0.262779
    46  C    0.077141
    47  C    0.105231
    48  C   -0.089136
    49  C   -0.004128
    50  C   -0.048497
    51  C   -0.027577
    52  C   -0.026970
    53  C   -0.020153
    54  C   -0.000848
    55  C   -0.064194
    56  C   -0.034679
    57  C   -0.045131
    58  C   -0.049418
    59  C   -0.012128
    60  C   -0.056470
    61  C   -0.040953
    62  C   -0.049025
    63  C   -0.046276
    64  C   -0.014560
    65  C   -0.055878
    66  C   -0.062000
    67  H    0.021575
    68  H    0.045198
    69  H    0.028338
    70  H    0.034852
    71  H    0.037166
    72  H    0.020589
    73  H    0.021637
    74  H    0.013725
    75  H    0.029169
    76  H    0.022866
    77  H    0.038685
    78  H    0.042512
    79  H    0.020378
    80  H    0.022741
    81  H    0.035810
    82  H    0.011129
    83  H    0.046751
    84  H    0.049037
    85  H    0.016662
    86  H    0.039298
    87  H    0.025559
    88  H    0.022830
    89  H    0.021182
    90  H    0.016054
    91  H    0.027053
    92  H    0.025671
    93  H    0.019330
    94  H    0.026887
    95  H    0.040250
    96  H    0.042533
    97  H    0.017273
    98  H    0.051390
    99  H    0.025340
   100  H    0.058136
   101  H    0.027161
   102  H    0.060466
   103  H    0.035904
   104  H    0.026012
   105  H    0.020774
   106  H    0.039689
   107  H    0.021048
   108  H    0.022347
   109  H    0.014847
   110  H    0.021043
   111  H    0.016321
   112  H    0.014275
   113  H    0.014646
   114  H    0.012028
   115  H    0.009937
   116  H    0.016905
   117  H    0.015200
   118  H    0.031035
   119  H    0.016545
   120  H    0.031443
   121  H    0.015994
   122  H    0.017349
   123  H    0.016209
   124  H    0.024705
   125  H    0.022788
   126  H    0.007636
   127  H    0.011015
   128  H    0.014659
   129  H    0.030493
   130  H    0.030733
   131  H    0.015004
   132  H    0.024133
   133  H    0.027239
   134  H    0.023058
   135  H    0.014314
   136  H    0.015724
   137  H    0.016344
   138  H    0.025723
   139  H    0.015826
   140  H    0.023030
 Sum of Mulliken charges =  -0.00000

 Dipole moment (field-independent basis, Debye):
    X=              4.8751    Y=              4.6867    Z=             -2.0226  Tot=              7.0585
 N-N= 4.335361857621D+03 E-N= 0.000000000000D+00  KE=-9.344406005215D+03
 Leave Link  601 at Thu May  5 10:33:42 2022, MaxMem=  6710886400 cpu:               0.7 elap:               0.0
 (Enter /sw/apps/gaussian-16.0/g16/l9999.exe)
 1\1\GINC-BP1-COMPUTE141\SP\RZINDO CIS\STO-3G\C55H74Mg1N4O6\OF15641\05-
 May-2022\0\\#p ZINDO=(nstates=5)\\step_751_chromophore_27 ZINDO\\0,1\M
 g,0,-5.573,24.878,26.729\C,0,-3.791,26.673,29.242\C,0,-6.56,22.653,29.
 117\C,0,-6.836,23.077,24.284\C,0,-3.825,26.867,24.349\N,0,-5.091,24.72
 8,28.86\C,0,-4.506,25.634,29.754\C,0,-4.879,25.347,31.233\C,0,-5.619,2
 3.929,31.136\C,0,-5.756,23.681,29.581\C,0,-4.814,22.885,31.879\C,0,-5.
 717,26.372,32.002\C,0,-5.335,26.522,33.503\C,0,-6.378,26.496,34.586\O,

 Normal termination of Gaussian 16 at Thu May  5 10:33:43 2022.
