 Gaussian 16, Revision A.03,
 Gaussian 16:  ES64L-G16RevA.03 25-Dec-2016

 ------------------------------
 #p blyp/Def2SVP td=(nstates=5)
 ------------------------------

 --------------------------------------------------
 step_501_chromophore_20 TDDFT with blyp functional
 --------------------------------------------------
 Symbolic Z-matrix:
 Charge =  0 Multiplicity = 1

                         Standard orientation:
 ---------------------------------------------------------------------
 Center     Atomic      Atomic             Coordinates (Angstroms)
 Number     Number       Type             X           Y           Z
 ---------------------------------------------------------------------
      1         12           0       -4.189749    1.116798    0.695616
      2          6           0       -3.400641   -2.331854    0.982957
      3          6           0       -1.593433    1.744215    2.938964
      4          6           0       -4.163920    4.189053   -0.486218
      5          6           0       -6.609265    0.113796   -1.862488
      6          7           0       -2.478478   -0.200228    1.656245
      7          6           0       -2.571251   -1.543293    1.819592
      8          6           0       -1.592790   -1.987704    2.891959
      9          6           0       -1.499132   -0.784456    3.830386
     10          6           0       -1.825964    0.353246    2.734112
     11          6           0       -2.493812   -0.681860    4.988154
     12          6           0       -0.242741   -2.481732    2.210680
     13          6           0        0.253029   -3.745358    2.795821
     14          6           0        1.768817   -3.870318    3.044299
     15          8           0        2.216323   -3.931452    4.178895
     16          8           0        2.441512   -3.976027    1.854207
     17          7           0       -2.994643    2.801702    1.114191
     18          6           0       -2.023099    2.869762    2.143494
     19          6           0       -1.542983    4.228584    2.159676
     20          6           0       -2.301509    5.020716    1.257458
     21          6           0       -3.194094    4.037454    0.546573
     22          6           0       -0.418152    4.644880    3.102218
     23          6           0       -2.114928    6.461984    0.990081
     24          8           0       -1.239981    7.066364    1.597798
     25          6           0       -2.826507    7.288004   -0.030650
     26          7           0       -5.229539    1.993383   -1.080420
     27          6           0       -5.145230    3.337144   -1.143388
     28          6           0       -6.144430    3.897183   -2.171881
     29          6           0       -7.072458    2.605461   -2.532986
     30          6           0       -6.314054    1.492634   -1.764244
     31          6           0       -6.906318    5.218116   -1.704726
     32          6           0       -7.274131    2.326468   -4.055346
     33          6           0       -6.369771    1.234925   -4.722820
     34          7           0       -4.872914   -0.636274   -0.231677
     35          6           0       -5.897281   -0.870172   -1.192835
     36          6           0       -6.160524   -2.373271   -1.264730
     37          6           0       -5.164527   -2.910039   -0.464665
     38          6           0       -4.437091   -1.824179    0.141867
     39          6           0       -7.187526   -3.215483   -2.045865
     40          6           0       -4.636566   -4.131080    0.055829
     41          8           0       -5.026355   -5.291828   -0.081368
     42          6           0       -3.434786   -3.744150    0.841481
     43          6           0       -2.267916   -4.238540   -0.043725
     44          8           0       -1.812810   -3.694536   -1.047671
     45          8           0       -1.853107   -5.496988    0.473885
     46          6           0       -0.874753   -6.218348   -0.233788
     47          6           0        3.893014   -4.256173    1.987939
     48          6           0        4.605263   -4.409723    0.614760
     49          6           0        4.301441   -5.099952   -0.504253
     50          6           0        3.123063   -6.080948   -0.583671
     51          6           0        5.277280   -5.047123   -1.704694
     52          6           0        5.231052   -3.801889   -2.475582
     53          6           0        6.391363   -2.912739   -2.086528
     54          6           0        6.902040   -2.058933   -3.284530
     55          6           0        8.176685   -2.604313   -3.920365
     56          6           0        7.220473   -0.669309   -2.808745
     57          6           0        5.928268    0.205496   -2.707839
     58          6           0        5.790057    0.879298   -1.312325
     59          6           0        6.146370    2.358421   -1.248118
     60          6           0        5.320519    3.283838   -2.267097
     61          6           0        7.706281    2.673985   -1.307602
     62          6           0        8.353410    2.829735    0.133259
     63          6           0        8.499894    4.338385    0.464792
     64          6           0        9.893321    4.600499    1.055508
     65          6           0       10.053587    5.672953    2.129089
     66          6           0       10.850465    4.848567   -0.143517
     67          1           0       -0.859419    2.005597    3.704223
     68          1           0       -4.199853    5.262280   -0.683492
     69          1           0       -7.409025   -0.282047   -2.490795
     70          1           0       -1.978340   -2.788879    3.522314
     71          1           0       -0.569438   -0.562392    4.353016
     72          1           0       -2.968388   -1.628300    5.245637
     73          1           0       -3.154432    0.178116    4.875359
     74          1           0       -1.840224   -0.452073    5.830454
     75          1           0        0.527426   -1.729643    2.382215
     76          1           0       -0.269856   -2.494832    1.121044
     77          1           0       -0.106412   -4.475913    2.072004
     78          1           0       -0.241530   -3.893516    3.755683
     79          1           0       -0.771142    5.225664    3.954162
     80          1           0        0.349291    5.157103    2.523752
     81          1           0        0.066808    3.764289    3.523741
     82          1           0       -3.868140    7.384290    0.276650
     83          1           0       -2.792063    6.913516   -1.054454
     84          1           0       -2.534228    8.335796    0.027081
     85          1           0       -5.513139    4.098630   -3.037062
     86          1           0       -8.024895    2.709083   -2.014250
     87          1           0       -6.332724    5.755638   -0.949763
     88          1           0       -7.956116    5.151256   -1.416690
     89          1           0       -7.056610    5.745215   -2.648194
     90          1           0       -7.193361    3.231005   -4.657617
     91          1           0       -8.299456    1.958444   -4.083308
     92          1           0       -6.334456    1.711148   -5.702929
     93          1           0       -6.771673    0.226663   -4.825094
     94          1           0       -5.396761    1.269924   -4.232362
     95          1           0       -7.797429   -3.813768   -1.369878
     96          1           0       -6.472299   -3.912857   -2.480964
     97          1           0       -7.655194   -2.562345   -2.782291
     98          1           0       -3.422987   -4.295061    1.782006
     99          1           0       -0.610030   -7.179764    0.208083
    100          1           0        0.025147   -5.605133   -0.259442
    101          1           0       -1.303031   -6.372237   -1.224647
    102          1           0        4.027142   -5.238317    2.440024
    103          1           0        4.188157   -3.452011    2.662190
    104          1           0        5.499930   -3.788321    0.569960
    105          1           0        3.179032   -6.734008    0.287167
    106          1           0        3.198507   -6.775769   -1.420128
    107          1           0        2.184600   -5.529154   -0.543713
    108          1           0        5.194708   -5.772078   -2.514096
    109          1           0        6.281360   -5.320949   -1.383280
    110          1           0        4.297436   -3.304162   -2.211986
    111          1           0        5.131368   -3.918288   -3.554980
    112          1           0        7.256724   -3.363663   -1.601800
    113          1           0        5.959835   -2.341885   -1.264686
    114          1           0        6.118358   -2.158185   -4.035473
    115          1           0        8.212929   -2.516585   -5.006454
    116          1           0        8.312287   -3.649114   -3.641603
    117          1           0        8.998561   -1.901906   -3.779552
    118          1           0        7.843853   -0.094933   -3.494667
    119          1           0        7.887659   -0.783885   -1.954704
    120          1           0        5.012682   -0.354764   -2.895712
    121          1           0        5.907502    1.033963   -3.414957
    122          1           0        6.291531    0.379455   -0.483454
    123          1           0        4.754802    0.802301   -0.978959
    124          1           0        5.926099    2.515028   -0.192426
    125          1           0        6.051898    3.676204   -2.974434
    126          1           0        4.799402    4.025857   -1.661428
    127          1           0        4.641644    2.726645   -2.911611
    128          1           0        7.888728    3.521159   -1.968867
    129          1           0        8.160284    1.886476   -1.908532
    130          1           0        9.289101    2.269926    0.131578
    131          1           0        7.697814    2.306793    0.829658
    132          1           0        7.921790    4.667982    1.327572
    133          1           0        8.254598    4.985561   -0.377354
    134          1           0       10.361097    3.743685    1.540831
    135          1           0       10.265678    5.248114    3.109994
    136          1           0        9.201737    6.346728    2.228920
    137          1           0       10.870911    6.350563    1.882158
    138          1           0       11.879005    5.066440    0.143439
    139          1           0       10.580351    5.805503   -0.590375
    140          1           0       10.801576    3.917577   -0.708542
 ---------------------------------------------------------------------

 SCF Done:  E(RB-LYP) =  -3007.30877473     A.U. after   22 cycles

 Excitation energies and oscillator strengths:

 Excited State   1:      Singlet-A      1.7140 eV  723.38 nm  f=0.0037  <S**2>=0.000
     244 -> 247        0.68998
     245 -> 247       -0.13818
 This state for optimization and/or second-order correction.
 Total Energy, E(TD-HF/TD-DFT) =  -3007.24578815
 Copying the excited state density for this state as the 1-particle RhoCI density.

 Excited State   2:      Singlet-A      1.7827 eV  695.50 nm  f=0.2700  <S**2>=0.000
     245 -> 248        0.20409
     246 -> 247        0.67961
     246 <- 247       -0.13944

 Excited State   3:      Singlet-A      1.9474 eV  636.67 nm  f=0.0473  <S**2>=0.000
     243 -> 247       -0.25405
     244 -> 247        0.12423
     245 -> 247        0.59403
     246 -> 248       -0.23120

 Excited State   4:      Singlet-A      2.0651 eV  600.38 nm  f=0.0083  <S**2>=0.000
     243 -> 247        0.65591
     245 -> 247        0.21092
     246 -> 248       -0.13349

 Excited State   5:      Singlet-A      2.5014 eV  495.66 nm  f=0.0012  <S**2>=0.000
     241 -> 247        0.67043
     242 -> 247       -0.21614

 The electronic state is 1-A.
 Alpha  occ. eigenvalues --  -46.29582 -18.82425 -18.81999 -18.78351 -18.77094
 Alpha  occ. eigenvalues --  -18.75639 -18.74464 -14.03483 -14.03203 -14.01761
 Alpha  occ. eigenvalues --  -14.01341 -10.05075 -10.04087  -9.99243  -9.99121
 Alpha  occ. eigenvalues --   -9.98706  -9.97411  -9.97368  -9.96982  -9.96936
 Alpha  occ. eigenvalues --   -9.96744  -9.96553  -9.96485  -9.95865  -9.95010
 Alpha  occ. eigenvalues --   -9.94784  -9.94638  -9.94520  -9.94389  -9.94368
 Alpha  occ. eigenvalues --   -9.93900  -9.93718  -9.93666  -9.93525  -9.93495
 Alpha  occ. eigenvalues --   -9.93401  -9.93353  -9.93325  -9.93286  -9.93033
 Alpha  occ. eigenvalues --   -9.92892  -9.92861  -9.92612  -9.92516  -9.92462
 Alpha  occ. eigenvalues --   -9.92323  -9.92066  -9.91798  -9.91566  -9.91468
 Alpha  occ. eigenvalues --   -9.91423  -9.91250  -9.91160  -9.91043  -9.90884
 Alpha  occ. eigenvalues --   -9.90827  -9.90761  -9.90732  -9.90621  -9.90550
 Alpha  occ. eigenvalues --   -9.90515  -9.90481  -9.90318  -9.90217  -9.90142
 Alpha  occ. eigenvalues --   -9.90097  -2.93901  -1.74262  -1.73867  -1.73573
 Alpha  occ. eigenvalues --   -0.97591  -0.97459  -0.91186  -0.91051  -0.90795
 Alpha  occ. eigenvalues --   -0.90293  -0.86472  -0.85817  -0.85269  -0.83894
 Alpha  occ. eigenvalues --   -0.77150  -0.74155  -0.73150  -0.72383  -0.72058
 Alpha  occ. eigenvalues --   -0.71884  -0.71250  -0.70741  -0.70400  -0.70328
 Alpha  occ. eigenvalues --   -0.69687  -0.68859  -0.68317  -0.67587  -0.66968
 Alpha  occ. eigenvalues --   -0.65945  -0.65756  -0.65169  -0.64952  -0.64446
 Alpha  occ. eigenvalues --   -0.63266  -0.62699  -0.62153  -0.61544  -0.60701
 Alpha  occ. eigenvalues --   -0.60368  -0.60008  -0.59604  -0.59034  -0.58643
 Alpha  occ. eigenvalues --   -0.58477  -0.57755  -0.56956  -0.55332  -0.55286
 Alpha  occ. eigenvalues --   -0.54082  -0.53931  -0.52626  -0.52333  -0.51709
 Alpha  occ. eigenvalues --   -0.51396  -0.51018  -0.50736  -0.50551  -0.50181
 Alpha  occ. eigenvalues --   -0.49756  -0.48625  -0.48574  -0.46722  -0.46404
 Alpha  occ. eigenvalues --   -0.46208  -0.45997  -0.45873  -0.45336  -0.44884
 Alpha  occ. eigenvalues --   -0.44103  -0.43890  -0.43609  -0.42992  -0.42767
 Alpha  occ. eigenvalues --   -0.42411  -0.41919  -0.41692  -0.41488  -0.41169
 Alpha  occ. eigenvalues --   -0.40757  -0.40605  -0.40556  -0.40245  -0.40112
 Alpha  occ. eigenvalues --   -0.40007  -0.39500  -0.39310  -0.39258  -0.39086
 Alpha  occ. eigenvalues --   -0.38955  -0.38858  -0.38561  -0.38468  -0.38217
 Alpha  occ. eigenvalues --   -0.38154  -0.37928  -0.37898  -0.37530  -0.37310
 Alpha  occ. eigenvalues --   -0.37013  -0.36989  -0.36695  -0.36420  -0.36352
 Alpha  occ. eigenvalues --   -0.36079  -0.35856  -0.35739  -0.35677  -0.35556
 Alpha  occ. eigenvalues --   -0.35391  -0.35196  -0.34889  -0.34696  -0.34526
 Alpha  occ. eigenvalues --   -0.34245  -0.34185  -0.33962  -0.33838  -0.33767
 Alpha  occ. eigenvalues --   -0.33676  -0.33593  -0.33432  -0.33316  -0.33169
 Alpha  occ. eigenvalues --   -0.32902  -0.32768  -0.32610  -0.32565  -0.32179
 Alpha  occ. eigenvalues --   -0.32094  -0.32064  -0.31968  -0.31865  -0.31326
 Alpha  occ. eigenvalues --   -0.31308  -0.31105  -0.30968  -0.30881  -0.30629
 Alpha  occ. eigenvalues --   -0.30419  -0.30154  -0.29883  -0.29773  -0.29471
 Alpha  occ. eigenvalues --   -0.29432  -0.29213  -0.28983  -0.28873  -0.28721
 Alpha  occ. eigenvalues --   -0.28655  -0.28215  -0.27718  -0.27561  -0.27540
 Alpha  occ. eigenvalues --   -0.27081  -0.26555  -0.26392  -0.26322  -0.26274
 Alpha  occ. eigenvalues --   -0.26254  -0.25802  -0.25518  -0.25097  -0.25018
 Alpha  occ. eigenvalues --   -0.24973  -0.24061  -0.23928  -0.23371  -0.23246
 Alpha  occ. eigenvalues --   -0.23173  -0.22610  -0.22114  -0.21656  -0.21159
 Alpha  occ. eigenvalues --   -0.20780  -0.20338  -0.18954  -0.17811  -0.17318
 Alpha  occ. eigenvalues --   -0.15908
 Alpha virt. eigenvalues --   -0.11587  -0.07542  -0.06644  -0.05439  -0.04747
 Alpha virt. eigenvalues --   -0.03351  -0.02971  -0.02639  -0.01754  -0.00148
 Alpha virt. eigenvalues --    0.01267   0.01584   0.02358   0.02684   0.03033

 Mulliken charges:
               1
     1  Mg   0.682497
     2  C    0.069208
     3  C   -0.044175
     4  C   -0.003202
     5  C   -0.045874
     6  N   -0.176220
     7  C   -0.114319
     8  C    0.050887
     9  C   -0.037482
    10  C    0.010580
    11  C    0.144727
    12  C    0.118725
    13  C    0.159867
    14  C    0.067196
    15  O   -0.191160
    16  O   -0.282889
    17  N   -0.327419
    18  C    0.121881
    19  C   -0.142989
    20  C    0.098601
    21  C    0.053805
    22  C    0.193571
    23  C   -0.130670
    24  O   -0.176563
    25  C    0.165657
    26  N   -0.194495
    27  C    0.016087
    28  C    0.008701
    29  C    0.074601
    30  C   -0.029022
    31  C    0.108485
    32  C    0.058765
    33  C    0.068824
    34  N   -0.244888
    35  C    0.091882
    36  C   -0.217989
    37  C    0.102007
    38  C    0.077455
    39  C    0.182231
    40  C   -0.088491
    41  O   -0.143076
    42  C    0.096722
    43  C    0.125662
    44  O   -0.168680
    45  O   -0.285002
    46  C    0.226576
    47  C    0.299566
    48  C   -0.103238
    49  C   -0.141057
    50  C    0.143086
    51  C    0.140528
    52  C    0.077340
    53  C    0.062589
    54  C   -0.049398
    55  C    0.129204
    56  C    0.096056
    57  C    0.108282
    58  C    0.069672
    59  C   -0.086184
    60  C    0.109157
    61  C    0.072000
    62  C    0.080074
    63  C    0.161142
    64  C   -0.124997
    65  C    0.115239
    66  C    0.087543
    67  H   -0.053368
    68  H   -0.098472
    69  H   -0.062540
    70  H   -0.041258
    71  H   -0.030078
    72  H   -0.003447
    73  H   -0.000879
    74  H   -0.016813
    75  H   -0.029915
    76  H    0.004033
    77  H   -0.008626
    78  H   -0.019104
    79  H    0.008628
    80  H    0.010206
    81  H   -0.036983
    82  H   -0.008041
    83  H    0.023753
    84  H   -0.018112
    85  H   -0.009294
    86  H   -0.024286
    87  H    0.011694
    88  H   -0.013946
    89  H   -0.013958
    90  H   -0.011945
    91  H   -0.022897
    92  H   -0.012228
    93  H    0.003882
    94  H    0.017183
    95  H    0.022239
    96  H    0.019247
    97  H   -0.005749
    98  H   -0.016588
    99  H    0.015302
   100  H    0.008401
   101  H    0.010436
   102  H    0.009422
   103  H    0.003107
   104  H   -0.024035
   105  H   -0.009574
   106  H   -0.013355
   107  H    0.027003
   108  H   -0.052325
   109  H   -0.023662
   110  H   -0.022797
   111  H   -0.028124
   112  H   -0.035944
   113  H   -0.025884
   114  H   -0.039057
   115  H   -0.032682
   116  H   -0.017972
   117  H   -0.029777
   118  H   -0.037910
   119  H   -0.024796
   120  H   -0.027537
   121  H   -0.040426
   122  H   -0.044260
   123  H   -0.046528
   124  H   -0.042483
   125  H   -0.017964
   126  H    0.003344
   127  H   -0.011508
   128  H   -0.039583
   129  H   -0.049295
   130  H   -0.022581
   131  H   -0.024011
   132  H   -0.042537
   133  H   -0.018985
   134  H   -0.035701
   135  H   -0.013880
   136  H   -0.026627
   137  H   -0.033279
   138  H   -0.029371
   139  H   -0.020868
   140  H   -0.011233
 Sum of Mulliken charges =  -0.00000

 Dipole moment (field-independent basis, Debye):
    X=             -3.1755    Y=              0.2056    Z=             -1.4964  Tot=              3.5165
 Quadrupole moment (field-independent basis, Debye-Ang):
   XX=           -368.7720   YY=           -430.6704   ZZ=           -400.6303
   XY=            -37.7504   XZ=              3.2263   YZ=             -5.7243

 Normal termination of Gaussian 16 at Thu May  5 01:36:06 2022.
