 Gaussian 16, Revision A.03,
 Gaussian 16:  ES64L-G16RevA.03 25-Dec-2016

 -----------------------------------
 #p cam-b3lyp/Def2SVP td=(nstates=5)
 -----------------------------------

 -------------------------------------------------------
 step_501_chromophore_20 TDDFT with cam-b3lyp functional
 -------------------------------------------------------
 Symbolic Z-matrix:
 Charge =  0 Multiplicity = 1

                         Standard orientation:
 ---------------------------------------------------------------------
 Center     Atomic      Atomic             Coordinates (Angstroms)
 Number     Number       Type             X           Y           Z
 ---------------------------------------------------------------------
      1         12           0       -4.189749    1.116798    0.695616
      2          6           0       -3.400641   -2.331854    0.982957
      3          6           0       -1.593433    1.744215    2.938964
      4          6           0       -4.163920    4.189053   -0.486218
      5          6           0       -6.609265    0.113796   -1.862488
      6          7           0       -2.478478   -0.200228    1.656245
      7          6           0       -2.571251   -1.543293    1.819592
      8          6           0       -1.592790   -1.987704    2.891959
      9          6           0       -1.499132   -0.784456    3.830386
     10          6           0       -1.825964    0.353246    2.734112
     11          6           0       -2.493812   -0.681860    4.988154
     12          6           0       -0.242741   -2.481732    2.210680
     13          6           0        0.253029   -3.745358    2.795821
     14          6           0        1.768817   -3.870318    3.044299
     15          8           0        2.216323   -3.931452    4.178895
     16          8           0        2.441512   -3.976027    1.854207
     17          7           0       -2.994643    2.801702    1.114191
     18          6           0       -2.023099    2.869762    2.143494
     19          6           0       -1.542983    4.228584    2.159676
     20          6           0       -2.301509    5.020716    1.257458
     21          6           0       -3.194094    4.037454    0.546573
     22          6           0       -0.418152    4.644880    3.102218
     23          6           0       -2.114928    6.461984    0.990081
     24          8           0       -1.239981    7.066364    1.597798
     25          6           0       -2.826507    7.288004   -0.030650
     26          7           0       -5.229539    1.993383   -1.080420
     27          6           0       -5.145230    3.337144   -1.143388
     28          6           0       -6.144430    3.897183   -2.171881
     29          6           0       -7.072458    2.605461   -2.532986
     30          6           0       -6.314054    1.492634   -1.764244
     31          6           0       -6.906318    5.218116   -1.704726
     32          6           0       -7.274131    2.326468   -4.055346
     33          6           0       -6.369771    1.234925   -4.722820
     34          7           0       -4.872914   -0.636274   -0.231677
     35          6           0       -5.897281   -0.870172   -1.192835
     36          6           0       -6.160524   -2.373271   -1.264730
     37          6           0       -5.164527   -2.910039   -0.464665
     38          6           0       -4.437091   -1.824179    0.141867
     39          6           0       -7.187526   -3.215483   -2.045865
     40          6           0       -4.636566   -4.131080    0.055829
     41          8           0       -5.026355   -5.291828   -0.081368
     42          6           0       -3.434786   -3.744150    0.841481
     43          6           0       -2.267916   -4.238540   -0.043725
     44          8           0       -1.812810   -3.694536   -1.047671
     45          8           0       -1.853107   -5.496988    0.473885
     46          6           0       -0.874753   -6.218348   -0.233788
     47          6           0        3.893014   -4.256173    1.987939
     48          6           0        4.605263   -4.409723    0.614760
     49          6           0        4.301441   -5.099952   -0.504253
     50          6           0        3.123063   -6.080948   -0.583671
     51          6           0        5.277280   -5.047123   -1.704694
     52          6           0        5.231052   -3.801889   -2.475582
     53          6           0        6.391363   -2.912739   -2.086528
     54          6           0        6.902040   -2.058933   -3.284530
     55          6           0        8.176685   -2.604313   -3.920365
     56          6           0        7.220473   -0.669309   -2.808745
     57          6           0        5.928268    0.205496   -2.707839
     58          6           0        5.790057    0.879298   -1.312325
     59          6           0        6.146370    2.358421   -1.248118
     60          6           0        5.320519    3.283838   -2.267097
     61          6           0        7.706281    2.673985   -1.307602
     62          6           0        8.353410    2.829735    0.133259
     63          6           0        8.499894    4.338385    0.464792
     64          6           0        9.893321    4.600499    1.055508
     65          6           0       10.053587    5.672953    2.129089
     66          6           0       10.850465    4.848567   -0.143517
     67          1           0       -0.859419    2.005597    3.704223
     68          1           0       -4.199853    5.262280   -0.683492
     69          1           0       -7.409025   -0.282047   -2.490795
     70          1           0       -1.978340   -2.788879    3.522314
     71          1           0       -0.569438   -0.562392    4.353016
     72          1           0       -2.968388   -1.628300    5.245637
     73          1           0       -3.154432    0.178116    4.875359
     74          1           0       -1.840224   -0.452073    5.830454
     75          1           0        0.527426   -1.729643    2.382215
     76          1           0       -0.269856   -2.494832    1.121044
     77          1           0       -0.106412   -4.475913    2.072004
     78          1           0       -0.241530   -3.893516    3.755683
     79          1           0       -0.771142    5.225664    3.954162
     80          1           0        0.349291    5.157103    2.523752
     81          1           0        0.066808    3.764289    3.523741
     82          1           0       -3.868140    7.384290    0.276650
     83          1           0       -2.792063    6.913516   -1.054454
     84          1           0       -2.534228    8.335796    0.027081
     85          1           0       -5.513139    4.098630   -3.037062
     86          1           0       -8.024895    2.709083   -2.014250
     87          1           0       -6.332724    5.755638   -0.949763
     88          1           0       -7.956116    5.151256   -1.416690
     89          1           0       -7.056610    5.745215   -2.648194
     90          1           0       -7.193361    3.231005   -4.657617
     91          1           0       -8.299456    1.958444   -4.083308
     92          1           0       -6.334456    1.711148   -5.702929
     93          1           0       -6.771673    0.226663   -4.825094
     94          1           0       -5.396761    1.269924   -4.232362
     95          1           0       -7.797429   -3.813768   -1.369878
     96          1           0       -6.472299   -3.912857   -2.480964
     97          1           0       -7.655194   -2.562345   -2.782291
     98          1           0       -3.422987   -4.295061    1.782006
     99          1           0       -0.610030   -7.179764    0.208083
    100          1           0        0.025147   -5.605133   -0.259442
    101          1           0       -1.303031   -6.372237   -1.224647
    102          1           0        4.027142   -5.238317    2.440024
    103          1           0        4.188157   -3.452011    2.662190
    104          1           0        5.499930   -3.788321    0.569960
    105          1           0        3.179032   -6.734008    0.287167
    106          1           0        3.198507   -6.775769   -1.420128
    107          1           0        2.184600   -5.529154   -0.543713
    108          1           0        5.194708   -5.772078   -2.514096
    109          1           0        6.281360   -5.320949   -1.383280
    110          1           0        4.297436   -3.304162   -2.211986
    111          1           0        5.131368   -3.918288   -3.554980
    112          1           0        7.256724   -3.363663   -1.601800
    113          1           0        5.959835   -2.341885   -1.264686
    114          1           0        6.118358   -2.158185   -4.035473
    115          1           0        8.212929   -2.516585   -5.006454
    116          1           0        8.312287   -3.649114   -3.641603
    117          1           0        8.998561   -1.901906   -3.779552
    118          1           0        7.843853   -0.094933   -3.494667
    119          1           0        7.887659   -0.783885   -1.954704
    120          1           0        5.012682   -0.354764   -2.895712
    121          1           0        5.907502    1.033963   -3.414957
    122          1           0        6.291531    0.379455   -0.483454
    123          1           0        4.754802    0.802301   -0.978959
    124          1           0        5.926099    2.515028   -0.192426
    125          1           0        6.051898    3.676204   -2.974434
    126          1           0        4.799402    4.025857   -1.661428
    127          1           0        4.641644    2.726645   -2.911611
    128          1           0        7.888728    3.521159   -1.968867
    129          1           0        8.160284    1.886476   -1.908532
    130          1           0        9.289101    2.269926    0.131578
    131          1           0        7.697814    2.306793    0.829658
    132          1           0        7.921790    4.667982    1.327572
    133          1           0        8.254598    4.985561   -0.377354
    134          1           0       10.361097    3.743685    1.540831
    135          1           0       10.265678    5.248114    3.109994
    136          1           0        9.201737    6.346728    2.228920
    137          1           0       10.870911    6.350563    1.882158
    138          1           0       11.879005    5.066440    0.143439
    139          1           0       10.580351    5.805503   -0.590375
    140          1           0       10.801576    3.917577   -0.708542
 ---------------------------------------------------------------------

 SCF Done:  E(RCAM-B3LYP) =  -3007.09198260     A.U. after   17 cycles

 Excitation energies and oscillator strengths:

 Excited State   1:      Singlet-A      1.6833 eV  736.53 nm  f=0.3441  <S**2>=0.000
     245 -> 248       -0.19715
     246 -> 247        0.68025
     245 <- 248       -0.11213
 This state for optimization and/or second-order correction.
 Total Energy, E(TD-HF/TD-DFT) =  -3007.03012066
 Copying the excited state density for this state as the 1-particle RhoCI density.

 Excited State   2:      Singlet-A      2.1915 eV  565.75 nm  f=0.0564  <S**2>=0.000
     245 -> 247        0.61459
     246 -> 248        0.33929

 Excited State   3:      Singlet-A      3.2551 eV  380.89 nm  f=0.0450  <S**2>=0.000
     246 -> 248       -0.20807
     246 -> 249        0.59498
     246 -> 250        0.28284

 Excited State   4:      Singlet-A      3.3538 eV  369.69 nm  f=0.3742  <S**2>=0.000
     244 -> 247        0.36825
     245 -> 247       -0.23993
     246 -> 248        0.46825
     246 -> 249        0.22696

 Excited State   5:      Singlet-A      3.4226 eV  362.25 nm  f=0.1735  <S**2>=0.000
     239 -> 247        0.19060
     239 -> 250       -0.14626
     241 -> 247        0.18945
     242 -> 247       -0.17789
     244 -> 247        0.46347
     245 -> 247        0.15514
     246 -> 248       -0.24789

 The electronic state is 1-A.
 Alpha  occ. eigenvalues --  -46.91340 -19.25284 -19.24888 -19.21549 -19.20058
 Alpha  occ. eigenvalues --  -19.18969 -19.17605 -14.42447 -14.41983 -14.40287
 Alpha  occ. eigenvalues --  -14.39798 -10.40728 -10.39367 -10.34622 -10.34158
 Alpha  occ. eigenvalues --  -10.32843 -10.31875 -10.31460 -10.31432 -10.31341
 Alpha  occ. eigenvalues --  -10.31235 -10.31007 -10.30877 -10.30125 -10.29509
 Alpha  occ. eigenvalues --  -10.29429 -10.28819 -10.28557 -10.28456 -10.28403
 Alpha  occ. eigenvalues --  -10.28187 -10.28069 -10.27994 -10.27705 -10.27646
 Alpha  occ. eigenvalues --  -10.27584 -10.27408 -10.27206 -10.27147 -10.27135
 Alpha  occ. eigenvalues --  -10.26814 -10.26737 -10.26431 -10.26425 -10.26286
 Alpha  occ. eigenvalues --  -10.25946 -10.25799 -10.25714 -10.25283 -10.25105
 Alpha  occ. eigenvalues --  -10.25090 -10.25020 -10.24994 -10.24818 -10.24671
 Alpha  occ. eigenvalues --  -10.24496 -10.24322 -10.24296 -10.24270 -10.24218
 Alpha  occ. eigenvalues --  -10.24171 -10.24086 -10.23858 -10.23784 -10.23730
 Alpha  occ. eigenvalues --  -10.23715  -3.19539  -1.94381  -1.94047  -1.93795
 Alpha  occ. eigenvalues --   -1.16014  -1.15976  -1.09664  -1.09388  -1.08803
 Alpha  occ. eigenvalues --   -1.08151  -1.04244  -1.03491  -1.02878  -1.01317
 Alpha  occ. eigenvalues --   -0.94443  -0.91013  -0.89940  -0.89134  -0.88768
 Alpha  occ. eigenvalues --   -0.88567  -0.87852  -0.87368  -0.86974  -0.86892
 Alpha  occ. eigenvalues --   -0.86124  -0.85325  -0.84554  -0.83783  -0.83157
 Alpha  occ. eigenvalues --   -0.81968  -0.81734  -0.81135  -0.80709  -0.80301
 Alpha  occ. eigenvalues --   -0.79018  -0.78383  -0.77688  -0.77099  -0.76134
 Alpha  occ. eigenvalues --   -0.75679  -0.75291  -0.74939  -0.74259  -0.73815
 Alpha  occ. eigenvalues --   -0.73558  -0.72792  -0.71876  -0.70136  -0.69955
 Alpha  occ. eigenvalues --   -0.68708  -0.68616  -0.67028  -0.66700  -0.65954
 Alpha  occ. eigenvalues --   -0.65447  -0.65013  -0.64790  -0.64608  -0.63964
 Alpha  occ. eigenvalues --   -0.63742  -0.62539  -0.62327  -0.60405  -0.60089
 Alpha  occ. eigenvalues --   -0.59823  -0.59460  -0.59261  -0.59025  -0.58302
 Alpha  occ. eigenvalues --   -0.57528  -0.57149  -0.56970  -0.56102  -0.55918
 Alpha  occ. eigenvalues --   -0.55653  -0.54940  -0.54703  -0.54433  -0.54093
 Alpha  occ. eigenvalues --   -0.53465  -0.53397  -0.53295  -0.52997  -0.52626
 Alpha  occ. eigenvalues --   -0.52565  -0.52180  -0.52052  -0.51979  -0.51714
 Alpha  occ. eigenvalues --   -0.51558  -0.51419  -0.51244  -0.50984  -0.50679
 Alpha  occ. eigenvalues --   -0.50476  -0.50248  -0.50095  -0.50015  -0.49594
 Alpha  occ. eigenvalues --   -0.49285  -0.49196  -0.49043  -0.48977  -0.48612
 Alpha  occ. eigenvalues --   -0.48491  -0.48286  -0.47861  -0.47677  -0.47602
 Alpha  occ. eigenvalues --   -0.47355  -0.47201  -0.46917  -0.46649  -0.46304
 Alpha  occ. eigenvalues --   -0.46177  -0.45985  -0.45959  -0.45911  -0.45526
 Alpha  occ. eigenvalues --   -0.45461  -0.45351  -0.45202  -0.45080  -0.44866
 Alpha  occ. eigenvalues --   -0.44576  -0.44564  -0.44463  -0.44055  -0.43813
 Alpha  occ. eigenvalues --   -0.43796  -0.43604  -0.43506  -0.43392  -0.43036
 Alpha  occ. eigenvalues --   -0.42700  -0.42538  -0.42454  -0.42076  -0.42065
 Alpha  occ. eigenvalues --   -0.41893  -0.41514  -0.41295  -0.41160  -0.41054
 Alpha  occ. eigenvalues --   -0.40775  -0.40457  -0.40376  -0.40069  -0.39983
 Alpha  occ. eigenvalues --   -0.39695  -0.39206  -0.38740  -0.38446  -0.38294
 Alpha  occ. eigenvalues --   -0.37902  -0.37783  -0.37246  -0.37118  -0.37035
 Alpha  occ. eigenvalues --   -0.36976  -0.36871  -0.36544  -0.36342  -0.36150
 Alpha  occ. eigenvalues --   -0.35608  -0.35345  -0.34413  -0.34383  -0.33811
 Alpha  occ. eigenvalues --   -0.33585  -0.33358  -0.32959  -0.31522  -0.30857
 Alpha  occ. eigenvalues --   -0.30649  -0.30572  -0.30246  -0.29516  -0.24092
 Alpha  occ. eigenvalues --   -0.21078
 Alpha virt. eigenvalues --   -0.08571  -0.02655  -0.00631   0.00082   0.02128
 Alpha virt. eigenvalues --    0.04202   0.04653   0.05075   0.05811   0.06831
 Alpha virt. eigenvalues --    0.07860   0.08554   0.08775   0.08918   0.09389

 Mulliken charges:
               1
     1  Mg   0.808884
     2  C    0.025282
     3  C   -0.060574
     4  C   -0.021918
     5  C   -0.054714
     6  N   -0.238488
     7  C   -0.064557
     8  C   -0.003745
     9  C   -0.084867
    10  C    0.023890
    11  C    0.085506
    12  C    0.064957
    13  C    0.095233
    14  C    0.146831
    15  O   -0.232948
    16  O   -0.346050
    17  N   -0.411543
    18  C    0.127559
    19  C   -0.147841
    20  C    0.024304
    21  C    0.084198
    22  C    0.141640
    23  C   -0.053872
    24  O   -0.216645
    25  C    0.078789
    26  N   -0.260321
    27  C    0.038796
    28  C   -0.046239
    29  C    0.025467
    30  C   -0.014367
    31  C    0.052458
    32  C    0.002695
    33  C    0.007462
    34  N   -0.333178
    35  C    0.096513
    36  C   -0.206657
    37  C    0.019324
    38  C    0.125371
    39  C    0.134696
    40  C    0.005911
    41  O   -0.180253
    42  C    0.016563
    43  C    0.215581
    44  O   -0.201987
    45  O   -0.348368
    46  C    0.189373
    47  C    0.271649
    48  C   -0.128262
    49  C   -0.162275
    50  C    0.085563
    51  C    0.075919
    52  C    0.022656
    53  C    0.013534
    54  C   -0.106359
    55  C    0.067744
    56  C    0.038426
    57  C    0.050196
    58  C    0.022393
    59  C   -0.136650
    60  C    0.047640
    61  C    0.021860
    62  C    0.024585
    63  C    0.100328
    64  C   -0.184207
    65  C    0.052056
    66  C    0.032839
    67  H   -0.019518
    68  H   -0.066357
    69  H   -0.026112
    70  H   -0.006122
    71  H    0.006047
    72  H    0.020838
    73  H    0.025229
    74  H    0.008415
    75  H    0.002742
    76  H    0.035271
    77  H    0.019764
    78  H    0.014903
    79  H    0.034942
    80  H    0.037832
    81  H   -0.011620
    82  H    0.019314
    83  H    0.050430
    84  H    0.019777
    85  H    0.023766
    86  H    0.010441
    87  H    0.032554
    88  H    0.011894
    89  H    0.010056
    90  H    0.015640
    91  H    0.005435
    92  H    0.012212
    93  H    0.025402
    94  H    0.039949
    95  H    0.049629
    96  H    0.045428
    97  H    0.017017
    98  H    0.030437
    99  H    0.038585
   100  H    0.021139
   101  H    0.034466
   102  H    0.035856
   103  H    0.033855
   104  H    0.006252
   105  H    0.013965
   106  H    0.012486
   107  H    0.047773
   108  H   -0.017659
   109  H    0.007705
   110  H    0.007596
   111  H    0.000705
   112  H   -0.008384
   113  H   -0.000173
   114  H   -0.006754
   115  H   -0.006263
   116  H    0.006312
   117  H   -0.003733
   118  H   -0.008303
   119  H    0.002341
   120  H    0.000762
   121  H   -0.011163
   122  H   -0.017914
   123  H   -0.014917
   124  H   -0.010814
   125  H    0.004746
   126  H    0.027768
   127  H    0.011717
   128  H   -0.011421
   129  H   -0.022848
   130  H    0.005031
   131  H    0.003090
   132  H   -0.011663
   133  H    0.008800
   134  H   -0.003380
   135  H    0.010703
   136  H   -0.001619
   137  H   -0.007199
   138  H   -0.004200
   139  H    0.002463
   140  H    0.010866
 Sum of Mulliken charges =  -0.00000

 Dipole moment (field-independent basis, Debye):
    X=             -3.4471    Y=              0.3943    Z=             -1.5442  Tot=              3.7977
 Quadrupole moment (field-independent basis, Debye-Ang):
   XX=           -364.6050   YY=           -427.9047   ZZ=           -399.6153
   XY=            -39.0406   XZ=              4.0197   YZ=             -6.1827

 Normal termination of Gaussian 16 at Wed May  4 23:50:32 2022.
