 Gaussian 16, Revision A.03,
 Gaussian 16:  ES64L-G16RevA.03 25-Dec-2016

 ---------------------------------
 #p PBE1PBE/Def2SVP td=(nstates=5)
 ---------------------------------

 -----------------------------------------------------
 step_501_chromophore_20 TDDFT with PBE1PBE functional
 -----------------------------------------------------
 Symbolic Z-matrix:
 Charge =  0 Multiplicity = 1

                         Standard orientation:
 ---------------------------------------------------------------------
 Center     Atomic      Atomic             Coordinates (Angstroms)
 Number     Number       Type             X           Y           Z
 ---------------------------------------------------------------------
      1         12           0       -4.189749    1.116798    0.695616
      2          6           0       -3.400641   -2.331854    0.982957
      3          6           0       -1.593433    1.744215    2.938964
      4          6           0       -4.163920    4.189053   -0.486218
      5          6           0       -6.609265    0.113796   -1.862488
      6          7           0       -2.478478   -0.200228    1.656245
      7          6           0       -2.571251   -1.543293    1.819592
      8          6           0       -1.592790   -1.987704    2.891959
      9          6           0       -1.499132   -0.784456    3.830386
     10          6           0       -1.825964    0.353246    2.734112
     11          6           0       -2.493812   -0.681860    4.988154
     12          6           0       -0.242741   -2.481732    2.210680
     13          6           0        0.253029   -3.745358    2.795821
     14          6           0        1.768817   -3.870318    3.044299
     15          8           0        2.216323   -3.931452    4.178895
     16          8           0        2.441512   -3.976027    1.854207
     17          7           0       -2.994643    2.801702    1.114191
     18          6           0       -2.023099    2.869762    2.143494
     19          6           0       -1.542983    4.228584    2.159676
     20          6           0       -2.301509    5.020716    1.257458
     21          6           0       -3.194094    4.037454    0.546573
     22          6           0       -0.418152    4.644880    3.102218
     23          6           0       -2.114928    6.461984    0.990081
     24          8           0       -1.239981    7.066364    1.597798
     25          6           0       -2.826507    7.288004   -0.030650
     26          7           0       -5.229539    1.993383   -1.080420
     27          6           0       -5.145230    3.337144   -1.143388
     28          6           0       -6.144430    3.897183   -2.171881
     29          6           0       -7.072458    2.605461   -2.532986
     30          6           0       -6.314054    1.492634   -1.764244
     31          6           0       -6.906318    5.218116   -1.704726
     32          6           0       -7.274131    2.326468   -4.055346
     33          6           0       -6.369771    1.234925   -4.722820
     34          7           0       -4.872914   -0.636274   -0.231677
     35          6           0       -5.897281   -0.870172   -1.192835
     36          6           0       -6.160524   -2.373271   -1.264730
     37          6           0       -5.164527   -2.910039   -0.464665
     38          6           0       -4.437091   -1.824179    0.141867
     39          6           0       -7.187526   -3.215483   -2.045865
     40          6           0       -4.636566   -4.131080    0.055829
     41          8           0       -5.026355   -5.291828   -0.081368
     42          6           0       -3.434786   -3.744150    0.841481
     43          6           0       -2.267916   -4.238540   -0.043725
     44          8           0       -1.812810   -3.694536   -1.047671
     45          8           0       -1.853107   -5.496988    0.473885
     46          6           0       -0.874753   -6.218348   -0.233788
     47          6           0        3.893014   -4.256173    1.987939
     48          6           0        4.605263   -4.409723    0.614760
     49          6           0        4.301441   -5.099952   -0.504253
     50          6           0        3.123063   -6.080948   -0.583671
     51          6           0        5.277280   -5.047123   -1.704694
     52          6           0        5.231052   -3.801889   -2.475582
     53          6           0        6.391363   -2.912739   -2.086528
     54          6           0        6.902040   -2.058933   -3.284530
     55          6           0        8.176685   -2.604313   -3.920365
     56          6           0        7.220473   -0.669309   -2.808745
     57          6           0        5.928268    0.205496   -2.707839
     58          6           0        5.790057    0.879298   -1.312325
     59          6           0        6.146370    2.358421   -1.248118
     60          6           0        5.320519    3.283838   -2.267097
     61          6           0        7.706281    2.673985   -1.307602
     62          6           0        8.353410    2.829735    0.133259
     63          6           0        8.499894    4.338385    0.464792
     64          6           0        9.893321    4.600499    1.055508
     65          6           0       10.053587    5.672953    2.129089
     66          6           0       10.850465    4.848567   -0.143517
     67          1           0       -0.859419    2.005597    3.704223
     68          1           0       -4.199853    5.262280   -0.683492
     69          1           0       -7.409025   -0.282047   -2.490795
     70          1           0       -1.978340   -2.788879    3.522314
     71          1           0       -0.569438   -0.562392    4.353016
     72          1           0       -2.968388   -1.628300    5.245637
     73          1           0       -3.154432    0.178116    4.875359
     74          1           0       -1.840224   -0.452073    5.830454
     75          1           0        0.527426   -1.729643    2.382215
     76          1           0       -0.269856   -2.494832    1.121044
     77          1           0       -0.106412   -4.475913    2.072004
     78          1           0       -0.241530   -3.893516    3.755683
     79          1           0       -0.771142    5.225664    3.954162
     80          1           0        0.349291    5.157103    2.523752
     81          1           0        0.066808    3.764289    3.523741
     82          1           0       -3.868140    7.384290    0.276650
     83          1           0       -2.792063    6.913516   -1.054454
     84          1           0       -2.534228    8.335796    0.027081
     85          1           0       -5.513139    4.098630   -3.037062
     86          1           0       -8.024895    2.709083   -2.014250
     87          1           0       -6.332724    5.755638   -0.949763
     88          1           0       -7.956116    5.151256   -1.416690
     89          1           0       -7.056610    5.745215   -2.648194
     90          1           0       -7.193361    3.231005   -4.657617
     91          1           0       -8.299456    1.958444   -4.083308
     92          1           0       -6.334456    1.711148   -5.702929
     93          1           0       -6.771673    0.226663   -4.825094
     94          1           0       -5.396761    1.269924   -4.232362
     95          1           0       -7.797429   -3.813768   -1.369878
     96          1           0       -6.472299   -3.912857   -2.480964
     97          1           0       -7.655194   -2.562345   -2.782291
     98          1           0       -3.422987   -4.295061    1.782006
     99          1           0       -0.610030   -7.179764    0.208083
    100          1           0        0.025147   -5.605133   -0.259442
    101          1           0       -1.303031   -6.372237   -1.224647
    102          1           0        4.027142   -5.238317    2.440024
    103          1           0        4.188157   -3.452011    2.662190
    104          1           0        5.499930   -3.788321    0.569960
    105          1           0        3.179032   -6.734008    0.287167
    106          1           0        3.198507   -6.775769   -1.420128
    107          1           0        2.184600   -5.529154   -0.543713
    108          1           0        5.194708   -5.772078   -2.514096
    109          1           0        6.281360   -5.320949   -1.383280
    110          1           0        4.297436   -3.304162   -2.211986
    111          1           0        5.131368   -3.918288   -3.554980
    112          1           0        7.256724   -3.363663   -1.601800
    113          1           0        5.959835   -2.341885   -1.264686
    114          1           0        6.118358   -2.158185   -4.035473
    115          1           0        8.212929   -2.516585   -5.006454
    116          1           0        8.312287   -3.649114   -3.641603
    117          1           0        8.998561   -1.901906   -3.779552
    118          1           0        7.843853   -0.094933   -3.494667
    119          1           0        7.887659   -0.783885   -1.954704
    120          1           0        5.012682   -0.354764   -2.895712
    121          1           0        5.907502    1.033963   -3.414957
    122          1           0        6.291531    0.379455   -0.483454
    123          1           0        4.754802    0.802301   -0.978959
    124          1           0        5.926099    2.515028   -0.192426
    125          1           0        6.051898    3.676204   -2.974434
    126          1           0        4.799402    4.025857   -1.661428
    127          1           0        4.641644    2.726645   -2.911611
    128          1           0        7.888728    3.521159   -1.968867
    129          1           0        8.160284    1.886476   -1.908532
    130          1           0        9.289101    2.269926    0.131578
    131          1           0        7.697814    2.306793    0.829658
    132          1           0        7.921790    4.667982    1.327572
    133          1           0        8.254598    4.985561   -0.377354
    134          1           0       10.361097    3.743685    1.540831
    135          1           0       10.265678    5.248114    3.109994
    136          1           0        9.201737    6.346728    2.228920
    137          1           0       10.870911    6.350563    1.882158
    138          1           0       11.879005    5.066440    0.143439
    139          1           0       10.580351    5.805503   -0.590375
    140          1           0       10.801576    3.917577   -0.708542
 ---------------------------------------------------------------------

 SCF Done:  E(RPBE1PBE) =  -3005.28314671     A.U. after   15 cycles

 Excitation energies and oscillator strengths:

 Excited State   1:      Singlet-A      1.8399 eV  673.86 nm  f=0.3357  <S**2>=0.000
     245 -> 248       -0.18868
     246 -> 247        0.68709
 This state for optimization and/or second-order correction.
 Total Energy, E(TD-HF/TD-DFT) =  -3005.21553084
 Copying the excited state density for this state as the 1-particle RhoCI density.

 Excited State   2:      Singlet-A      2.1947 eV  564.93 nm  f=0.0649  <S**2>=0.000
     245 -> 247        0.63451
     246 -> 248        0.29954

 Excited State   3:      Singlet-A      2.8911 eV  428.85 nm  f=0.0004  <S**2>=0.000
     243 -> 247       -0.14222
     244 -> 247        0.65232
     244 -> 249       -0.11588
     244 -> 251        0.12721

 Excited State   4:      Singlet-A      3.0222 eV  410.25 nm  f=0.0033  <S**2>=0.000
     239 -> 247        0.12974
     241 -> 247       -0.39559
     241 -> 249       -0.14463
     242 -> 247       -0.12092
     243 -> 247        0.50649

 Excited State   5:      Singlet-A      3.1048 eV  399.33 nm  f=0.0360  <S**2>=0.000
     241 -> 247        0.40290
     242 -> 247        0.15245
     243 -> 247        0.42537
     244 -> 247        0.11464
     246 -> 248        0.27216

 The electronic state is 1-A.
 Alpha  occ. eigenvalues --  -46.94713 -19.25971 -19.25540 -19.21725 -19.20364
 Alpha  occ. eigenvalues --  -19.19134 -19.17851 -14.41908 -14.41538 -14.39899
 Alpha  occ. eigenvalues --  -14.39481 -10.37777 -10.36429 -10.31681 -10.31313
 Alpha  occ. eigenvalues --  -10.30233 -10.29664 -10.29248 -10.29236 -10.29022
 Alpha  occ. eigenvalues --  -10.28731 -10.28636 -10.28425 -10.27908 -10.27105
 Alpha  occ. eigenvalues --  -10.27036 -10.26673 -10.26397 -10.26264 -10.26206
 Alpha  occ. eigenvalues --  -10.25926 -10.25755 -10.25541 -10.25375 -10.25328
 Alpha  occ. eigenvalues --  -10.25242 -10.25201 -10.24916 -10.24770 -10.24580
 Alpha  occ. eigenvalues --  -10.24330 -10.24321 -10.23996 -10.23913 -10.23771
 Alpha  occ. eigenvalues --  -10.23324 -10.23147 -10.23117 -10.22768 -10.22703
 Alpha  occ. eigenvalues --  -10.22684 -10.22659 -10.22657 -10.22478 -10.22366
 Alpha  occ. eigenvalues --  -10.22047 -10.21820 -10.21803 -10.21800 -10.21732
 Alpha  occ. eigenvalues --  -10.21728 -10.21660 -10.21256 -10.21245 -10.21158
 Alpha  occ. eigenvalues --  -10.21115  -3.16501  -1.89278  -1.88926  -1.88677
 Alpha  occ. eigenvalues --   -1.10830  -1.10701  -1.04327  -1.04148  -1.03591
 Alpha  occ. eigenvalues --   -1.03042  -0.98834  -0.98091  -0.97508  -0.96004
 Alpha  occ. eigenvalues --   -0.88807  -0.85137  -0.84162  -0.83225  -0.83049
 Alpha  occ. eigenvalues --   -0.82672  -0.82127  -0.81641  -0.81227  -0.81046
 Alpha  occ. eigenvalues --   -0.80397  -0.79663  -0.78757  -0.78069  -0.77415
 Alpha  occ. eigenvalues --   -0.76105  -0.75955  -0.75347  -0.75009  -0.74601
 Alpha  occ. eigenvalues --   -0.73142  -0.72650  -0.72016  -0.71399  -0.70454
 Alpha  occ. eigenvalues --   -0.69856  -0.69644  -0.69023  -0.68383  -0.67972
 Alpha  occ. eigenvalues --   -0.67809  -0.67207  -0.66343  -0.64417  -0.64296
 Alpha  occ. eigenvalues --   -0.63093  -0.62866  -0.61532  -0.60886  -0.60154
 Alpha  occ. eigenvalues --   -0.59913  -0.59491  -0.59263  -0.59160  -0.58476
 Alpha  occ. eigenvalues --   -0.57904  -0.56872  -0.56702  -0.54638  -0.54607
 Alpha  occ. eigenvalues --   -0.54365  -0.54029  -0.53779  -0.53404  -0.52944
 Alpha  occ. eigenvalues --   -0.51920  -0.51631  -0.51360  -0.50632  -0.50512
 Alpha  occ. eigenvalues --   -0.50222  -0.49437  -0.49283  -0.48850  -0.48661
 Alpha  occ. eigenvalues --   -0.48059  -0.47982  -0.47792  -0.47440  -0.47281
 Alpha  occ. eigenvalues --   -0.46994  -0.46750  -0.46611  -0.46489  -0.46206
 Alpha  occ. eigenvalues --   -0.46055  -0.45892  -0.45738  -0.45569  -0.45255
 Alpha  occ. eigenvalues --   -0.45046  -0.44802  -0.44632  -0.44553  -0.44192
 Alpha  occ. eigenvalues --   -0.43836  -0.43764  -0.43666  -0.43534  -0.43245
 Alpha  occ. eigenvalues --   -0.43165  -0.42926  -0.42506  -0.42333  -0.42237
 Alpha  occ. eigenvalues --   -0.42018  -0.41873  -0.41669  -0.41319  -0.40865
 Alpha  occ. eigenvalues --   -0.40846  -0.40652  -0.40639  -0.40617  -0.40235
 Alpha  occ. eigenvalues --   -0.40139  -0.40017  -0.39946  -0.39721  -0.39537
 Alpha  occ. eigenvalues --   -0.39296  -0.39285  -0.39225  -0.38730  -0.38566
 Alpha  occ. eigenvalues --   -0.38519  -0.38338  -0.38226  -0.38203  -0.37854
 Alpha  occ. eigenvalues --   -0.37440  -0.37370  -0.37278  -0.37027  -0.36820
 Alpha  occ. eigenvalues --   -0.36719  -0.36322  -0.36153  -0.35948  -0.35880
 Alpha  occ. eigenvalues --   -0.35645  -0.35373  -0.35091  -0.34914  -0.34717
 Alpha  occ. eigenvalues --   -0.34419  -0.34097  -0.33641  -0.33332  -0.33247
 Alpha  occ. eigenvalues --   -0.32796  -0.32703  -0.32180  -0.32045  -0.31900
 Alpha  occ. eigenvalues --   -0.31771  -0.31747  -0.31426  -0.31232  -0.31169
 Alpha  occ. eigenvalues --   -0.30426  -0.30159  -0.29605  -0.29300  -0.29023
 Alpha  occ. eigenvalues --   -0.28652  -0.28470  -0.27877  -0.26793  -0.26289
 Alpha  occ. eigenvalues --   -0.25923  -0.25852  -0.25262  -0.24868  -0.21030
 Alpha  occ. eigenvalues --   -0.18785
 Alpha virt. eigenvalues --   -0.11115  -0.06034  -0.04421  -0.03166  -0.02219
 Alpha virt. eigenvalues --   -0.00314   0.00091   0.00499   0.01282   0.02851
 Alpha virt. eigenvalues --    0.04195   0.04690   0.05215   0.05593   0.05802

 Mulliken charges:
               1
     1  Mg   0.939961
     2  C    0.012795
     3  C   -0.061064
     4  C   -0.030644
     5  C   -0.047958
     6  N   -0.324695
     7  C    0.015892
     8  C   -0.080267
     9  C   -0.157572
    10  C    0.053230
    11  C    0.032928
    12  C    0.026407
    13  C    0.007733
    14  C    0.212010
    15  O   -0.266203
    16  O   -0.373943
    17  N   -0.519349
    18  C    0.157087
    19  C   -0.174631
    20  C   -0.036013
    21  C    0.125169
    22  C    0.085314
    23  C   -0.001946
    24  O   -0.250104
    25  C    0.001049
    26  N   -0.358063
    27  C    0.079042
    28  C   -0.121901
    29  C   -0.041000
    30  C    0.020159
    31  C   -0.007476
    32  C   -0.059341
    33  C   -0.068326
    34  N   -0.460298
    35  C    0.107522
    36  C   -0.206320
    37  C   -0.024711
    38  C    0.180194
    39  C    0.076631
    40  C    0.089403
    41  O   -0.227841
    42  C   -0.100066
    43  C    0.302980
    44  O   -0.235898
    45  O   -0.379674
    46  C    0.129536
    47  C    0.233226
    48  C   -0.138246
    49  C   -0.212836
    50  C    0.016173
    51  C    0.016946
    52  C   -0.039397
    53  C   -0.033197
    54  C   -0.198131
    55  C    0.011301
    56  C   -0.019845
    57  C   -0.012542
    58  C   -0.030380
    59  C   -0.219971
    60  C   -0.016035
    61  C   -0.028129
    62  C   -0.041285
    63  C    0.042108
    64  C   -0.275366
    65  C   -0.007605
    66  C   -0.029785
    67  H    0.012315
    68  H   -0.025803
    69  H    0.005950
    70  H    0.030995
    71  H    0.040703
    72  H    0.047887
    73  H    0.053145
    74  H    0.036008
    75  H    0.036262
    76  H    0.066686
    77  H    0.062609
    78  H    0.047604
    79  H    0.062648
    80  H    0.065483
    81  H    0.016276
    82  H    0.047190
    83  H    0.075174
    84  H    0.048122
    85  H    0.061502
    86  H    0.048294
    87  H    0.059240
    88  H    0.038949
    89  H    0.037969
    90  H    0.047062
    91  H    0.038625
    92  H    0.041023
    93  H    0.052266
    94  H    0.070495
    95  H    0.076179
    96  H    0.072990
    97  H    0.043960
    98  H    0.066058
    99  H    0.060610
   100  H    0.046734
   101  H    0.057456
   102  H    0.062197
   103  H    0.058441
   104  H    0.037084
   105  H    0.041785
   106  H    0.039049
   107  H    0.080976
   108  H    0.014306
   109  H    0.040176
   110  H    0.042078
   111  H    0.031566
   112  H    0.021887
   113  H    0.034629
   114  H    0.030209
   115  H    0.022295
   116  H    0.033463
   117  H    0.023132
   118  H    0.024621
   119  H    0.033265
   120  H    0.032955
   121  H    0.022978
   122  H    0.014047
   123  H    0.019088
   124  H    0.028078
   125  H    0.031692
   126  H    0.055564
   127  H    0.038574
   128  H    0.019275
   129  H    0.014188
   130  H    0.035716
   131  H    0.035219
   132  H    0.022923
   133  H    0.039369
   134  H    0.034809
   135  H    0.037833
   136  H    0.025658
   137  H    0.020360
   138  H    0.024282
   139  H    0.030716
   140  H    0.040110
 Sum of Mulliken charges =  -0.00000

 Dipole moment (field-independent basis, Debye):
    X=             -3.4179    Y=              0.4984    Z=             -1.5254  Tot=              3.7759
 Quadrupole moment (field-independent basis, Debye-Ang):
   XX=           -361.1457   YY=           -424.8161   ZZ=           -395.6076
   XY=            -39.7173   XZ=              4.9870   YZ=             -6.2799

 Normal termination of Gaussian 16 at Thu May  5 00:24:16 2022.
