 Gaussian 16, Revision A.03,
 Gaussian 16:  ES64L-G16RevA.03 25-Dec-2016

 --------------------------------
 #p wB97XD/Def2SVP td=(nstates=5)
 --------------------------------

 ----------------------------------------------------
 step_501_chromophore_20 TDDFT with wB97XD functional
 ----------------------------------------------------
 Symbolic Z-matrix:
 Charge =  0 Multiplicity = 1

                         Standard orientation:
 ---------------------------------------------------------------------
 Center     Atomic      Atomic             Coordinates (Angstroms)
 Number     Number       Type             X           Y           Z
 ---------------------------------------------------------------------
      1         12           0       -4.189749    1.116798    0.695616
      2          6           0       -3.400641   -2.331854    0.982957
      3          6           0       -1.593433    1.744215    2.938964
      4          6           0       -4.163920    4.189053   -0.486218
      5          6           0       -6.609265    0.113796   -1.862488
      6          7           0       -2.478478   -0.200228    1.656245
      7          6           0       -2.571251   -1.543293    1.819592
      8          6           0       -1.592790   -1.987704    2.891959
      9          6           0       -1.499132   -0.784456    3.830386
     10          6           0       -1.825964    0.353246    2.734112
     11          6           0       -2.493812   -0.681860    4.988154
     12          6           0       -0.242741   -2.481732    2.210680
     13          6           0        0.253029   -3.745358    2.795821
     14          6           0        1.768817   -3.870318    3.044299
     15          8           0        2.216323   -3.931452    4.178895
     16          8           0        2.441512   -3.976027    1.854207
     17          7           0       -2.994643    2.801702    1.114191
     18          6           0       -2.023099    2.869762    2.143494
     19          6           0       -1.542983    4.228584    2.159676
     20          6           0       -2.301509    5.020716    1.257458
     21          6           0       -3.194094    4.037454    0.546573
     22          6           0       -0.418152    4.644880    3.102218
     23          6           0       -2.114928    6.461984    0.990081
     24          8           0       -1.239981    7.066364    1.597798
     25          6           0       -2.826507    7.288004   -0.030650
     26          7           0       -5.229539    1.993383   -1.080420
     27          6           0       -5.145230    3.337144   -1.143388
     28          6           0       -6.144430    3.897183   -2.171881
     29          6           0       -7.072458    2.605461   -2.532986
     30          6           0       -6.314054    1.492634   -1.764244
     31          6           0       -6.906318    5.218116   -1.704726
     32          6           0       -7.274131    2.326468   -4.055346
     33          6           0       -6.369771    1.234925   -4.722820
     34          7           0       -4.872914   -0.636274   -0.231677
     35          6           0       -5.897281   -0.870172   -1.192835
     36          6           0       -6.160524   -2.373271   -1.264730
     37          6           0       -5.164527   -2.910039   -0.464665
     38          6           0       -4.437091   -1.824179    0.141867
     39          6           0       -7.187526   -3.215483   -2.045865
     40          6           0       -4.636566   -4.131080    0.055829
     41          8           0       -5.026355   -5.291828   -0.081368
     42          6           0       -3.434786   -3.744150    0.841481
     43          6           0       -2.267916   -4.238540   -0.043725
     44          8           0       -1.812810   -3.694536   -1.047671
     45          8           0       -1.853107   -5.496988    0.473885
     46          6           0       -0.874753   -6.218348   -0.233788
     47          6           0        3.893014   -4.256173    1.987939
     48          6           0        4.605263   -4.409723    0.614760
     49          6           0        4.301441   -5.099952   -0.504253
     50          6           0        3.123063   -6.080948   -0.583671
     51          6           0        5.277280   -5.047123   -1.704694
     52          6           0        5.231052   -3.801889   -2.475582
     53          6           0        6.391363   -2.912739   -2.086528
     54          6           0        6.902040   -2.058933   -3.284530
     55          6           0        8.176685   -2.604313   -3.920365
     56          6           0        7.220473   -0.669309   -2.808745
     57          6           0        5.928268    0.205496   -2.707839
     58          6           0        5.790057    0.879298   -1.312325
     59          6           0        6.146370    2.358421   -1.248118
     60          6           0        5.320519    3.283838   -2.267097
     61          6           0        7.706281    2.673985   -1.307602
     62          6           0        8.353410    2.829735    0.133259
     63          6           0        8.499894    4.338385    0.464792
     64          6           0        9.893321    4.600499    1.055508
     65          6           0       10.053587    5.672953    2.129089
     66          6           0       10.850465    4.848567   -0.143517
     67          1           0       -0.859419    2.005597    3.704223
     68          1           0       -4.199853    5.262280   -0.683492
     69          1           0       -7.409025   -0.282047   -2.490795
     70          1           0       -1.978340   -2.788879    3.522314
     71          1           0       -0.569438   -0.562392    4.353016
     72          1           0       -2.968388   -1.628300    5.245637
     73          1           0       -3.154432    0.178116    4.875359
     74          1           0       -1.840224   -0.452073    5.830454
     75          1           0        0.527426   -1.729643    2.382215
     76          1           0       -0.269856   -2.494832    1.121044
     77          1           0       -0.106412   -4.475913    2.072004
     78          1           0       -0.241530   -3.893516    3.755683
     79          1           0       -0.771142    5.225664    3.954162
     80          1           0        0.349291    5.157103    2.523752
     81          1           0        0.066808    3.764289    3.523741
     82          1           0       -3.868140    7.384290    0.276650
     83          1           0       -2.792063    6.913516   -1.054454
     84          1           0       -2.534228    8.335796    0.027081
     85          1           0       -5.513139    4.098630   -3.037062
     86          1           0       -8.024895    2.709083   -2.014250
     87          1           0       -6.332724    5.755638   -0.949763
     88          1           0       -7.956116    5.151256   -1.416690
     89          1           0       -7.056610    5.745215   -2.648194
     90          1           0       -7.193361    3.231005   -4.657617
     91          1           0       -8.299456    1.958444   -4.083308
     92          1           0       -6.334456    1.711148   -5.702929
     93          1           0       -6.771673    0.226663   -4.825094
     94          1           0       -5.396761    1.269924   -4.232362
     95          1           0       -7.797429   -3.813768   -1.369878
     96          1           0       -6.472299   -3.912857   -2.480964
     97          1           0       -7.655194   -2.562345   -2.782291
     98          1           0       -3.422987   -4.295061    1.782006
     99          1           0       -0.610030   -7.179764    0.208083
    100          1           0        0.025147   -5.605133   -0.259442
    101          1           0       -1.303031   -6.372237   -1.224647
    102          1           0        4.027142   -5.238317    2.440024
    103          1           0        4.188157   -3.452011    2.662190
    104          1           0        5.499930   -3.788321    0.569960
    105          1           0        3.179032   -6.734008    0.287167
    106          1           0        3.198507   -6.775769   -1.420128
    107          1           0        2.184600   -5.529154   -0.543713
    108          1           0        5.194708   -5.772078   -2.514096
    109          1           0        6.281360   -5.320949   -1.383280
    110          1           0        4.297436   -3.304162   -2.211986
    111          1           0        5.131368   -3.918288   -3.554980
    112          1           0        7.256724   -3.363663   -1.601800
    113          1           0        5.959835   -2.341885   -1.264686
    114          1           0        6.118358   -2.158185   -4.035473
    115          1           0        8.212929   -2.516585   -5.006454
    116          1           0        8.312287   -3.649114   -3.641603
    117          1           0        8.998561   -1.901906   -3.779552
    118          1           0        7.843853   -0.094933   -3.494667
    119          1           0        7.887659   -0.783885   -1.954704
    120          1           0        5.012682   -0.354764   -2.895712
    121          1           0        5.907502    1.033963   -3.414957
    122          1           0        6.291531    0.379455   -0.483454
    123          1           0        4.754802    0.802301   -0.978959
    124          1           0        5.926099    2.515028   -0.192426
    125          1           0        6.051898    3.676204   -2.974434
    126          1           0        4.799402    4.025857   -1.661428
    127          1           0        4.641644    2.726645   -2.911611
    128          1           0        7.888728    3.521159   -1.968867
    129          1           0        8.160284    1.886476   -1.908532
    130          1           0        9.289101    2.269926    0.131578
    131          1           0        7.697814    2.306793    0.829658
    132          1           0        7.921790    4.667982    1.327572
    133          1           0        8.254598    4.985561   -0.377354
    134          1           0       10.361097    3.743685    1.540831
    135          1           0       10.265678    5.248114    3.109994
    136          1           0        9.201737    6.346728    2.228920
    137          1           0       10.870911    6.350563    1.882158
    138          1           0       11.879005    5.066440    0.143439
    139          1           0       10.580351    5.805503   -0.590375
    140          1           0       10.801576    3.917577   -0.708542
 ---------------------------------------------------------------------

 SCF Done:  E(RwB97XD) =  -3007.79448340     A.U. after   20 cycles

 Excitation energies and oscillator strengths:

 Excited State   1:      Singlet-A      1.6228 eV  763.99 nm  f=0.3417  <S**2>=0.000
     245 -> 248       -0.20423
     246 -> 247        0.67806
     245 <- 248       -0.12290
 This state for optimization and/or second-order correction.
 Total Energy, E(TD-HF/TD-DFT) =  -3007.73484476
 Copying the excited state density for this state as the 1-particle RhoCI density.

 Excited State   2:      Singlet-A      2.1336 eV  581.11 nm  f=0.0543  <S**2>=0.000
     245 -> 247        0.61279
     246 -> 248        0.34212

 Excited State   3:      Singlet-A      3.3515 eV  369.93 nm  f=0.4684  <S**2>=0.000
     244 -> 247       -0.33944
     245 -> 247       -0.26744
     246 -> 248        0.53090
     245 <- 247        0.10321

 Excited State   4:      Singlet-A      3.4412 eV  360.30 nm  f=0.1240  <S**2>=0.000
     239 -> 247       -0.15241
     239 -> 249       -0.14991
     241 -> 247        0.26821
     241 -> 249        0.12529
     243 -> 249        0.10874
     243 -> 251       -0.11521
     244 -> 247        0.46509
     245 -> 247       -0.13260
     246 -> 248        0.20467

 Excited State   5:      Singlet-A      3.4853 eV  355.73 nm  f=0.0135  <S**2>=0.000
     239 -> 247       -0.10510
     243 -> 247        0.51519
     243 -> 248        0.11946
     243 -> 249       -0.20229
     243 -> 251        0.27873

 The electronic state is 1-A.
 Alpha  occ. eigenvalues --  -46.97688 -19.30521 -19.30136 -19.26491 -19.25019
 Alpha  occ. eigenvalues --  -19.24045 -19.22597 -14.47029 -14.46550 -14.44869
 Alpha  occ. eigenvalues --  -14.44379 -10.44637 -10.43200 -10.38640 -10.38085
 Alpha  occ. eigenvalues --  -10.36734 -10.35891 -10.35484 -10.35483 -10.35386
 Alpha  occ. eigenvalues --  -10.35071 -10.34974 -10.34906 -10.34157 -10.33602
 Alpha  occ. eigenvalues --  -10.33525 -10.32868 -10.32603 -10.32525 -10.32438
 Alpha  occ. eigenvalues --  -10.32297 -10.32094 -10.32026 -10.31815 -10.31677
 Alpha  occ. eigenvalues --  -10.31635 -10.31506 -10.31211 -10.31106 -10.31074
 Alpha  occ. eigenvalues --  -10.30693 -10.30691 -10.30384 -10.30343 -10.30140
 Alpha  occ. eigenvalues --  -10.29785 -10.29648 -10.29551 -10.29184 -10.29077
 Alpha  occ. eigenvalues --  -10.29032 -10.29011 -10.28960 -10.28741 -10.28649
 Alpha  occ. eigenvalues --  -10.28399 -10.28185 -10.28179 -10.28148 -10.28141
 Alpha  occ. eigenvalues --  -10.28106 -10.28022 -10.27681 -10.27606 -10.27572
 Alpha  occ. eigenvalues --  -10.27546  -3.23392  -1.96907  -1.96554  -1.96304
 Alpha  occ. eigenvalues --   -1.18200  -1.18149  -1.11907  -1.11570  -1.11011
 Alpha  occ. eigenvalues --   -1.10365  -1.06244  -1.05479  -1.04901  -1.03332
 Alpha  occ. eigenvalues --   -0.96463  -0.92796  -0.91784  -0.90892  -0.90664
 Alpha  occ. eigenvalues --   -0.90328  -0.89726  -0.89285  -0.88862  -0.88701
 Alpha  occ. eigenvalues --   -0.88016  -0.87266  -0.86404  -0.85701  -0.85057
 Alpha  occ. eigenvalues --   -0.83768  -0.83639  -0.83037  -0.82636  -0.82243
 Alpha  occ. eigenvalues --   -0.80812  -0.80308  -0.79607  -0.79025  -0.78089
 Alpha  occ. eigenvalues --   -0.77520  -0.77229  -0.76713  -0.76059  -0.75632
 Alpha  occ. eigenvalues --   -0.75443  -0.74780  -0.73858  -0.72042  -0.71869
 Alpha  occ. eigenvalues --   -0.70650  -0.70511  -0.69025  -0.68535  -0.67792
 Alpha  occ. eigenvalues --   -0.67401  -0.66958  -0.66763  -0.66613  -0.65942
 Alpha  occ. eigenvalues --   -0.65566  -0.64342  -0.64330  -0.62238  -0.62063
 Alpha  occ. eigenvalues --   -0.61814  -0.61424  -0.61219  -0.60984  -0.60303
 Alpha  occ. eigenvalues --   -0.59427  -0.59071  -0.58860  -0.58030  -0.57877
 Alpha  occ. eigenvalues --   -0.57624  -0.56845  -0.56651  -0.56293  -0.56046
 Alpha  occ. eigenvalues --   -0.55383  -0.55341  -0.55181  -0.54867  -0.54544
 Alpha  occ. eigenvalues --   -0.54414  -0.54097  -0.53966  -0.53898  -0.53640
 Alpha  occ. eigenvalues --   -0.53448  -0.53306  -0.53117  -0.52896  -0.52584
 Alpha  occ. eigenvalues --   -0.52376  -0.52128  -0.51996  -0.51925  -0.51525
 Alpha  occ. eigenvalues --   -0.51215  -0.51081  -0.50988  -0.50868  -0.50518
 Alpha  occ. eigenvalues --   -0.50420  -0.50192  -0.49747  -0.49566  -0.49491
 Alpha  occ. eigenvalues --   -0.49254  -0.49139  -0.48830  -0.48529  -0.48132
 Alpha  occ. eigenvalues --   -0.48080  -0.47928  -0.47899  -0.47824  -0.47423
 Alpha  occ. eigenvalues --   -0.47300  -0.47271  -0.47122  -0.46938  -0.46737
 Alpha  occ. eigenvalues --   -0.46478  -0.46445  -0.46381  -0.45901  -0.45815
 Alpha  occ. eigenvalues --   -0.45674  -0.45470  -0.45412  -0.45301  -0.45016
 Alpha  occ. eigenvalues --   -0.44568  -0.44462  -0.44392  -0.43998  -0.43917
 Alpha  occ. eigenvalues --   -0.43808  -0.43433  -0.43273  -0.43091  -0.42946
 Alpha  occ. eigenvalues --   -0.42699  -0.42351  -0.42216  -0.41931  -0.41818
 Alpha  occ. eigenvalues --   -0.41519  -0.41088  -0.40643  -0.40266  -0.40204
 Alpha  occ. eigenvalues --   -0.39736  -0.39712  -0.39236  -0.39093  -0.38974
 Alpha  occ. eigenvalues --   -0.38848  -0.38768  -0.38477  -0.38216  -0.38086
 Alpha  occ. eigenvalues --   -0.37430  -0.37307  -0.36418  -0.36209  -0.35795
 Alpha  occ. eigenvalues --   -0.35569  -0.35415  -0.34778  -0.33582  -0.33021
 Alpha  occ. eigenvalues --   -0.32767  -0.32632  -0.32166  -0.31660  -0.25999
 Alpha  occ. eigenvalues --   -0.22866
 Alpha virt. eigenvalues --   -0.06914  -0.00762   0.01812   0.02908   0.04282
 Alpha virt. eigenvalues --    0.06413   0.06836   0.07319   0.08165   0.09530
 Alpha virt. eigenvalues --    0.10892   0.11597   0.11728   0.12279   0.12388

 Mulliken charges:
               1
     1  Mg   0.936572
     2  C    0.009907
     3  C   -0.075081
     4  C   -0.029968
     5  C   -0.064243
     6  N   -0.298261
     7  C   -0.019552
     8  C   -0.048343
     9  C   -0.132932
    10  C    0.042513
    11  C    0.038442
    12  C    0.027576
    13  C    0.038356
    14  C    0.202416
    15  O   -0.264080
    16  O   -0.373655
    17  N   -0.490454
    18  C    0.146111
    19  C   -0.165390
    20  C   -0.024877
    21  C    0.111817
    22  C    0.096080
    23  C   -0.006949
    24  O   -0.246182
    25  C    0.014030
    26  N   -0.325754
    27  C    0.063047
    28  C   -0.098372
    29  C   -0.020422
    30  C    0.007425
    31  C    0.005981
    32  C   -0.047039
    33  C   -0.048145
    34  N   -0.422539
    35  C    0.106365
    36  C   -0.210854
    37  C   -0.023657
    38  C    0.161564
    39  C    0.091031
    40  C    0.075727
    41  O   -0.216414
    42  C   -0.054924
    43  C    0.276535
    44  O   -0.228782
    45  O   -0.377412
    46  C    0.150261
    47  C    0.246712
    48  C   -0.149863
    49  C   -0.194600
    50  C    0.034976
    51  C    0.032588
    52  C   -0.021944
    53  C   -0.020774
    54  C   -0.163070
    55  C    0.020832
    56  C   -0.002623
    57  C    0.003961
    58  C   -0.015545
    59  C   -0.188673
    60  C   -0.003482
    61  C   -0.012660
    62  C   -0.022875
    63  C    0.056218
    64  C   -0.243977
    65  C    0.001926
    66  C   -0.015720
    67  H    0.005752
    68  H   -0.047245
    69  H   -0.000909
    70  H    0.016253
    71  H    0.033165
    72  H    0.042941
    73  H    0.046363
    74  H    0.031036
    75  H    0.028389
    76  H    0.060325
    77  H    0.044083
    78  H    0.041220
    79  H    0.058745
    80  H    0.061361
    81  H    0.010109
    82  H    0.040949
    83  H    0.071561
    84  H    0.047025
    85  H    0.050719
    86  H    0.037929
    87  H    0.052487
    88  H    0.033982
    89  H    0.031540
    90  H    0.040223
    91  H    0.031048
    92  H    0.035555
    93  H    0.046404
    94  H    0.060372
    95  H    0.073029
    96  H    0.067673
    97  H    0.038947
    98  H    0.061541
    99  H    0.057880
   100  H    0.034454
   101  H    0.053617
   102  H    0.056862
   103  H    0.055421
   104  H    0.031832
   105  H    0.035538
   106  H    0.034824
   107  H    0.070080
   108  H    0.008534
   109  H    0.031213
   110  H    0.031859
   111  H    0.023795
   112  H    0.011885
   113  H    0.019908
   114  H    0.017388
   115  H    0.016877
   116  H    0.027876
   117  H    0.016573
   118  H    0.015173
   119  H    0.022799
   120  H    0.024453
   121  H    0.012554
   122  H    0.003416
   123  H    0.011212
   124  H    0.013749
   125  H    0.024745
   126  H    0.051246
   127  H    0.032300
   128  H    0.008301
   129  H    0.000802
   130  H    0.027340
   131  H    0.026182
   132  H    0.013942
   133  H    0.030294
   134  H    0.023077
   135  H    0.033019
   136  H    0.019702
   137  H    0.014377
   138  H    0.018132
   139  H    0.023370
   140  H    0.031944
 Sum of Mulliken charges =  -0.00000

 Dipole moment (field-independent basis, Debye):
    X=             -3.5232    Y=              0.3927    Z=             -1.5663  Tot=              3.8757
 Quadrupole moment (field-independent basis, Debye-Ang):
   XX=           -360.1051   YY=           -423.5740   ZZ=           -395.7657
   XY=            -39.1055   XZ=              4.5070   YZ=             -5.9854

 Normal termination of Gaussian 16 at Thu May  5 01:13:24 2022.
