 Gaussian 16, Revision A.03,
 Gaussian 16:  ES64L-G16RevA.03 25-Dec-2016

 --------------------
 #p ZINDO=(nstates=5)
 --------------------

 -----------------------------
 step_501_chromophore_20 ZINDO
 -----------------------------
 Symbolic Z-matrix:
 Charge =  0 Multiplicity = 1

                         Standard orientation:
 ---------------------------------------------------------------------
 Center     Atomic      Atomic             Coordinates (Angstroms)
 Number     Number       Type             X           Y           Z
 ---------------------------------------------------------------------
      1         12           0       -4.189749    1.116798    0.695616
      2          6           0       -3.400641   -2.331854    0.982957
      3          6           0       -1.593433    1.744215    2.938964
      4          6           0       -4.163920    4.189053   -0.486218
      5          6           0       -6.609265    0.113796   -1.862488
      6          7           0       -2.478478   -0.200228    1.656245
      7          6           0       -2.571251   -1.543293    1.819592
      8          6           0       -1.592790   -1.987704    2.891959
      9          6           0       -1.499132   -0.784456    3.830386
     10          6           0       -1.825964    0.353246    2.734112
     11          6           0       -2.493812   -0.681860    4.988154
     12          6           0       -0.242741   -2.481732    2.210680
     13          6           0        0.253029   -3.745358    2.795821
     14          6           0        1.768817   -3.870318    3.044299
     15          8           0        2.216323   -3.931452    4.178895
     16          8           0        2.441512   -3.976027    1.854207
     17          7           0       -2.994643    2.801702    1.114191
     18          6           0       -2.023099    2.869762    2.143494
     19          6           0       -1.542983    4.228584    2.159676
     20          6           0       -2.301509    5.020716    1.257458
     21          6           0       -3.194094    4.037454    0.546573
     22          6           0       -0.418152    4.644880    3.102218
     23          6           0       -2.114928    6.461984    0.990081
     24          8           0       -1.239981    7.066364    1.597798
     25          6           0       -2.826507    7.288004   -0.030650
     26          7           0       -5.229539    1.993383   -1.080420
     27          6           0       -5.145230    3.337144   -1.143388
     28          6           0       -6.144430    3.897183   -2.171881
     29          6           0       -7.072458    2.605461   -2.532986
     30          6           0       -6.314054    1.492634   -1.764244
     31          6           0       -6.906318    5.218116   -1.704726
     32          6           0       -7.274131    2.326468   -4.055346
     33          6           0       -6.369771    1.234925   -4.722820
     34          7           0       -4.872914   -0.636274   -0.231677
     35          6           0       -5.897281   -0.870172   -1.192835
     36          6           0       -6.160524   -2.373271   -1.264730
     37          6           0       -5.164527   -2.910039   -0.464665
     38          6           0       -4.437091   -1.824179    0.141867
     39          6           0       -7.187526   -3.215483   -2.045865
     40          6           0       -4.636566   -4.131080    0.055829
     41          8           0       -5.026355   -5.291828   -0.081368
     42          6           0       -3.434786   -3.744150    0.841481
     43          6           0       -2.267916   -4.238540   -0.043725
     44          8           0       -1.812810   -3.694536   -1.047671
     45          8           0       -1.853107   -5.496988    0.473885
     46          6           0       -0.874753   -6.218348   -0.233788
     47          6           0        3.893014   -4.256173    1.987939
     48          6           0        4.605263   -4.409723    0.614760
     49          6           0        4.301441   -5.099952   -0.504253
     50          6           0        3.123063   -6.080948   -0.583671
     51          6           0        5.277280   -5.047123   -1.704694
     52          6           0        5.231052   -3.801889   -2.475582
     53          6           0        6.391363   -2.912739   -2.086528
     54          6           0        6.902040   -2.058933   -3.284530
     55          6           0        8.176685   -2.604313   -3.920365
     56          6           0        7.220473   -0.669309   -2.808745
     57          6           0        5.928268    0.205496   -2.707839
     58          6           0        5.790057    0.879298   -1.312325
     59          6           0        6.146370    2.358421   -1.248118
     60          6           0        5.320519    3.283838   -2.267097
     61          6           0        7.706281    2.673985   -1.307602
     62          6           0        8.353410    2.829735    0.133259
     63          6           0        8.499894    4.338385    0.464792
     64          6           0        9.893321    4.600499    1.055508
     65          6           0       10.053587    5.672953    2.129089
     66          6           0       10.850465    4.848567   -0.143517
     67          1           0       -0.859419    2.005597    3.704223
     68          1           0       -4.199853    5.262280   -0.683492
     69          1           0       -7.409025   -0.282047   -2.490795
     70          1           0       -1.978340   -2.788879    3.522314
     71          1           0       -0.569438   -0.562392    4.353016
     72          1           0       -2.968388   -1.628300    5.245637
     73          1           0       -3.154432    0.178116    4.875359
     74          1           0       -1.840224   -0.452073    5.830454
     75          1           0        0.527426   -1.729643    2.382215
     76          1           0       -0.269856   -2.494832    1.121044
     77          1           0       -0.106412   -4.475913    2.072004
     78          1           0       -0.241530   -3.893516    3.755683
     79          1           0       -0.771142    5.225664    3.954162
     80          1           0        0.349291    5.157103    2.523752
     81          1           0        0.066808    3.764289    3.523741
     82          1           0       -3.868140    7.384290    0.276650
     83          1           0       -2.792063    6.913516   -1.054454
     84          1           0       -2.534228    8.335796    0.027081
     85          1           0       -5.513139    4.098630   -3.037062
     86          1           0       -8.024895    2.709083   -2.014250
     87          1           0       -6.332724    5.755638   -0.949763
     88          1           0       -7.956116    5.151256   -1.416690
     89          1           0       -7.056610    5.745215   -2.648194
     90          1           0       -7.193361    3.231005   -4.657617
     91          1           0       -8.299456    1.958444   -4.083308
     92          1           0       -6.334456    1.711148   -5.702929
     93          1           0       -6.771673    0.226663   -4.825094
     94          1           0       -5.396761    1.269924   -4.232362
     95          1           0       -7.797429   -3.813768   -1.369878
     96          1           0       -6.472299   -3.912857   -2.480964
     97          1           0       -7.655194   -2.562345   -2.782291
     98          1           0       -3.422987   -4.295061    1.782006
     99          1           0       -0.610030   -7.179764    0.208083
    100          1           0        0.025147   -5.605133   -0.259442
    101          1           0       -1.303031   -6.372237   -1.224647
    102          1           0        4.027142   -5.238317    2.440024
    103          1           0        4.188157   -3.452011    2.662190
    104          1           0        5.499930   -3.788321    0.569960
    105          1           0        3.179032   -6.734008    0.287167
    106          1           0        3.198507   -6.775769   -1.420128
    107          1           0        2.184600   -5.529154   -0.543713
    108          1           0        5.194708   -5.772078   -2.514096
    109          1           0        6.281360   -5.320949   -1.383280
    110          1           0        4.297436   -3.304162   -2.211986
    111          1           0        5.131368   -3.918288   -3.554980
    112          1           0        7.256724   -3.363663   -1.601800
    113          1           0        5.959835   -2.341885   -1.264686
    114          1           0        6.118358   -2.158185   -4.035473
    115          1           0        8.212929   -2.516585   -5.006454
    116          1           0        8.312287   -3.649114   -3.641603
    117          1           0        8.998561   -1.901906   -3.779552
    118          1           0        7.843853   -0.094933   -3.494667
    119          1           0        7.887659   -0.783885   -1.954704
    120          1           0        5.012682   -0.354764   -2.895712
    121          1           0        5.907502    1.033963   -3.414957
    122          1           0        6.291531    0.379455   -0.483454
    123          1           0        4.754802    0.802301   -0.978959
    124          1           0        5.926099    2.515028   -0.192426
    125          1           0        6.051898    3.676204   -2.974434
    126          1           0        4.799402    4.025857   -1.661428
    127          1           0        4.641644    2.726645   -2.911611
    128          1           0        7.888728    3.521159   -1.968867
    129          1           0        8.160284    1.886476   -1.908532
    130          1           0        9.289101    2.269926    0.131578
    131          1           0        7.697814    2.306793    0.829658
    132          1           0        7.921790    4.667982    1.327572
    133          1           0        8.254598    4.985561   -0.377354
    134          1           0       10.361097    3.743685    1.540831
    135          1           0       10.265678    5.248114    3.109994
    136          1           0        9.201737    6.346728    2.228920
    137          1           0       10.870911    6.350563    1.882158
    138          1           0       11.879005    5.066440    0.143439
    139          1           0       10.580351    5.805503   -0.590375
    140          1           0       10.801576    3.917577   -0.708542
 ---------------------------------------------------------------------

 SCF Done:  E(RZINDO/S) =  -474.039093732     A.U. after   20 cycles

 Excitation energies and oscillator strengths:

 Excited State   1:      Singlet-A      1.2016 eV 1031.84 nm  f=0.5479  <S**2>=0.000
     175 ->178         0.20990
     176 ->177         0.65689
 This state for optimization and/or second-order correction.
 Total Energy, E(CIS/TDA) =  -473.994936182
 Copying the excited state density for this state as the 1-particle RhoCI density.

 Excited State   2:      Singlet-A      1.8267 eV  678.73 nm  f=0.0080  <S**2>=0.000
     175 ->177         0.51519
     176 ->178        -0.46378

 Excited State   3:      Singlet-A      2.5679 eV  482.82 nm  f=0.0047  <S**2>=0.000
     176 ->179         0.19297
     176 ->180         0.67224

 Excited State   4:      Singlet-A      2.8408 eV  436.44 nm  f=0.0362  <S**2>=0.000
     175 ->177        -0.11256
     176 ->179         0.61805
     176 ->180        -0.16648

 Excited State   5:      Singlet-A      2.8533 eV  434.53 nm  f=0.0742  <S**2>=0.000
     170 ->177         0.28077
     170 ->178         0.13970
     170 ->179         0.18402
     170 ->181         0.37873
     170 ->184         0.15914
     170 ->186        -0.23033
     170 ->187        -0.12011
     175 ->177        -0.12045
     176 ->178        -0.13511

 The electronic state is 1-A.
 Alpha  occ. eigenvalues --   -1.84549  -1.78662  -1.77342  -1.72537  -1.72141
 Alpha  occ. eigenvalues --   -1.69308  -1.66501  -1.61424  -1.60657  -1.59802
 Alpha  occ. eigenvalues --   -1.55744  -1.51344  -1.50082  -1.48516  -1.46041
 Alpha  occ. eigenvalues --   -1.44846  -1.44039  -1.39316  -1.38206  -1.36330
 Alpha  occ. eigenvalues --   -1.35891  -1.34103  -1.33183  -1.30010  -1.27147
 Alpha  occ. eigenvalues --   -1.25896  -1.24903  -1.21973  -1.20544  -1.18408
 Alpha  occ. eigenvalues --   -1.16838  -1.14745  -1.14511  -1.13533  -1.12670
 Alpha  occ. eigenvalues --   -1.12406  -1.11302  -1.09400  -1.05185  -1.03219
 Alpha  occ. eigenvalues --   -1.02812  -1.01266  -0.98971  -0.97706  -0.97354
 Alpha  occ. eigenvalues --   -0.96717  -0.95155  -0.94167  -0.93353  -0.92982
 Alpha  occ. eigenvalues --   -0.90679  -0.89916  -0.88103  -0.87234  -0.86183
 Alpha  occ. eigenvalues --   -0.85062  -0.83404  -0.83099  -0.81201  -0.79807
 Alpha  occ. eigenvalues --   -0.79711  -0.78962  -0.77120  -0.76793  -0.76630
 Alpha  occ. eigenvalues --   -0.75947  -0.75788  -0.75137  -0.75010  -0.73938
 Alpha  occ. eigenvalues --   -0.72859  -0.72568  -0.72279  -0.71692  -0.71348
 Alpha  occ. eigenvalues --   -0.70487  -0.70203  -0.69779  -0.69384  -0.68205
 Alpha  occ. eigenvalues --   -0.67424  -0.66825  -0.65907  -0.65632  -0.65293
 Alpha  occ. eigenvalues --   -0.64800  -0.64497  -0.64337  -0.64151  -0.63623
 Alpha  occ. eigenvalues --   -0.63329  -0.62766  -0.62592  -0.62471  -0.62085
 Alpha  occ. eigenvalues --   -0.61722  -0.61431  -0.60897  -0.60370  -0.59830
 Alpha  occ. eigenvalues --   -0.59715  -0.59155  -0.58837  -0.58412  -0.58277
 Alpha  occ. eigenvalues --   -0.58033  -0.57258  -0.56614  -0.56194  -0.56029
 Alpha  occ. eigenvalues --   -0.55844  -0.55717  -0.55539  -0.55379  -0.54935
 Alpha  occ. eigenvalues --   -0.54684  -0.54544  -0.53792  -0.53198  -0.52954
 Alpha  occ. eigenvalues --   -0.52442  -0.52265  -0.52123  -0.51674  -0.51603
 Alpha  occ. eigenvalues --   -0.50785  -0.50568  -0.50180  -0.49913  -0.49865
 Alpha  occ. eigenvalues --   -0.49339  -0.49200  -0.49096  -0.48800  -0.48782
 Alpha  occ. eigenvalues --   -0.48566  -0.48456  -0.48283  -0.47839  -0.47515
 Alpha  occ. eigenvalues --   -0.47213  -0.47007  -0.46808  -0.46671  -0.46430
 Alpha  occ. eigenvalues --   -0.45901  -0.45666  -0.45317  -0.44969  -0.44908
 Alpha  occ. eigenvalues --   -0.44722  -0.44717  -0.44449  -0.44054  -0.43448
 Alpha  occ. eigenvalues --   -0.42916  -0.42812  -0.42449  -0.42093  -0.42062
 Alpha  occ. eigenvalues --   -0.41980  -0.40461  -0.39653  -0.39640  -0.38907
 Alpha  occ. eigenvalues --   -0.38391  -0.37577  -0.35395  -0.35048  -0.34544
 Alpha  occ. eigenvalues --   -0.33610  -0.32628  -0.32427  -0.31967  -0.26511
 Alpha  occ. eigenvalues --   -0.21493
 Alpha virt. eigenvalues --   -0.08374  -0.02792  -0.01419  -0.00467   0.00905
 Alpha virt. eigenvalues --    0.01839   0.02426   0.02767   0.04683   0.04772
 Alpha virt. eigenvalues --    0.06092   0.07037   0.07369   0.07727   0.07960

 Mulliken charges:
               1
     1  Mg   0.456151
     2  C   -0.062299
     3  C   -0.083804
     4  C   -0.085399
     5  C   -0.050193
     6  N   -0.299323
     7  C    0.139325
     8  C    0.018707
     9  C    0.001418
    10  C    0.118500
    11  C   -0.052123
    12  C   -0.015594
    13  C    0.003047
    14  C    0.469019
    15  O   -0.514857
    16  O   -0.270056
    17  N   -0.331520
    18  C    0.092599
    19  C    0.045141
    20  C   -0.044141
    21  C    0.110461
    22  C   -0.037981
    23  C    0.330460
    24  O   -0.533596
    25  C   -0.025806
    26  N   -0.261218
    27  C    0.126258
    28  C   -0.003987
    29  C   -0.001932
    30  C    0.110872
    31  C   -0.060411
    32  C   -0.028925
    33  C   -0.062293
    34  N   -0.315291
    35  C    0.078132
    36  C    0.038052
    37  C   -0.060696
    38  C    0.133069
    39  C   -0.041122
    40  C    0.341717
    41  O   -0.539448
    42  C    0.079601
    43  C    0.483216
    44  O   -0.508437
    45  O   -0.281871
    46  C    0.078685
    47  C    0.101064
    48  C   -0.090004
    49  C    0.009189
    50  C   -0.043383
    51  C   -0.018327
    52  C   -0.019955
    53  C   -0.036057
    54  C   -0.010575
    55  C   -0.068305
    56  C   -0.025890
    57  C   -0.038359
    58  C   -0.032607
    59  C   -0.023811
    60  C   -0.060372
    61  C   -0.048903
    62  C   -0.031136
    63  C   -0.026197
    64  C   -0.016125
    65  C   -0.057210
    66  C   -0.065836
    67  H    0.031102
    68  H    0.019186
    69  H    0.036177
    70  H    0.020131
    71  H    0.036558
    72  H    0.026313
    73  H    0.032494
    74  H    0.013652
    75  H    0.019860
    76  H    0.039443
    77  H    0.041178
    78  H    0.034681
    79  H    0.039528
    80  H    0.040556
    81  H    0.013869
    82  H    0.026370
    83  H    0.038988
    84  H    0.035905
    85  H    0.037613
    86  H    0.031722
    87  H    0.034704
    88  H    0.026193
    89  H    0.014341
    90  H    0.026735
    91  H    0.013774
    92  H    0.013047
    93  H    0.033485
    94  H    0.031792
    95  H    0.050945
    96  H    0.042889
    97  H    0.033547
    98  H    0.049385
    99  H    0.035255
   100  H    0.037004
   101  H    0.044494
   102  H    0.047517
   103  H    0.057207
   104  H    0.022361
   105  H    0.022025
   106  H    0.023264
   107  H    0.038949
   108  H    0.011880
   109  H    0.019751
   110  H    0.015391
   111  H    0.018664
   112  H    0.021183
   113  H    0.014413
   114  H    0.023841
   115  H    0.009811
   116  H    0.023213
   117  H    0.023048
   118  H    0.006315
   119  H    0.028060
   120  H    0.019257
   121  H    0.023084
   122  H    0.014214
   123  H    0.004090
   124  H    0.015172
   125  H    0.021509
   126  H    0.027591
   127  H    0.022429
   128  H    0.018659
   129  H    0.011298
   130  H    0.022833
   131  H    0.023849
   132  H    0.016736
   133  H    0.032889
   134  H    0.016816
   135  H    0.017412
   136  H    0.014675
   137  H    0.013384
   138  H    0.007763
   139  H    0.021969
   140  H    0.025251
 Sum of Mulliken charges =  -0.00000

 Dipole moment (field-independent basis, Debye):
    X=             -5.6099    Y=              0.5750    Z=             -1.1537  Tot=              5.7561
 N-N= 4.534818589765D+03 E-N= 0.000000000000D+00  KE=-9.743925484300D+03
 Leave Link  601 at Thu May  5 01:36:13 2022, MaxMem=  6710886400 cpu:               1.1 elap:               0.1
 (Enter /sw/apps/gaussian-16.0/g16/l9999.exe)
 1\1\GINC-BP1-COMPUTE168\SP\RZINDO CIS\STO-3G\C55H74Mg1N4O6\OF15641\05-
 May-2022\0\\#p ZINDO=(nstates=5)\\step_501_chromophore_20 ZINDO\\0,1\M
 g,0,7.636,56.802,41.945\C,0,6.625,53.446,41.385\C,0,10.681,55.975,40.4
 58\C,0,8.032,60.025,41.405\C,0,4.228,57.385,43.149\N,0,8.45,54.913,40.
 781\C,0,7.957,53.661,40.95\C,0,8.99,52.648,40.49\C,0,10.329,53.333,40.
 764\C,0,9.814,54.854,40.608\C,0,10.976,53.149,42.138\C,0,8.688,52.223,
 38.987\C,0,8.786,50.762,38.785\C,0,9.472,50.264,37.498\O,0,10.538,49.6

 Normal termination of Gaussian 16 at Thu May  5 01:36:14 2022.
