 Gaussian 16, Revision A.03,
 Gaussian 16:  ES64L-G16RevA.03 25-Dec-2016

 ------------------------------
 #p blyp/Def2SVP td=(nstates=5)
 ------------------------------

 --------------------------------------------------
 step_301_chromophore_19 TDDFT with blyp functional
 --------------------------------------------------
 Symbolic Z-matrix:
 Charge =  0 Multiplicity = 1

                         Standard orientation:
 ---------------------------------------------------------------------
 Center     Atomic      Atomic             Coordinates (Angstroms)
 Number     Number       Type             X           Y           Z
 ---------------------------------------------------------------------
      1         12           0       -5.901792    0.285809   -0.143797
      2          6           0       -3.240707   -2.096996   -0.445200
      3          6           0       -3.586826    2.690538    0.340319
      4          6           0       -8.445429    2.370918    0.554979
      5          6           0       -8.189615   -2.252523   -0.518225
      6          7           0       -3.649718    0.265757   -0.133590
      7          6           0       -2.762330   -0.817855   -0.270787
      8          6           0       -1.318444   -0.393355   -0.235122
      9          6           0       -1.454464    1.131456    0.214865
     10          6           0       -2.996204    1.398119    0.105598
     11          6           0       -0.821185    1.539819    1.566599
     12          6           0       -0.528451   -0.559228   -1.584974
     13          6           0        0.957040   -0.966456   -1.647597
     14          6           0        1.949629   -0.688082   -0.439132
     15          8           0        1.615871   -0.344481    0.683643
     16          8           0        3.258765   -0.785798   -0.904638
     17          7           0       -6.032027    2.249268    0.293088
     18          6           0       -4.956038    3.091164    0.406988
     19          6           0       -5.486763    4.465683    0.631124
     20          6           0       -6.927119    4.417576    0.584415
     21          6           0       -7.208026    2.982660    0.376825
     22          6           0       -4.518517    5.652128    0.839669
     23          6           0       -7.907157    5.532478    0.734213
     24          8           0       -9.115106    5.454722    0.601747
     25          6           0       -7.375396    6.903753    0.876667
     26          7           0       -7.989983    0.065007    0.116771
     27          6           0       -8.808125    1.058514    0.442360
     28          6           0      -10.306240    0.633973    0.542776
     29          6           0      -10.269652   -0.851561    0.101007
     30          6           0       -8.737631   -1.031722   -0.110786
     31          6           0      -10.861240    0.726803    2.006249
     32          6           0      -11.028065   -1.232399   -1.232148
     33          6           0      -12.558438   -1.332197   -0.983489
     34          7           0       -5.761546   -1.753631   -0.459028
     35          6           0       -6.812242   -2.608975   -0.706619
     36          6           0       -6.232467   -3.854978   -1.046677
     37          6           0       -4.791588   -3.716418   -0.867185
     38          6           0       -4.616042   -2.365903   -0.594041
     39          6           0       -6.978873   -5.012523   -1.512939
     40          6           0       -3.559791   -4.359557   -0.888970
     41          8           0       -3.173923   -5.500673   -1.190978
     42          6           0       -2.519774   -3.385183   -0.600492
     43          6           0       -1.857008   -3.855593    0.640268
     44          8           0       -2.379207   -4.068186    1.736381
     45          8           0       -0.552346   -4.119138    0.359515
     46          6           0        0.184023   -4.781203    1.385797
     47          6           0        4.226031   -0.348517    0.141838
     48          6           0        5.530551   -0.295930   -0.570110
     49          6           0        6.696248    0.078212   -0.074640
     50          6           0        6.917417    0.909649    1.184706
     51          6           0        7.938427   -0.050081   -0.866918
     52          6           0        8.060199    0.932259   -2.114992
     53          6           0        8.956301    2.176841   -1.743397
     54          6           0       10.229842    2.467309   -2.599496
     55          6           0        9.880283    3.281555   -3.827135
     56          6           0       10.952379    1.183983   -3.026770
     57          6           0       12.375576    1.137526   -2.504796
     58          6           0       12.506140    0.286054   -1.221547
     59          6           0       13.410391    0.951483   -0.132697
     60          6           0       14.888030    1.026124   -0.581074
     61          6           0       13.226755    0.083609    1.140897
     62          6           0       11.957376    0.569649    1.902155
     63          6           0       11.009623   -0.672472    2.271845
     64          6           0       11.534951   -1.289684    3.575668
     65          6           0       11.626680   -2.790519    3.397166
     66          6           0       10.611144   -1.011760    4.785537
     67          1           0       -3.000534    3.578543    0.587262
     68          1           0       -9.175666    3.133538    0.831195
     69          1           0       -8.749365   -3.163043   -0.743685
     70          1           0       -0.944519   -0.923796    0.640854
     71          1           0       -1.093702    1.759738   -0.598743
     72          1           0       -0.222748    0.754932    2.030069
     73          1           0       -1.525351    1.880939    2.325464
     74          1           0       -0.185763    2.417042    1.447503
     75          1           0       -0.658691    0.287884   -2.258349
     76          1           0       -1.106085   -1.307309   -2.128539
     77          1           0        1.391364   -0.628015   -2.588525
     78          1           0        0.937158   -2.051152   -1.750375
     79          1           0       -4.344542    6.119168   -0.129611
     80          1           0       -3.604828    5.344190    1.347157
     81          1           0       -4.953170    6.339227    1.565436
     82          1           0       -6.748423    7.095849    0.006610
     83          1           0       -6.846431    7.110345    1.806914
     84          1           0       -8.204006    7.609152    0.805399
     85          1           0      -10.873683    1.216487   -0.183924
     86          1           0      -10.502531   -1.597894    0.859812
     87          1           0      -10.170186    0.912569    2.828680
     88          1           0      -11.600776   -0.070796    2.071966
     89          1           0      -11.438360    1.651863    1.989547
     90          1           0      -10.662397   -2.174331   -1.640249
     91          1           0      -10.869543   -0.450712   -1.975747
     92          1           0      -12.767621   -1.246744    0.082974
     93          1           0      -13.070840   -2.217713   -1.359846
     94          1           0      -13.039967   -0.428364   -1.357219
     95          1           0       -6.343136   -5.887501   -1.644877
     96          1           0       -7.415404   -4.910899   -2.506587
     97          1           0       -7.659662   -5.349610   -0.731230
     98          1           0       -1.907108   -3.440984   -1.500693
     99          1           0       -0.067488   -5.841861    1.390887
    100          1           0       -0.005730   -4.350386    2.369875
    101          1           0        1.223297   -4.736708    1.061973
    102          1           0        4.448474   -1.062542    0.935867
    103          1           0        3.961714    0.621177    0.562596
    104          1           0        5.632154   -0.831975   -1.513291
    105          1           0        7.110397    0.221670    2.008359
    106          1           0        5.971741    1.445859    1.264579
    107          1           0        7.696631    1.609280    0.884067
    108          1           0        7.877743   -1.081461   -1.212561
    109          1           0        8.866641   -0.121446   -0.298926
    110          1           0        7.057732    1.303783   -2.328389
    111          1           0        8.264284    0.466450   -3.078694
    112          1           0        9.316586    2.249923   -0.716083
    113          1           0        8.273551    3.021439   -1.837080
    114          1           0       10.806363    3.178748   -2.010104
    115          1           0        8.916559    3.783881   -3.750746
    116          1           0        9.816395    2.670094   -4.727229
    117          1           0       10.747246    3.905758   -4.045077
    118          1           0       11.051545    1.112353   -4.109551
    119          1           0       10.472960    0.285694   -2.637797
    120          1           0       12.746763    2.150119   -2.344352
    121          1           0       12.930677    0.504302   -3.196215
    122          1           0       12.945157   -0.695467   -1.401857
    123          1           0       11.534076    0.121569   -0.757455
    124          1           0       12.973879    1.950444   -0.123207
    125          1           0       15.627822    0.725726    0.160618
    126          1           0       14.962392    2.083708   -0.834919
    127          1           0       15.106680    0.403994   -1.449500
    128          1           0       14.103804    0.277015    1.757921
    129          1           0       13.210633   -0.969112    0.860360
    130          1           0       11.443646    1.262947    1.237671
    131          1           0       12.334719    1.108232    2.772183
    132          1           0       10.930643   -1.310552    1.391081
    133          1           0       10.055041   -0.189177    2.480795
    134          1           0       12.584272   -1.067194    3.770609
    135          1           0       12.512524   -3.133226    3.930686
    136          1           0       11.940559   -2.969220    2.368621
    137          1           0       10.670911   -3.244318    3.656944
    138          1           0       10.643284   -0.016462    5.227547
    139          1           0       10.938192   -1.753332    5.513992
    140          1           0        9.552906   -1.107409    4.541234
 ---------------------------------------------------------------------

 SCF Done:  E(RB-LYP) =  -3007.34581540     A.U. after   22 cycles

 Excitation energies and oscillator strengths:

 Excited State   1:      Singlet-A      1.6101 eV  770.06 nm  f=0.0007  <S**2>=0.000
     244 -> 247        0.64527
     245 -> 247        0.28415
 This state for optimization and/or second-order correction.
 Total Energy, E(TD-HF/TD-DFT) =  -3007.28664669
 Copying the excited state density for this state as the 1-particle RhoCI density.

 Excited State   2:      Singlet-A      1.8187 eV  681.72 nm  f=0.3002  <S**2>=0.000
     245 -> 248       -0.14222
     245 -> 249        0.11326
     246 -> 247        0.68958
     246 <- 247       -0.15094

 Excited State   3:      Singlet-A      2.0223 eV  613.09 nm  f=0.0926  <S**2>=0.000
     243 -> 247       -0.26080
     244 -> 247       -0.25154
     245 -> 247        0.56349
     246 -> 248        0.16510
     246 -> 249       -0.12587

 Excited State   4:      Singlet-A      2.0901 eV  593.20 nm  f=0.0179  <S**2>=0.000
     243 -> 247        0.65589
     245 -> 247        0.21774

 Excited State   5:      Singlet-A      2.3301 eV  532.10 nm  f=0.0000  <S**2>=0.000
     241 -> 247        0.70710

 The electronic state is 1-A.
 Alpha  occ. eigenvalues --  -46.26250 -18.83334 -18.81881 -18.78491 -18.76220
 Alpha  occ. eigenvalues --  -18.75841 -18.73529 -14.03084 -14.03048 -14.01162
 Alpha  occ. eigenvalues --  -13.99989 -10.05518 -10.03557  -9.99909  -9.98630
 Alpha  occ. eigenvalues --   -9.97301  -9.96968  -9.96874  -9.96166  -9.96127
 Alpha  occ. eigenvalues --   -9.95895  -9.95882  -9.95871  -9.94978  -9.94508
 Alpha  occ. eigenvalues --   -9.94495  -9.94041  -9.93845  -9.93833  -9.93670
 Alpha  occ. eigenvalues --   -9.93622  -9.93542  -9.93440  -9.93358  -9.93210
 Alpha  occ. eigenvalues --   -9.92952  -9.92797  -9.92568  -9.92504  -9.92443
 Alpha  occ. eigenvalues --   -9.92376  -9.92284  -9.92272  -9.91928  -9.91834
 Alpha  occ. eigenvalues --   -9.91800  -9.91737  -9.91721  -9.91601  -9.91570
 Alpha  occ. eigenvalues --   -9.91555  -9.91328  -9.91291  -9.91280  -9.91264
 Alpha  occ. eigenvalues --   -9.91212  -9.91161  -9.90980  -9.90864  -9.90809
 Alpha  occ. eigenvalues --   -9.90804  -9.90738  -9.90683  -9.90514  -9.90488
 Alpha  occ. eigenvalues --   -9.89747  -2.91024  -1.71460  -1.70911  -1.70725
 Alpha  occ. eigenvalues --   -0.98166  -0.98139  -0.92312  -0.91039  -0.89770
 Alpha  occ. eigenvalues --   -0.88930  -0.87272  -0.86369  -0.85364  -0.84531
 Alpha  occ. eigenvalues --   -0.76673  -0.74324  -0.73534  -0.72600  -0.72238
 Alpha  occ. eigenvalues --   -0.72083  -0.71682  -0.71325  -0.70362  -0.69962
 Alpha  occ. eigenvalues --   -0.69762  -0.68900  -0.67935  -0.67518  -0.67255
 Alpha  occ. eigenvalues --   -0.66670  -0.66043  -0.65516  -0.65052  -0.64598
 Alpha  occ. eigenvalues --   -0.64303  -0.62726  -0.62093  -0.61881  -0.60861
 Alpha  occ. eigenvalues --   -0.60668  -0.60242  -0.59667  -0.59493  -0.58798
 Alpha  occ. eigenvalues --   -0.58247  -0.57211  -0.56476  -0.55921  -0.54659
 Alpha  occ. eigenvalues --   -0.54318  -0.53733  -0.53033  -0.52946  -0.51506
 Alpha  occ. eigenvalues --   -0.51351  -0.51246  -0.50706  -0.50447  -0.50239
 Alpha  occ. eigenvalues --   -0.49329  -0.49080  -0.48745  -0.48174  -0.46817
 Alpha  occ. eigenvalues --   -0.45901  -0.45775  -0.45527  -0.45238  -0.44557
 Alpha  occ. eigenvalues --   -0.44227  -0.43349  -0.42909  -0.42531  -0.42065
 Alpha  occ. eigenvalues --   -0.41854  -0.41619  -0.41394  -0.41287  -0.41201
 Alpha  occ. eigenvalues --   -0.41104  -0.40880  -0.40678  -0.40479  -0.40297
 Alpha  occ. eigenvalues --   -0.40222  -0.39900  -0.39787  -0.39648  -0.39294
 Alpha  occ. eigenvalues --   -0.39171  -0.38958  -0.38697  -0.38532  -0.38453
 Alpha  occ. eigenvalues --   -0.38354  -0.38235  -0.37927  -0.37736  -0.37672
 Alpha  occ. eigenvalues --   -0.37207  -0.36984  -0.36891  -0.36528  -0.36302
 Alpha  occ. eigenvalues --   -0.36218  -0.35882  -0.35725  -0.35638  -0.35475
 Alpha  occ. eigenvalues --   -0.35401  -0.35207  -0.35069  -0.34974  -0.34622
 Alpha  occ. eigenvalues --   -0.34559  -0.34353  -0.34194  -0.34005  -0.33919
 Alpha  occ. eigenvalues --   -0.33787  -0.33464  -0.33224  -0.33177  -0.32854
 Alpha  occ. eigenvalues --   -0.32755  -0.32549  -0.32466  -0.32285  -0.32082
 Alpha  occ. eigenvalues --   -0.31950  -0.31877  -0.31660  -0.31593  -0.31536
 Alpha  occ. eigenvalues --   -0.31298  -0.31246  -0.31046  -0.30851  -0.30666
 Alpha  occ. eigenvalues --   -0.30348  -0.30268  -0.30238  -0.29685  -0.29499
 Alpha  occ. eigenvalues --   -0.29458  -0.29329  -0.29189  -0.29050  -0.28971
 Alpha  occ. eigenvalues --   -0.28552  -0.28323  -0.28297  -0.27720  -0.27540
 Alpha  occ. eigenvalues --   -0.27277  -0.27172  -0.26985  -0.26775  -0.26346
 Alpha  occ. eigenvalues --   -0.26308  -0.26243  -0.25874  -0.25789  -0.25346
 Alpha  occ. eigenvalues --   -0.25014  -0.24602  -0.24307  -0.23753  -0.23287
 Alpha  occ. eigenvalues --   -0.23199  -0.22804  -0.22177  -0.21595  -0.20957
 Alpha  occ. eigenvalues --   -0.20021  -0.19580  -0.19006  -0.17316  -0.17084
 Alpha  occ. eigenvalues --   -0.15741
 Alpha virt. eigenvalues --   -0.11458  -0.06681  -0.05799  -0.04425  -0.03715
 Alpha virt. eigenvalues --   -0.02038  -0.01462  -0.01428  -0.00670   0.00529
 Alpha virt. eigenvalues --    0.01310   0.01344   0.01914   0.02299   0.02744

 Mulliken charges:
               1
     1  Mg   0.699814
     2  C   -0.059279
     3  C   -0.035409
     4  C   -0.070173
     5  C   -0.062587
     6  N   -0.195971
     7  C   -0.163231
     8  C    0.099132
     9  C    0.003604
    10  C    0.036389
    11  C    0.140768
    12  C    0.136695
    13  C    0.106790
    14  C    0.120744
    15  O   -0.182823
    16  O   -0.284710
    17  N   -0.333075
    18  C    0.095158
    19  C   -0.153987
    20  C    0.038689
    21  C    0.091437
    22  C    0.163747
    23  C   -0.081044
    24  O   -0.152085
    25  C    0.126655
    26  N   -0.187121
    27  C    0.068247
    28  C    0.033212
    29  C    0.030708
    30  C    0.044741
    31  C    0.127717
    32  C    0.075284
    33  C    0.070603
    34  N   -0.229684
    35  C    0.049966
    36  C   -0.168463
    37  C    0.139474
    38  C    0.099586
    39  C    0.162101
    40  C   -0.174530
    41  O   -0.173952
    42  C    0.214119
    43  C    0.102890
    44  O   -0.191334
    45  O   -0.248906
    46  C    0.223528
    47  C    0.331327
    48  C   -0.111854
    49  C   -0.212259
    50  C    0.173608
    51  C    0.115558
    52  C    0.110217
    53  C    0.061559
    54  C   -0.051284
    55  C    0.106727
    56  C    0.116501
    57  C    0.122816
    58  C    0.023545
    59  C   -0.136174
    60  C    0.130282
    61  C    0.121565
    62  C    0.037535
    63  C    0.104659
    64  C   -0.074323
    65  C    0.096495
    66  C    0.105488
    67  H   -0.078933
    68  H   -0.053273
    69  H   -0.067292
    70  H   -0.010532
    71  H   -0.031461
    72  H    0.015486
    73  H   -0.020474
    74  H   -0.024304
    75  H   -0.027762
    76  H   -0.035423
    77  H    0.000929
    78  H    0.012003
    79  H    0.020768
    80  H    0.001488
    81  H   -0.014764
    82  H    0.004004
    83  H    0.016696
    84  H   -0.015678
    85  H   -0.014457
    86  H   -0.021397
    87  H    0.011291
    88  H   -0.000861
    89  H   -0.014158
    90  H   -0.013783
    91  H   -0.021151
    92  H   -0.023498
    93  H    0.001281
    94  H   -0.013058
    95  H   -0.016446
    96  H    0.001957
    97  H   -0.001151
    98  H   -0.004796
    99  H    0.011202
   100  H    0.020333
   101  H    0.002059
   102  H    0.017763
   103  H    0.010857
   104  H   -0.040387
   105  H    0.019530
   106  H   -0.023426
   107  H    0.001290
   108  H   -0.042382
   109  H   -0.027888
   110  H   -0.041272
   111  H   -0.020787
   112  H   -0.016612
   113  H   -0.045137
   114  H   -0.041678
   115  H   -0.020294
   116  H   -0.029201
   117  H   -0.022402
   118  H   -0.037290
   119  H   -0.020255
   120  H   -0.025026
   121  H   -0.043293
   122  H   -0.037218
   123  H   -0.033661
   124  H   -0.031124
   125  H   -0.016883
   126  H   -0.013897
   127  H   -0.019479
   128  H   -0.042716
   129  H   -0.028991
   130  H   -0.026193
   131  H   -0.024331
   132  H   -0.016926
   133  H   -0.035968
   134  H   -0.030890
   135  H   -0.025615
   136  H   -0.030966
   137  H   -0.008806
   138  H   -0.021170
   139  H   -0.012996
   140  H   -0.014549
 Sum of Mulliken charges =  -0.00000

 Dipole moment (field-independent basis, Debye):
    X=              3.4908    Y=              4.1218    Z=             -1.0485  Tot=              5.5022
 Quadrupole moment (field-independent basis, Debye-Ang):
   XX=           -377.6417   YY=           -426.9834   ZZ=           -404.7899
   XY=              4.0756   XZ=              6.4437   YZ=              1.2290

 Normal termination of Gaussian 16 at Fri Apr 29 13:15:07 2022.
