 Gaussian 16, Revision A.03,
 Gaussian 16:  ES64L-G16RevA.03 25-Dec-2016

 -----------------------------------
 #p cam-b3lyp/Def2SVP td=(nstates=5)
 -----------------------------------

 -------------------------------------------------------
 step_301_chromophore_19 TDDFT with cam-b3lyp functional
 -------------------------------------------------------
 Symbolic Z-matrix:
 Charge =  0 Multiplicity = 1

                         Standard orientation:
 ---------------------------------------------------------------------
 Center     Atomic      Atomic             Coordinates (Angstroms)
 Number     Number       Type             X           Y           Z
 ---------------------------------------------------------------------
      1         12           0       -5.901792    0.285809   -0.143797
      2          6           0       -3.240707   -2.096996   -0.445200
      3          6           0       -3.586826    2.690538    0.340319
      4          6           0       -8.445429    2.370918    0.554979
      5          6           0       -8.189615   -2.252523   -0.518225
      6          7           0       -3.649718    0.265757   -0.133590
      7          6           0       -2.762330   -0.817855   -0.270787
      8          6           0       -1.318444   -0.393355   -0.235122
      9          6           0       -1.454464    1.131456    0.214865
     10          6           0       -2.996204    1.398119    0.105598
     11          6           0       -0.821185    1.539819    1.566599
     12          6           0       -0.528451   -0.559228   -1.584974
     13          6           0        0.957040   -0.966456   -1.647597
     14          6           0        1.949629   -0.688082   -0.439132
     15          8           0        1.615871   -0.344481    0.683643
     16          8           0        3.258765   -0.785798   -0.904638
     17          7           0       -6.032027    2.249268    0.293088
     18          6           0       -4.956038    3.091164    0.406988
     19          6           0       -5.486763    4.465683    0.631124
     20          6           0       -6.927119    4.417576    0.584415
     21          6           0       -7.208026    2.982660    0.376825
     22          6           0       -4.518517    5.652128    0.839669
     23          6           0       -7.907157    5.532478    0.734213
     24          8           0       -9.115106    5.454722    0.601747
     25          6           0       -7.375396    6.903753    0.876667
     26          7           0       -7.989983    0.065007    0.116771
     27          6           0       -8.808125    1.058514    0.442360
     28          6           0      -10.306240    0.633973    0.542776
     29          6           0      -10.269652   -0.851561    0.101007
     30          6           0       -8.737631   -1.031722   -0.110786
     31          6           0      -10.861240    0.726803    2.006249
     32          6           0      -11.028065   -1.232399   -1.232148
     33          6           0      -12.558438   -1.332197   -0.983489
     34          7           0       -5.761546   -1.753631   -0.459028
     35          6           0       -6.812242   -2.608975   -0.706619
     36          6           0       -6.232467   -3.854978   -1.046677
     37          6           0       -4.791588   -3.716418   -0.867185
     38          6           0       -4.616042   -2.365903   -0.594041
     39          6           0       -6.978873   -5.012523   -1.512939
     40          6           0       -3.559791   -4.359557   -0.888970
     41          8           0       -3.173923   -5.500673   -1.190978
     42          6           0       -2.519774   -3.385183   -0.600492
     43          6           0       -1.857008   -3.855593    0.640268
     44          8           0       -2.379207   -4.068186    1.736381
     45          8           0       -0.552346   -4.119138    0.359515
     46          6           0        0.184023   -4.781203    1.385797
     47          6           0        4.226031   -0.348517    0.141838
     48          6           0        5.530551   -0.295930   -0.570110
     49          6           0        6.696248    0.078212   -0.074640
     50          6           0        6.917417    0.909649    1.184706
     51          6           0        7.938427   -0.050081   -0.866918
     52          6           0        8.060199    0.932259   -2.114992
     53          6           0        8.956301    2.176841   -1.743397
     54          6           0       10.229842    2.467309   -2.599496
     55          6           0        9.880283    3.281555   -3.827135
     56          6           0       10.952379    1.183983   -3.026770
     57          6           0       12.375576    1.137526   -2.504796
     58          6           0       12.506140    0.286054   -1.221547
     59          6           0       13.410391    0.951483   -0.132697
     60          6           0       14.888030    1.026124   -0.581074
     61          6           0       13.226755    0.083609    1.140897
     62          6           0       11.957376    0.569649    1.902155
     63          6           0       11.009623   -0.672472    2.271845
     64          6           0       11.534951   -1.289684    3.575668
     65          6           0       11.626680   -2.790519    3.397166
     66          6           0       10.611144   -1.011760    4.785537
     67          1           0       -3.000534    3.578543    0.587262
     68          1           0       -9.175666    3.133538    0.831195
     69          1           0       -8.749365   -3.163043   -0.743685
     70          1           0       -0.944519   -0.923796    0.640854
     71          1           0       -1.093702    1.759738   -0.598743
     72          1           0       -0.222748    0.754932    2.030069
     73          1           0       -1.525351    1.880939    2.325464
     74          1           0       -0.185763    2.417042    1.447503
     75          1           0       -0.658691    0.287884   -2.258349
     76          1           0       -1.106085   -1.307309   -2.128539
     77          1           0        1.391364   -0.628015   -2.588525
     78          1           0        0.937158   -2.051152   -1.750375
     79          1           0       -4.344542    6.119168   -0.129611
     80          1           0       -3.604828    5.344190    1.347157
     81          1           0       -4.953170    6.339227    1.565436
     82          1           0       -6.748423    7.095849    0.006610
     83          1           0       -6.846431    7.110345    1.806914
     84          1           0       -8.204006    7.609152    0.805399
     85          1           0      -10.873683    1.216487   -0.183924
     86          1           0      -10.502531   -1.597894    0.859812
     87          1           0      -10.170186    0.912569    2.828680
     88          1           0      -11.600776   -0.070796    2.071966
     89          1           0      -11.438360    1.651863    1.989547
     90          1           0      -10.662397   -2.174331   -1.640249
     91          1           0      -10.869543   -0.450712   -1.975747
     92          1           0      -12.767621   -1.246744    0.082974
     93          1           0      -13.070840   -2.217713   -1.359846
     94          1           0      -13.039967   -0.428364   -1.357219
     95          1           0       -6.343136   -5.887501   -1.644877
     96          1           0       -7.415404   -4.910899   -2.506587
     97          1           0       -7.659662   -5.349610   -0.731230
     98          1           0       -1.907108   -3.440984   -1.500693
     99          1           0       -0.067488   -5.841861    1.390887
    100          1           0       -0.005730   -4.350386    2.369875
    101          1           0        1.223297   -4.736708    1.061973
    102          1           0        4.448474   -1.062542    0.935867
    103          1           0        3.961714    0.621177    0.562596
    104          1           0        5.632154   -0.831975   -1.513291
    105          1           0        7.110397    0.221670    2.008359
    106          1           0        5.971741    1.445859    1.264579
    107          1           0        7.696631    1.609280    0.884067
    108          1           0        7.877743   -1.081461   -1.212561
    109          1           0        8.866641   -0.121446   -0.298926
    110          1           0        7.057732    1.303783   -2.328389
    111          1           0        8.264284    0.466450   -3.078694
    112          1           0        9.316586    2.249923   -0.716083
    113          1           0        8.273551    3.021439   -1.837080
    114          1           0       10.806363    3.178748   -2.010104
    115          1           0        8.916559    3.783881   -3.750746
    116          1           0        9.816395    2.670094   -4.727229
    117          1           0       10.747246    3.905758   -4.045077
    118          1           0       11.051545    1.112353   -4.109551
    119          1           0       10.472960    0.285694   -2.637797
    120          1           0       12.746763    2.150119   -2.344352
    121          1           0       12.930677    0.504302   -3.196215
    122          1           0       12.945157   -0.695467   -1.401857
    123          1           0       11.534076    0.121569   -0.757455
    124          1           0       12.973879    1.950444   -0.123207
    125          1           0       15.627822    0.725726    0.160618
    126          1           0       14.962392    2.083708   -0.834919
    127          1           0       15.106680    0.403994   -1.449500
    128          1           0       14.103804    0.277015    1.757921
    129          1           0       13.210633   -0.969112    0.860360
    130          1           0       11.443646    1.262947    1.237671
    131          1           0       12.334719    1.108232    2.772183
    132          1           0       10.930643   -1.310552    1.391081
    133          1           0       10.055041   -0.189177    2.480795
    134          1           0       12.584272   -1.067194    3.770609
    135          1           0       12.512524   -3.133226    3.930686
    136          1           0       11.940559   -2.969220    2.368621
    137          1           0       10.670911   -3.244318    3.656944
    138          1           0       10.643284   -0.016462    5.227547
    139          1           0       10.938192   -1.753332    5.513992
    140          1           0        9.552906   -1.107409    4.541234
 ---------------------------------------------------------------------

 SCF Done:  E(RCAM-B3LYP) =  -3007.15241958     A.U. after   18 cycles

 Excitation energies and oscillator strengths:

 Excited State   1:      Singlet-A      1.7747 eV  698.60 nm  f=0.3808  <S**2>=0.000
     245 -> 248       -0.15713
     246 -> 247        0.68858
 This state for optimization and/or second-order correction.
 Total Energy, E(TD-HF/TD-DFT) =  -3007.08719906
 Copying the excited state density for this state as the 1-particle RhoCI density.

 Excited State   2:      Singlet-A      2.2652 eV  547.33 nm  f=0.1552  <S**2>=0.000
     245 -> 247        0.65091
     246 -> 248        0.24683

 Excited State   3:      Singlet-A      3.3032 eV  375.34 nm  f=0.0126  <S**2>=0.000
     241 -> 247       -0.13614
     244 -> 247        0.67032

 Excited State   4:      Singlet-A      3.4538 eV  358.98 nm  f=0.0035  <S**2>=0.000
     243 -> 247        0.57194
     243 -> 249       -0.25137
     243 -> 250       -0.26075
     244 -> 247       -0.10363

 Excited State   5:      Singlet-A      3.5760 eV  346.71 nm  f=0.2159  <S**2>=0.000
     239 -> 247        0.16464
     240 -> 247       -0.20652
     241 -> 247       -0.39410
     244 -> 247       -0.10803
     245 -> 247       -0.13155
     246 -> 248        0.47121

 The electronic state is 1-A.
 Alpha  occ. eigenvalues --  -46.87757 -19.26196 -19.24571 -19.21458 -19.19617
 Alpha  occ. eigenvalues --  -19.19034 -19.16039 -14.42035 -14.41920 -14.39933
 Alpha  occ. eigenvalues --  -14.37999 -10.40862 -10.38752 -10.35597 -10.32656
 Alpha  occ. eigenvalues --  -10.31978 -10.31969 -10.31328 -10.30970 -10.30725
 Alpha  occ. eigenvalues --  -10.30584 -10.30555 -10.30095 -10.30046 -10.28512
 Alpha  occ. eigenvalues --  -10.28444 -10.28094 -10.28046 -10.27954 -10.27806
 Alpha  occ. eigenvalues --  -10.27786 -10.27682 -10.27607 -10.27491 -10.27170
 Alpha  occ. eigenvalues --  -10.26837 -10.26581 -10.26377 -10.26348 -10.26239
 Alpha  occ. eigenvalues --  -10.26108 -10.26040 -10.26023 -10.25986 -10.25944
 Alpha  occ. eigenvalues --  -10.25544 -10.25496 -10.25479 -10.25433 -10.25333
 Alpha  occ. eigenvalues --  -10.25280 -10.25262 -10.25052 -10.25043 -10.25000
 Alpha  occ. eigenvalues --  -10.24898 -10.24800 -10.24549 -10.24441 -10.24433
 Alpha  occ. eigenvalues --  -10.24429 -10.24352 -10.24273 -10.24085 -10.24046
 Alpha  occ. eigenvalues --  -10.23071  -3.16444  -1.91354  -1.90901  -1.90749
 Alpha  occ. eigenvalues --   -1.16567  -1.16435  -1.11282  -1.08838  -1.07587
 Alpha  occ. eigenvalues --   -1.06649  -1.05007  -1.03760  -1.03091  -1.02362
 Alpha  occ. eigenvalues --   -0.93553  -0.91250  -0.90379  -0.89332  -0.89001
 Alpha  occ. eigenvalues --   -0.88752  -0.88477  -0.87934  -0.87656  -0.86523
 Alpha  occ. eigenvalues --   -0.85969  -0.85157  -0.84160  -0.83582  -0.83357
 Alpha  occ. eigenvalues --   -0.82701  -0.82434  -0.81532  -0.80906  -0.80573
 Alpha  occ. eigenvalues --   -0.80085  -0.78824  -0.77630  -0.77310  -0.76247
 Alpha  occ. eigenvalues --   -0.75910  -0.75566  -0.74980  -0.74784  -0.74031
 Alpha  occ. eigenvalues --   -0.73283  -0.72083  -0.71434  -0.70721  -0.69283
 Alpha  occ. eigenvalues --   -0.68918  -0.68561  -0.67460  -0.67437  -0.65586
 Alpha  occ. eigenvalues --   -0.65539  -0.65517  -0.64605  -0.64452  -0.64119
 Alpha  occ. eigenvalues --   -0.63286  -0.63007  -0.62327  -0.61959  -0.60752
 Alpha  occ. eigenvalues --   -0.59403  -0.59342  -0.58924  -0.58631  -0.57910
 Alpha  occ. eigenvalues --   -0.57683  -0.56592  -0.56232  -0.56044  -0.55330
 Alpha  occ. eigenvalues --   -0.55055  -0.54642  -0.54288  -0.54172  -0.53993
 Alpha  occ. eigenvalues --   -0.53780  -0.53728  -0.53656  -0.53361  -0.53023
 Alpha  occ. eigenvalues --   -0.52782  -0.52649  -0.52366  -0.52290  -0.51876
 Alpha  occ. eigenvalues --   -0.51734  -0.51419  -0.51187  -0.51027  -0.50858
 Alpha  occ. eigenvalues --   -0.50770  -0.50523  -0.50322  -0.50037  -0.49907
 Alpha  occ. eigenvalues --   -0.49789  -0.49391  -0.49322  -0.49132  -0.48953
 Alpha  occ. eigenvalues --   -0.48374  -0.48107  -0.48022  -0.47780  -0.47759
 Alpha  occ. eigenvalues --   -0.47506  -0.47273  -0.47033  -0.46892  -0.46759
 Alpha  occ. eigenvalues --   -0.46475  -0.46087  -0.46021  -0.45788  -0.45705
 Alpha  occ. eigenvalues --   -0.45540  -0.45338  -0.45165  -0.44788  -0.44442
 Alpha  occ. eigenvalues --   -0.44421  -0.44283  -0.44050  -0.43920  -0.43734
 Alpha  occ. eigenvalues --   -0.43627  -0.43507  -0.43461  -0.43323  -0.43210
 Alpha  occ. eigenvalues --   -0.42761  -0.42647  -0.42576  -0.42368  -0.42185
 Alpha  occ. eigenvalues --   -0.41873  -0.41673  -0.41438  -0.41367  -0.40721
 Alpha  occ. eigenvalues --   -0.40540  -0.40429  -0.40399  -0.40201  -0.40106
 Alpha  occ. eigenvalues --   -0.39632  -0.39469  -0.39246  -0.38615  -0.38443
 Alpha  occ. eigenvalues --   -0.38302  -0.38236  -0.38102  -0.37748  -0.37072
 Alpha  occ. eigenvalues --   -0.37047  -0.36982  -0.36934  -0.36496  -0.36452
 Alpha  occ. eigenvalues --   -0.35833  -0.35571  -0.34911  -0.34782  -0.33962
 Alpha  occ. eigenvalues --   -0.33633  -0.33587  -0.33062  -0.31916  -0.31630
 Alpha  occ. eigenvalues --   -0.30550  -0.29685  -0.29240  -0.28206  -0.23967
 Alpha  occ. eigenvalues --   -0.21190
 Alpha virt. eigenvalues --   -0.08597  -0.01214   0.00322   0.02514   0.03522
 Alpha virt. eigenvalues --    0.04354   0.05738   0.06089   0.06264   0.06882
 Alpha virt. eigenvalues --    0.07355   0.08022   0.08497   0.08847   0.09066

 Mulliken charges:
               1
     1  Mg   0.835737
     2  C   -0.087720
     3  C   -0.057500
     4  C   -0.092110
     5  C   -0.064198
     6  N   -0.267938
     7  C   -0.113172
     8  C    0.041889
     9  C   -0.043459
    10  C    0.065216
    11  C    0.076976
    12  C    0.085353
    13  C    0.043211
    14  C    0.197190
    15  O   -0.226528
    16  O   -0.349598
    17  N   -0.425053
    18  C    0.112669
    19  C   -0.155724
    20  C   -0.033791
    21  C    0.129180
    22  C    0.106615
    23  C    0.003396
    24  O   -0.189243
    25  C    0.038388
    26  N   -0.261673
    27  C    0.088289
    28  C   -0.026113
    29  C   -0.020874
    30  C    0.055540
    31  C    0.070803
    32  C    0.022398
    33  C    0.009700
    34  N   -0.322321
    35  C    0.050728
    36  C   -0.160816
    37  C    0.048458
    38  C    0.137110
    39  C    0.100493
    40  C   -0.075080
    41  O   -0.219254
    42  C    0.131695
    43  C    0.193894
    44  O   -0.229656
    45  O   -0.311851
    46  C    0.180798
    47  C    0.299627
    48  C   -0.134588
    49  C   -0.223367
    50  C    0.113692
    51  C    0.054404
    52  C    0.045185
    53  C    0.017490
    54  C   -0.107960
    55  C    0.048871
    56  C    0.059313
    57  C    0.062439
    58  C   -0.011657
    59  C   -0.185376
    60  C    0.068274
    61  C    0.065486
    62  C   -0.009667
    63  C    0.050443
    64  C   -0.134546
    65  C    0.037254
    66  C    0.047439
    67  H   -0.042675
    68  H   -0.011132
    69  H   -0.030622
    70  H    0.025712
    71  H    0.003558
    72  H    0.042434
    73  H    0.006080
    74  H    0.000810
    75  H    0.001693
    76  H   -0.003452
    77  H    0.034177
    78  H    0.042377
    79  H    0.050316
    80  H    0.030721
    81  H    0.013946
    82  H    0.032456
    83  H    0.045064
    84  H    0.023282
    85  H    0.020573
    86  H    0.014697
    87  H    0.037327
    88  H    0.022591
    89  H    0.010485
    90  H    0.015513
    91  H    0.006363
    92  H   -0.002415
    93  H    0.025724
    94  H    0.009500
    95  H    0.013430
    96  H    0.026095
    97  H    0.021922
    98  H    0.038990
    99  H    0.034112
   100  H    0.044544
   101  H    0.024305
   102  H    0.044115
   103  H    0.038174
   104  H   -0.003907
   105  H    0.042038
   106  H    0.000173
   107  H    0.022097
   108  H   -0.009620
   109  H   -0.002690
   110  H   -0.008622
   111  H    0.008825
   112  H    0.005942
   113  H   -0.014792
   114  H   -0.009443
   115  H    0.004666
   116  H   -0.005420
   117  H    0.002709
   118  H   -0.006032
   119  H    0.006305
   120  H    0.001057
   121  H   -0.011478
   122  H   -0.009476
   123  H   -0.014445
   124  H   -0.002571
   125  H    0.008279
   126  H    0.009518
   127  H    0.004578
   128  H   -0.012465
   129  H   -0.003370
   130  H   -0.002386
   131  H    0.004206
   132  H    0.008880
   133  H   -0.009661
   134  H   -0.000355
   135  H    0.000073
   136  H   -0.006998
   137  H    0.015584
   138  H    0.003915
   139  H    0.011255
   140  H    0.008033
 Sum of Mulliken charges =  -0.00000

 Dipole moment (field-independent basis, Debye):
    X=              3.3383    Y=              6.0355    Z=             -0.8227  Tot=              6.9461
 Quadrupole moment (field-independent basis, Debye-Ang):
   XX=           -374.6581   YY=           -422.2086   ZZ=           -404.6906
   XY=             -6.5766   XZ=              4.8581   YZ=              2.1548

 Normal termination of Gaussian 16 at Fri Apr 29 12:15:23 2022.
