 Gaussian 16, Revision A.03,
 Gaussian 16:  ES64L-G16RevA.03 25-Dec-2016

 ---------------------------------
 #p PBE1PBE/Def2SVP td=(nstates=5)
 ---------------------------------

 -----------------------------------------------------
 step_301_chromophore_19 TDDFT with PBE1PBE functional
 -----------------------------------------------------
 Symbolic Z-matrix:
 Charge =  0 Multiplicity = 1

                         Standard orientation:
 ---------------------------------------------------------------------
 Center     Atomic      Atomic             Coordinates (Angstroms)
 Number     Number       Type             X           Y           Z
 ---------------------------------------------------------------------
      1         12           0       -5.901792    0.285809   -0.143797
      2          6           0       -3.240707   -2.096996   -0.445200
      3          6           0       -3.586826    2.690538    0.340319
      4          6           0       -8.445429    2.370918    0.554979
      5          6           0       -8.189615   -2.252523   -0.518225
      6          7           0       -3.649718    0.265757   -0.133590
      7          6           0       -2.762330   -0.817855   -0.270787
      8          6           0       -1.318444   -0.393355   -0.235122
      9          6           0       -1.454464    1.131456    0.214865
     10          6           0       -2.996204    1.398119    0.105598
     11          6           0       -0.821185    1.539819    1.566599
     12          6           0       -0.528451   -0.559228   -1.584974
     13          6           0        0.957040   -0.966456   -1.647597
     14          6           0        1.949629   -0.688082   -0.439132
     15          8           0        1.615871   -0.344481    0.683643
     16          8           0        3.258765   -0.785798   -0.904638
     17          7           0       -6.032027    2.249268    0.293088
     18          6           0       -4.956038    3.091164    0.406988
     19          6           0       -5.486763    4.465683    0.631124
     20          6           0       -6.927119    4.417576    0.584415
     21          6           0       -7.208026    2.982660    0.376825
     22          6           0       -4.518517    5.652128    0.839669
     23          6           0       -7.907157    5.532478    0.734213
     24          8           0       -9.115106    5.454722    0.601747
     25          6           0       -7.375396    6.903753    0.876667
     26          7           0       -7.989983    0.065007    0.116771
     27          6           0       -8.808125    1.058514    0.442360
     28          6           0      -10.306240    0.633973    0.542776
     29          6           0      -10.269652   -0.851561    0.101007
     30          6           0       -8.737631   -1.031722   -0.110786
     31          6           0      -10.861240    0.726803    2.006249
     32          6           0      -11.028065   -1.232399   -1.232148
     33          6           0      -12.558438   -1.332197   -0.983489
     34          7           0       -5.761546   -1.753631   -0.459028
     35          6           0       -6.812242   -2.608975   -0.706619
     36          6           0       -6.232467   -3.854978   -1.046677
     37          6           0       -4.791588   -3.716418   -0.867185
     38          6           0       -4.616042   -2.365903   -0.594041
     39          6           0       -6.978873   -5.012523   -1.512939
     40          6           0       -3.559791   -4.359557   -0.888970
     41          8           0       -3.173923   -5.500673   -1.190978
     42          6           0       -2.519774   -3.385183   -0.600492
     43          6           0       -1.857008   -3.855593    0.640268
     44          8           0       -2.379207   -4.068186    1.736381
     45          8           0       -0.552346   -4.119138    0.359515
     46          6           0        0.184023   -4.781203    1.385797
     47          6           0        4.226031   -0.348517    0.141838
     48          6           0        5.530551   -0.295930   -0.570110
     49          6           0        6.696248    0.078212   -0.074640
     50          6           0        6.917417    0.909649    1.184706
     51          6           0        7.938427   -0.050081   -0.866918
     52          6           0        8.060199    0.932259   -2.114992
     53          6           0        8.956301    2.176841   -1.743397
     54          6           0       10.229842    2.467309   -2.599496
     55          6           0        9.880283    3.281555   -3.827135
     56          6           0       10.952379    1.183983   -3.026770
     57          6           0       12.375576    1.137526   -2.504796
     58          6           0       12.506140    0.286054   -1.221547
     59          6           0       13.410391    0.951483   -0.132697
     60          6           0       14.888030    1.026124   -0.581074
     61          6           0       13.226755    0.083609    1.140897
     62          6           0       11.957376    0.569649    1.902155
     63          6           0       11.009623   -0.672472    2.271845
     64          6           0       11.534951   -1.289684    3.575668
     65          6           0       11.626680   -2.790519    3.397166
     66          6           0       10.611144   -1.011760    4.785537
     67          1           0       -3.000534    3.578543    0.587262
     68          1           0       -9.175666    3.133538    0.831195
     69          1           0       -8.749365   -3.163043   -0.743685
     70          1           0       -0.944519   -0.923796    0.640854
     71          1           0       -1.093702    1.759738   -0.598743
     72          1           0       -0.222748    0.754932    2.030069
     73          1           0       -1.525351    1.880939    2.325464
     74          1           0       -0.185763    2.417042    1.447503
     75          1           0       -0.658691    0.287884   -2.258349
     76          1           0       -1.106085   -1.307309   -2.128539
     77          1           0        1.391364   -0.628015   -2.588525
     78          1           0        0.937158   -2.051152   -1.750375
     79          1           0       -4.344542    6.119168   -0.129611
     80          1           0       -3.604828    5.344190    1.347157
     81          1           0       -4.953170    6.339227    1.565436
     82          1           0       -6.748423    7.095849    0.006610
     83          1           0       -6.846431    7.110345    1.806914
     84          1           0       -8.204006    7.609152    0.805399
     85          1           0      -10.873683    1.216487   -0.183924
     86          1           0      -10.502531   -1.597894    0.859812
     87          1           0      -10.170186    0.912569    2.828680
     88          1           0      -11.600776   -0.070796    2.071966
     89          1           0      -11.438360    1.651863    1.989547
     90          1           0      -10.662397   -2.174331   -1.640249
     91          1           0      -10.869543   -0.450712   -1.975747
     92          1           0      -12.767621   -1.246744    0.082974
     93          1           0      -13.070840   -2.217713   -1.359846
     94          1           0      -13.039967   -0.428364   -1.357219
     95          1           0       -6.343136   -5.887501   -1.644877
     96          1           0       -7.415404   -4.910899   -2.506587
     97          1           0       -7.659662   -5.349610   -0.731230
     98          1           0       -1.907108   -3.440984   -1.500693
     99          1           0       -0.067488   -5.841861    1.390887
    100          1           0       -0.005730   -4.350386    2.369875
    101          1           0        1.223297   -4.736708    1.061973
    102          1           0        4.448474   -1.062542    0.935867
    103          1           0        3.961714    0.621177    0.562596
    104          1           0        5.632154   -0.831975   -1.513291
    105          1           0        7.110397    0.221670    2.008359
    106          1           0        5.971741    1.445859    1.264579
    107          1           0        7.696631    1.609280    0.884067
    108          1           0        7.877743   -1.081461   -1.212561
    109          1           0        8.866641   -0.121446   -0.298926
    110          1           0        7.057732    1.303783   -2.328389
    111          1           0        8.264284    0.466450   -3.078694
    112          1           0        9.316586    2.249923   -0.716083
    113          1           0        8.273551    3.021439   -1.837080
    114          1           0       10.806363    3.178748   -2.010104
    115          1           0        8.916559    3.783881   -3.750746
    116          1           0        9.816395    2.670094   -4.727229
    117          1           0       10.747246    3.905758   -4.045077
    118          1           0       11.051545    1.112353   -4.109551
    119          1           0       10.472960    0.285694   -2.637797
    120          1           0       12.746763    2.150119   -2.344352
    121          1           0       12.930677    0.504302   -3.196215
    122          1           0       12.945157   -0.695467   -1.401857
    123          1           0       11.534076    0.121569   -0.757455
    124          1           0       12.973879    1.950444   -0.123207
    125          1           0       15.627822    0.725726    0.160618
    126          1           0       14.962392    2.083708   -0.834919
    127          1           0       15.106680    0.403994   -1.449500
    128          1           0       14.103804    0.277015    1.757921
    129          1           0       13.210633   -0.969112    0.860360
    130          1           0       11.443646    1.262947    1.237671
    131          1           0       12.334719    1.108232    2.772183
    132          1           0       10.930643   -1.310552    1.391081
    133          1           0       10.055041   -0.189177    2.480795
    134          1           0       12.584272   -1.067194    3.770609
    135          1           0       12.512524   -3.133226    3.930686
    136          1           0       11.940559   -2.969220    2.368621
    137          1           0       10.670911   -3.244318    3.656944
    138          1           0       10.643284   -0.016462    5.227547
    139          1           0       10.938192   -1.753332    5.513992
    140          1           0        9.552906   -1.107409    4.541234
 ---------------------------------------------------------------------

 SCF Done:  E(RPBE1PBE) =  -3005.34061916     A.U. after   20 cycles

 Excitation energies and oscillator strengths:

 Excited State   1:      Singlet-A      1.8769 eV  660.57 nm  f=0.3669  <S**2>=0.000
     245 -> 248       -0.15061
     246 -> 247        0.69418
     246 <- 247       -0.10776
 This state for optimization and/or second-order correction.
 Total Energy, E(TD-HF/TD-DFT) =  -3005.27164369
 Copying the excited state density for this state as the 1-particle RhoCI density.

 Excited State   2:      Singlet-A      2.2514 eV  550.69 nm  f=0.1462  <S**2>=0.000
     245 -> 247        0.66133
     246 -> 248        0.21796

 Excited State   3:      Singlet-A      2.7631 eV  448.71 nm  f=0.0017  <S**2>=0.000
     243 -> 247       -0.31711
     244 -> 247        0.60494

 Excited State   4:      Singlet-A      2.9108 eV  425.95 nm  f=0.0086  <S**2>=0.000
     243 -> 247        0.60917
     244 -> 247        0.33374

 Excited State   5:      Singlet-A      3.1851 eV  389.27 nm  f=0.0004  <S**2>=0.000
     240 -> 247        0.61920
     240 -> 248       -0.14645
     240 -> 249       -0.14382
     241 -> 247       -0.23204

 The electronic state is 1-A.
 Alpha  occ. eigenvalues --  -46.91152 -19.26925 -19.25333 -19.21737 -19.19495
 Alpha  occ. eigenvalues --  -19.19418 -19.16712 -14.41513 -14.41398 -14.39426
 Alpha  occ. eigenvalues --  -14.37874 -10.37936 -10.35909 -10.32370 -10.30082
 Alpha  occ. eigenvalues --  -10.29421 -10.29373 -10.28547 -10.28242 -10.28138
 Alpha  occ. eigenvalues --  -10.28133 -10.28005 -10.27880 -10.27736 -10.26186
 Alpha  occ. eigenvalues --  -10.25978 -10.25833 -10.25767 -10.25674 -10.25500
 Alpha  occ. eigenvalues --  -10.25431 -10.25360 -10.25163 -10.25160 -10.25135
 Alpha  occ. eigenvalues --  -10.24742 -10.24419 -10.24311 -10.24194 -10.24140
 Alpha  occ. eigenvalues --  -10.23728 -10.23634 -10.23473 -10.23322 -10.23182
 Alpha  occ. eigenvalues --  -10.23151 -10.23060 -10.23048 -10.23027 -10.23016
 Alpha  occ. eigenvalues --  -10.22872 -10.22773 -10.22626 -10.22583 -10.22452
 Alpha  occ. eigenvalues --  -10.22442 -10.22188 -10.22132 -10.22087 -10.22013
 Alpha  occ. eigenvalues --  -10.22006 -10.21984 -10.21670 -10.21480 -10.21436
 Alpha  occ. eigenvalues --  -10.21259  -3.13416  -1.86269  -1.85792  -1.85646
 Alpha  occ. eigenvalues --   -1.11380  -1.11346  -1.05694  -1.03724  -1.02588
 Alpha  occ. eigenvalues --   -1.01650  -0.99644  -0.98620  -0.97669  -0.96853
 Alpha  occ. eigenvalues --   -0.88209  -0.85407  -0.84483  -0.83437  -0.83250
 Alpha  occ. eigenvalues --   -0.83003  -0.82703  -0.82057  -0.81549  -0.80830
 Alpha  occ. eigenvalues --   -0.80532  -0.79390  -0.78420  -0.77919  -0.77665
 Alpha  occ. eigenvalues --   -0.76917  -0.76458  -0.75822  -0.75092  -0.74882
 Alpha  occ. eigenvalues --   -0.74249  -0.72904  -0.71968  -0.71696  -0.70441
 Alpha  occ. eigenvalues --   -0.70313  -0.69654  -0.69315  -0.68925  -0.68199
 Alpha  occ. eigenvalues --   -0.67616  -0.66630  -0.65837  -0.65012  -0.63607
 Alpha  occ. eigenvalues --   -0.63160  -0.62856  -0.62045  -0.61632  -0.59990
 Alpha  occ. eigenvalues --   -0.59950  -0.59696  -0.59232  -0.59052  -0.58633
 Alpha  occ. eigenvalues --   -0.57408  -0.57172  -0.57017  -0.56211  -0.55110
 Alpha  occ. eigenvalues --   -0.53971  -0.53863  -0.53525  -0.53236  -0.52522
 Alpha  occ. eigenvalues --   -0.52229  -0.50892  -0.50824  -0.50497  -0.49910
 Alpha  occ. eigenvalues --   -0.49692  -0.49217  -0.48794  -0.48570  -0.48385
 Alpha  occ. eigenvalues --   -0.48303  -0.48180  -0.47847  -0.47783  -0.47508
 Alpha  occ. eigenvalues --   -0.47338  -0.47186  -0.47017  -0.46898  -0.46467
 Alpha  occ. eigenvalues --   -0.46350  -0.45962  -0.45704  -0.45520  -0.45414
 Alpha  occ. eigenvalues --   -0.45286  -0.45237  -0.44879  -0.44634  -0.44438
 Alpha  occ. eigenvalues --   -0.44210  -0.44077  -0.43892  -0.43678  -0.43379
 Alpha  occ. eigenvalues --   -0.43065  -0.42726  -0.42517  -0.42417  -0.42293
 Alpha  occ. eigenvalues --   -0.42146  -0.41892  -0.41791  -0.41708  -0.41419
 Alpha  occ. eigenvalues --   -0.41191  -0.40896  -0.40670  -0.40639  -0.40364
 Alpha  occ. eigenvalues --   -0.40221  -0.40023  -0.39909  -0.39610  -0.39249
 Alpha  occ. eigenvalues --   -0.39080  -0.39012  -0.38888  -0.38812  -0.38546
 Alpha  occ. eigenvalues --   -0.38304  -0.38205  -0.38123  -0.38059  -0.37948
 Alpha  occ. eigenvalues --   -0.37593  -0.37334  -0.37269  -0.37145  -0.36893
 Alpha  occ. eigenvalues --   -0.36749  -0.36603  -0.36262  -0.36191  -0.35684
 Alpha  occ. eigenvalues --   -0.35364  -0.35337  -0.35137  -0.35126  -0.34875
 Alpha  occ. eigenvalues --   -0.34543  -0.34470  -0.34061  -0.33402  -0.33314
 Alpha  occ. eigenvalues --   -0.33210  -0.33107  -0.33055  -0.32528  -0.32116
 Alpha  occ. eigenvalues --   -0.32011  -0.31909  -0.31871  -0.31478  -0.31322
 Alpha  occ. eigenvalues --   -0.30870  -0.30439  -0.29851  -0.29702  -0.29055
 Alpha  occ. eigenvalues --   -0.28852  -0.28606  -0.28548  -0.27081  -0.26303
 Alpha  occ. eigenvalues --   -0.26057  -0.24967  -0.24429  -0.24139  -0.20835
 Alpha  occ. eigenvalues --   -0.18738
 Alpha virt. eigenvalues --   -0.11085  -0.04854  -0.03736  -0.01917  -0.00325
 Alpha virt. eigenvalues --    0.00830   0.01296   0.01599   0.01982   0.03241
 Alpha virt. eigenvalues --    0.04065   0.04120   0.05028   0.05239   0.05651

 Mulliken charges:
               1
     1  Mg   0.988245
     2  C   -0.093756
     3  C   -0.050281
     4  C   -0.078064
     5  C   -0.058751
     6  N   -0.373791
     7  C   -0.030771
     8  C   -0.031875
     9  C   -0.113524
    10  C    0.102610
    11  C    0.018297
    12  C    0.038638
    13  C   -0.031404
    14  C    0.257217
    15  O   -0.258035
    16  O   -0.379209
    17  N   -0.539540
    18  C    0.134458
    19  C   -0.182324
    20  C   -0.085320
    21  C    0.164000
    22  C    0.044577
    23  C    0.052783
    24  O   -0.230226
    25  C   -0.036585
    26  N   -0.371674
    27  C    0.113905
    28  C   -0.102865
    29  C   -0.094001
    30  C    0.095450
    31  C    0.013504
    32  C   -0.039601
    33  C   -0.060526
    34  N   -0.463028
    35  C    0.087712
    36  C   -0.175290
    37  C    0.005999
    38  C    0.193448
    39  C    0.048583
    40  C    0.010666
    41  O   -0.262696
    42  C    0.008115
    43  C    0.289491
    44  O   -0.264499
    45  O   -0.345509
    46  C    0.125788
    47  C    0.259038
    48  C   -0.147072
    49  C   -0.255178
    50  C    0.039793
    51  C   -0.020445
    52  C   -0.021449
    53  C   -0.033704
    54  C   -0.193413
    55  C   -0.008195
    56  C    0.003641
    57  C   -0.005702
    58  C   -0.062728
    59  C   -0.274890
    60  C    0.011818
    61  C    0.012970
    62  C   -0.078448
    63  C   -0.008610
    64  C   -0.223813
    65  C   -0.025446
    66  C   -0.014465
    67  H   -0.008827
    68  H    0.020743
    69  H    0.002163
    70  H    0.065509
    71  H    0.041311
    72  H    0.068216
    73  H    0.034329
    74  H    0.028246
    75  H    0.033904
    76  H    0.031203
    77  H    0.064795
    78  H    0.074194
    79  H    0.076419
    80  H    0.054728
    81  H    0.041226
    82  H    0.060084
    83  H    0.070024
    84  H    0.050411
    85  H    0.055835
    86  H    0.051223
    87  H    0.063672
    88  H    0.049797
    89  H    0.038922
    90  H    0.048060
    91  H    0.040140
    92  H    0.027042
    93  H    0.052874
    94  H    0.037918
    95  H    0.043589
    96  H    0.055410
    97  H    0.050503
    98  H    0.075907
    99  H    0.056760
   100  H    0.066120
   101  H    0.046929
   102  H    0.071110
   103  H    0.063627
   104  H    0.025945
   105  H    0.069254
   106  H    0.029740
   107  H    0.052617
   108  H    0.024475
   109  H    0.036399
   110  H    0.025477
   111  H    0.038615
   112  H    0.038930
   113  H    0.018570
   114  H    0.027164
   115  H    0.031437
   116  H    0.021748
   117  H    0.031290
   118  H    0.026219
   119  H    0.040516
   120  H    0.032598
   121  H    0.023055
   122  H    0.023045
   123  H    0.025743
   124  H    0.035191
   125  H    0.034976
   126  H    0.036605
   127  H    0.031483
   128  H    0.020864
   129  H    0.028430
   130  H    0.032196
   131  H    0.037413
   132  H    0.038495
   133  H    0.026519
   134  H    0.036606
   135  H    0.028503
   136  H    0.021992
   137  H    0.043092
   138  H    0.032349
   139  H    0.039560
   140  H    0.034731
 Sum of Mulliken charges =  -0.00000

 Dipole moment (field-independent basis, Debye):
    X=              3.3782    Y=              5.0835    Z=             -1.0311  Tot=              6.1901
 Quadrupole moment (field-independent basis, Debye-Ang):
   XX=           -369.1539   YY=           -419.9341   ZZ=           -401.9964
   XY=             -0.3463   XZ=              5.8946   YZ=              2.5410

 Normal termination of Gaussian 16 at Fri Apr 29 12:32:59 2022.
