 Gaussian 16, Revision A.03,
 Gaussian 16:  ES64L-G16RevA.03 25-Dec-2016

 --------------------------------
 #p wB97XD/Def2SVP td=(nstates=5)
 --------------------------------

 ----------------------------------------------------
 step_301_chromophore_19 TDDFT with wB97XD functional
 ----------------------------------------------------
 Symbolic Z-matrix:
 Charge =  0 Multiplicity = 1

                         Standard orientation:
 ---------------------------------------------------------------------
 Center     Atomic      Atomic             Coordinates (Angstroms)
 Number     Number       Type             X           Y           Z
 ---------------------------------------------------------------------
      1         12           0       -5.901792    0.285809   -0.143797
      2          6           0       -3.240707   -2.096996   -0.445200
      3          6           0       -3.586826    2.690538    0.340319
      4          6           0       -8.445429    2.370918    0.554979
      5          6           0       -8.189615   -2.252523   -0.518225
      6          7           0       -3.649718    0.265757   -0.133590
      7          6           0       -2.762330   -0.817855   -0.270787
      8          6           0       -1.318444   -0.393355   -0.235122
      9          6           0       -1.454464    1.131456    0.214865
     10          6           0       -2.996204    1.398119    0.105598
     11          6           0       -0.821185    1.539819    1.566599
     12          6           0       -0.528451   -0.559228   -1.584974
     13          6           0        0.957040   -0.966456   -1.647597
     14          6           0        1.949629   -0.688082   -0.439132
     15          8           0        1.615871   -0.344481    0.683643
     16          8           0        3.258765   -0.785798   -0.904638
     17          7           0       -6.032027    2.249268    0.293088
     18          6           0       -4.956038    3.091164    0.406988
     19          6           0       -5.486763    4.465683    0.631124
     20          6           0       -6.927119    4.417576    0.584415
     21          6           0       -7.208026    2.982660    0.376825
     22          6           0       -4.518517    5.652128    0.839669
     23          6           0       -7.907157    5.532478    0.734213
     24          8           0       -9.115106    5.454722    0.601747
     25          6           0       -7.375396    6.903753    0.876667
     26          7           0       -7.989983    0.065007    0.116771
     27          6           0       -8.808125    1.058514    0.442360
     28          6           0      -10.306240    0.633973    0.542776
     29          6           0      -10.269652   -0.851561    0.101007
     30          6           0       -8.737631   -1.031722   -0.110786
     31          6           0      -10.861240    0.726803    2.006249
     32          6           0      -11.028065   -1.232399   -1.232148
     33          6           0      -12.558438   -1.332197   -0.983489
     34          7           0       -5.761546   -1.753631   -0.459028
     35          6           0       -6.812242   -2.608975   -0.706619
     36          6           0       -6.232467   -3.854978   -1.046677
     37          6           0       -4.791588   -3.716418   -0.867185
     38          6           0       -4.616042   -2.365903   -0.594041
     39          6           0       -6.978873   -5.012523   -1.512939
     40          6           0       -3.559791   -4.359557   -0.888970
     41          8           0       -3.173923   -5.500673   -1.190978
     42          6           0       -2.519774   -3.385183   -0.600492
     43          6           0       -1.857008   -3.855593    0.640268
     44          8           0       -2.379207   -4.068186    1.736381
     45          8           0       -0.552346   -4.119138    0.359515
     46          6           0        0.184023   -4.781203    1.385797
     47          6           0        4.226031   -0.348517    0.141838
     48          6           0        5.530551   -0.295930   -0.570110
     49          6           0        6.696248    0.078212   -0.074640
     50          6           0        6.917417    0.909649    1.184706
     51          6           0        7.938427   -0.050081   -0.866918
     52          6           0        8.060199    0.932259   -2.114992
     53          6           0        8.956301    2.176841   -1.743397
     54          6           0       10.229842    2.467309   -2.599496
     55          6           0        9.880283    3.281555   -3.827135
     56          6           0       10.952379    1.183983   -3.026770
     57          6           0       12.375576    1.137526   -2.504796
     58          6           0       12.506140    0.286054   -1.221547
     59          6           0       13.410391    0.951483   -0.132697
     60          6           0       14.888030    1.026124   -0.581074
     61          6           0       13.226755    0.083609    1.140897
     62          6           0       11.957376    0.569649    1.902155
     63          6           0       11.009623   -0.672472    2.271845
     64          6           0       11.534951   -1.289684    3.575668
     65          6           0       11.626680   -2.790519    3.397166
     66          6           0       10.611144   -1.011760    4.785537
     67          1           0       -3.000534    3.578543    0.587262
     68          1           0       -9.175666    3.133538    0.831195
     69          1           0       -8.749365   -3.163043   -0.743685
     70          1           0       -0.944519   -0.923796    0.640854
     71          1           0       -1.093702    1.759738   -0.598743
     72          1           0       -0.222748    0.754932    2.030069
     73          1           0       -1.525351    1.880939    2.325464
     74          1           0       -0.185763    2.417042    1.447503
     75          1           0       -0.658691    0.287884   -2.258349
     76          1           0       -1.106085   -1.307309   -2.128539
     77          1           0        1.391364   -0.628015   -2.588525
     78          1           0        0.937158   -2.051152   -1.750375
     79          1           0       -4.344542    6.119168   -0.129611
     80          1           0       -3.604828    5.344190    1.347157
     81          1           0       -4.953170    6.339227    1.565436
     82          1           0       -6.748423    7.095849    0.006610
     83          1           0       -6.846431    7.110345    1.806914
     84          1           0       -8.204006    7.609152    0.805399
     85          1           0      -10.873683    1.216487   -0.183924
     86          1           0      -10.502531   -1.597894    0.859812
     87          1           0      -10.170186    0.912569    2.828680
     88          1           0      -11.600776   -0.070796    2.071966
     89          1           0      -11.438360    1.651863    1.989547
     90          1           0      -10.662397   -2.174331   -1.640249
     91          1           0      -10.869543   -0.450712   -1.975747
     92          1           0      -12.767621   -1.246744    0.082974
     93          1           0      -13.070840   -2.217713   -1.359846
     94          1           0      -13.039967   -0.428364   -1.357219
     95          1           0       -6.343136   -5.887501   -1.644877
     96          1           0       -7.415404   -4.910899   -2.506587
     97          1           0       -7.659662   -5.349610   -0.731230
     98          1           0       -1.907108   -3.440984   -1.500693
     99          1           0       -0.067488   -5.841861    1.390887
    100          1           0       -0.005730   -4.350386    2.369875
    101          1           0        1.223297   -4.736708    1.061973
    102          1           0        4.448474   -1.062542    0.935867
    103          1           0        3.961714    0.621177    0.562596
    104          1           0        5.632154   -0.831975   -1.513291
    105          1           0        7.110397    0.221670    2.008359
    106          1           0        5.971741    1.445859    1.264579
    107          1           0        7.696631    1.609280    0.884067
    108          1           0        7.877743   -1.081461   -1.212561
    109          1           0        8.866641   -0.121446   -0.298926
    110          1           0        7.057732    1.303783   -2.328389
    111          1           0        8.264284    0.466450   -3.078694
    112          1           0        9.316586    2.249923   -0.716083
    113          1           0        8.273551    3.021439   -1.837080
    114          1           0       10.806363    3.178748   -2.010104
    115          1           0        8.916559    3.783881   -3.750746
    116          1           0        9.816395    2.670094   -4.727229
    117          1           0       10.747246    3.905758   -4.045077
    118          1           0       11.051545    1.112353   -4.109551
    119          1           0       10.472960    0.285694   -2.637797
    120          1           0       12.746763    2.150119   -2.344352
    121          1           0       12.930677    0.504302   -3.196215
    122          1           0       12.945157   -0.695467   -1.401857
    123          1           0       11.534076    0.121569   -0.757455
    124          1           0       12.973879    1.950444   -0.123207
    125          1           0       15.627822    0.725726    0.160618
    126          1           0       14.962392    2.083708   -0.834919
    127          1           0       15.106680    0.403994   -1.449500
    128          1           0       14.103804    0.277015    1.757921
    129          1           0       13.210633   -0.969112    0.860360
    130          1           0       11.443646    1.262947    1.237671
    131          1           0       12.334719    1.108232    2.772183
    132          1           0       10.930643   -1.310552    1.391081
    133          1           0       10.055041   -0.189177    2.480795
    134          1           0       12.584272   -1.067194    3.770609
    135          1           0       12.512524   -3.133226    3.930686
    136          1           0       11.940559   -2.969220    2.368621
    137          1           0       10.670911   -3.244318    3.656944
    138          1           0       10.643284   -0.016462    5.227547
    139          1           0       10.938192   -1.753332    5.513992
    140          1           0        9.552906   -1.107409    4.541234
 ---------------------------------------------------------------------

 SCF Done:  E(RwB97XD) =  -3007.85238021     A.U. after   19 cycles

 Excitation energies and oscillator strengths:

 Excited State   1:      Singlet-A      1.7481 eV  709.25 nm  f=0.3803  <S**2>=0.000
     245 -> 248       -0.16018
     246 -> 247        0.68671
     245 <- 248       -0.10119
 This state for optimization and/or second-order correction.
 Total Energy, E(TD-HF/TD-DFT) =  -3007.78813895
 Copying the excited state density for this state as the 1-particle RhoCI density.

 Excited State   2:      Singlet-A      2.2188 eV  558.78 nm  f=0.1511  <S**2>=0.000
     245 -> 247        0.64772
     246 -> 248        0.24896

 Excited State   3:      Singlet-A      3.3784 eV  366.99 nm  f=0.0137  <S**2>=0.000
     241 -> 247       -0.18822
     244 -> 247        0.65237
     244 -> 249       -0.11013

 Excited State   4:      Singlet-A      3.5217 eV  352.06 nm  f=0.0104  <S**2>=0.000
     241 -> 247       -0.13918
     243 -> 247        0.53382
     243 -> 249       -0.26805
     243 -> 250       -0.28712

 Excited State   5:      Singlet-A      3.5841 eV  345.93 nm  f=0.1895  <S**2>=0.000
     239 -> 247        0.25699
     240 -> 247       -0.10409
     241 -> 247       -0.37287
     243 -> 247       -0.13036
     244 -> 247       -0.15509
     245 -> 247       -0.11219
     246 -> 248        0.44373

 The electronic state is 1-A.
 Alpha  occ. eigenvalues --  -46.94107 -19.31454 -19.29744 -19.26374 -19.24716
 Alpha  occ. eigenvalues --  -19.23943 -19.21016 -14.46641 -14.46515 -14.44597
 Alpha  occ. eigenvalues --  -14.42517 -10.44676 -10.42563 -10.39621 -10.36558
 Alpha  occ. eigenvalues --  -10.36074 -10.35884 -10.35515 -10.35131 -10.34871
 Alpha  occ. eigenvalues --  -10.34807 -10.34265 -10.34042 -10.34024 -10.32728
 Alpha  occ. eigenvalues --  -10.32336 -10.32152 -10.32090 -10.31873 -10.31861
 Alpha  occ. eigenvalues --  -10.31859 -10.31739 -10.31653 -10.31534 -10.31050
 Alpha  occ. eigenvalues --  -10.30893 -10.30510 -10.30382 -10.30331 -10.30232
 Alpha  occ. eigenvalues --  -10.30078 -10.29951 -10.29950 -10.29930 -10.29770
 Alpha  occ. eigenvalues --  -10.29613 -10.29458 -10.29428 -10.29374 -10.29314
 Alpha  occ. eigenvalues --  -10.29218 -10.29090 -10.28967 -10.28940 -10.28929
 Alpha  occ. eigenvalues --  -10.28819 -10.28621 -10.28478 -10.28369 -10.28367
 Alpha  occ. eigenvalues --  -10.28356 -10.28142 -10.28100 -10.27912 -10.27855
 Alpha  occ. eigenvalues --  -10.26996  -3.20206  -1.93812  -1.93338  -1.93185
 Alpha  occ. eigenvalues --   -1.18730  -1.18574  -1.13570  -1.11034  -1.09709
 Alpha  occ. eigenvalues --   -1.08795  -1.07018  -1.05743  -1.05150  -1.04424
 Alpha  occ. eigenvalues --   -0.95510  -0.93061  -0.92143  -0.91092  -0.90929
 Alpha  occ. eigenvalues --   -0.90598  -0.90382  -0.89716  -0.89685  -0.88468
 Alpha  occ. eigenvalues --   -0.87847  -0.87023  -0.86024  -0.85464  -0.85237
 Alpha  occ. eigenvalues --   -0.84556  -0.84400  -0.83444  -0.82744  -0.82552
 Alpha  occ. eigenvalues --   -0.81912  -0.80850  -0.79510  -0.79209  -0.78078
 Alpha  occ. eigenvalues --   -0.77801  -0.77349  -0.76947  -0.76600  -0.75862
 Alpha  occ. eigenvalues --   -0.75202  -0.74038  -0.73421  -0.72631  -0.71211
 Alpha  occ. eigenvalues --   -0.70830  -0.70548  -0.69451  -0.69287  -0.67554
 Alpha  occ. eigenvalues --   -0.67436  -0.67359  -0.66607  -0.66445  -0.66080
 Alpha  occ. eigenvalues --   -0.65092  -0.64823  -0.64274  -0.63817  -0.62809
 Alpha  occ. eigenvalues --   -0.61309  -0.61278  -0.60890  -0.60593  -0.59855
 Alpha  occ. eigenvalues --   -0.59687  -0.58409  -0.58224  -0.58075  -0.57259
 Alpha  occ. eigenvalues --   -0.56969  -0.56559  -0.56174  -0.56041  -0.55854
 Alpha  occ. eigenvalues --   -0.55735  -0.55619  -0.55586  -0.55267  -0.54969
 Alpha  occ. eigenvalues --   -0.54685  -0.54550  -0.54265  -0.54192  -0.53781
 Alpha  occ. eigenvalues --   -0.53643  -0.53381  -0.53125  -0.52940  -0.52748
 Alpha  occ. eigenvalues --   -0.52650  -0.52420  -0.52233  -0.51972  -0.51830
 Alpha  occ. eigenvalues --   -0.51710  -0.51256  -0.51180  -0.51034  -0.50915
 Alpha  occ. eigenvalues --   -0.50308  -0.50117  -0.49977  -0.49680  -0.49645
 Alpha  occ. eigenvalues --   -0.49429  -0.49182  -0.48949  -0.48803  -0.48632
 Alpha  occ. eigenvalues --   -0.48381  -0.47994  -0.47877  -0.47691  -0.47572
 Alpha  occ. eigenvalues --   -0.47407  -0.47297  -0.47082  -0.46710  -0.46352
 Alpha  occ. eigenvalues --   -0.46285  -0.46194  -0.45962  -0.45851  -0.45672
 Alpha  occ. eigenvalues --   -0.45603  -0.45490  -0.45335  -0.45179  -0.45070
 Alpha  occ. eigenvalues --   -0.44736  -0.44609  -0.44428  -0.44284  -0.44037
 Alpha  occ. eigenvalues --   -0.43788  -0.43522  -0.43310  -0.43270  -0.42638
 Alpha  occ. eigenvalues --   -0.42389  -0.42327  -0.42238  -0.42115  -0.41953
 Alpha  occ. eigenvalues --   -0.41558  -0.41371  -0.41102  -0.40467  -0.40387
 Alpha  occ. eigenvalues --   -0.40203  -0.40126  -0.40004  -0.39580  -0.39131
 Alpha  occ. eigenvalues --   -0.38971  -0.38900  -0.38849  -0.38390  -0.38301
 Alpha  occ. eigenvalues --   -0.37819  -0.37412  -0.36815  -0.36616  -0.35918
 Alpha  occ. eigenvalues --   -0.35529  -0.35470  -0.35259  -0.33995  -0.33815
 Alpha  occ. eigenvalues --   -0.32783  -0.31717  -0.31113  -0.30290  -0.25918
 Alpha  occ. eigenvalues --   -0.23029
 Alpha virt. eigenvalues --   -0.06926   0.00715   0.02331   0.04648   0.06538
 Alpha virt. eigenvalues --    0.06686   0.08221   0.08361   0.08617   0.09476
 Alpha virt. eigenvalues --    0.10669   0.10740   0.11889   0.11957   0.12304

 Mulliken charges:
               1
     1  Mg   0.977369
     2  C   -0.098355
     3  C   -0.069054
     4  C   -0.098232
     5  C   -0.070080
     6  N   -0.338286
     7  C   -0.065130
     8  C   -0.008117
     9  C   -0.088918
    10  C    0.091576
    11  C    0.027996
    12  C    0.048726
    13  C   -0.015468
    14  C    0.248005
    15  O   -0.256126
    16  O   -0.379008
    17  N   -0.511033
    18  C    0.132110
    19  C   -0.171528
    20  C   -0.077115
    21  C    0.157854
    22  C    0.058030
    23  C    0.051223
    24  O   -0.221323
    25  C   -0.025598
    26  N   -0.335627
    27  C    0.106361
    28  C   -0.082079
    29  C   -0.067115
    30  C    0.078074
    31  C    0.023787
    32  C   -0.024939
    33  C   -0.044142
    34  N   -0.418583
    35  C    0.067876
    36  C   -0.171763
    37  C    0.003773
    38  C    0.170668
    39  C    0.053333
    40  C   -0.001941
    41  O   -0.256945
    42  C    0.055334
    43  C    0.262992
    44  O   -0.259410
    45  O   -0.343792
    46  C    0.140246
    47  C    0.271645
    48  C   -0.157031
    49  C   -0.243637
    50  C    0.060898
    51  C    0.008570
    52  C   -0.004799
    53  C   -0.017586
    54  C   -0.167197
    55  C    0.003403
    56  C    0.022662
    57  C    0.012841
    58  C   -0.038993
    59  C   -0.235861
    60  C    0.020026
    61  C    0.025583
    62  C   -0.053015
    63  C    0.008598
    64  C   -0.196765
    65  C   -0.011767
    66  C   -0.001288
    67  H   -0.017244
    68  H    0.015781
    69  H   -0.005635
    70  H    0.052548
    71  H    0.029889
    72  H    0.064412
    73  H    0.027793
    74  H    0.023208
    75  H    0.026384
    76  H    0.020677
    77  H    0.060573
    78  H    0.069175
    79  H    0.074695
    80  H    0.053088
    81  H    0.036315
    82  H    0.054018
    83  H    0.066448
    84  H    0.050560
    85  H    0.047742
    86  H    0.040681
    87  H    0.059758
    88  H    0.043412
    89  H    0.032744
    90  H    0.040056
    91  H    0.031430
    92  H    0.017460
    93  H    0.048585
    94  H    0.030949
    95  H    0.038991
    96  H    0.049015
    97  H    0.043619
    98  H    0.068495
    99  H    0.052614
   100  H    0.061791
   101  H    0.042909
   102  H    0.065885
   103  H    0.057944
   104  H    0.022900
   105  H    0.064534
   106  H    0.021906
   107  H    0.042817
   108  H    0.015746
   109  H    0.020114
   110  H    0.016028
   111  H    0.031985
   112  H    0.026691
   113  H    0.009546
   114  H    0.016610
   115  H    0.025931
   116  H    0.014301
   117  H    0.025498
   118  H    0.018346
   119  H    0.026167
   120  H    0.021481
   121  H    0.015550
   122  H    0.013277
   123  H   -0.000577
   124  H    0.018775
   125  H    0.029994
   126  H    0.030977
   127  H    0.025397
   128  H    0.011787
   129  H    0.016714
   130  H    0.018743
   131  H    0.029040
   132  H    0.028810
   133  H    0.015222
   134  H    0.025189
   135  H    0.023098
   136  H    0.013991
   137  H    0.037184
   138  H    0.026923
   139  H    0.032850
   140  H    0.027775
 Sum of Mulliken charges =  -0.00000

 Dipole moment (field-independent basis, Debye):
    X=              3.3444    Y=              6.3475    Z=             -0.7936  Tot=              7.2185
 Quadrupole moment (field-independent basis, Debye-Ang):
   XX=           -369.1621   YY=           -417.7147   ZZ=           -401.6387
   XY=             -8.1009   XZ=              4.6045   YZ=              2.5305

 Normal termination of Gaussian 16 at Fri Apr 29 13:02:35 2022.
