 Gaussian 16, Revision A.03,
 Gaussian 16:  ES64L-G16RevA.03 25-Dec-2016

 --------------------
 #p ZINDO=(nstates=5)
 --------------------

 -----------------------------
 step_301_chromophore_19 ZINDO
 -----------------------------
 Symbolic Z-matrix:
 Charge =  0 Multiplicity = 1

                         Standard orientation:
 ---------------------------------------------------------------------
 Center     Atomic      Atomic             Coordinates (Angstroms)
 Number     Number       Type             X           Y           Z
 ---------------------------------------------------------------------
      1         12           0       -5.901792    0.285809   -0.143797
      2          6           0       -3.240707   -2.096996   -0.445200
      3          6           0       -3.586826    2.690538    0.340319
      4          6           0       -8.445429    2.370918    0.554979
      5          6           0       -8.189615   -2.252523   -0.518225
      6          7           0       -3.649718    0.265757   -0.133590
      7          6           0       -2.762330   -0.817855   -0.270787
      8          6           0       -1.318444   -0.393355   -0.235122
      9          6           0       -1.454464    1.131456    0.214865
     10          6           0       -2.996204    1.398119    0.105598
     11          6           0       -0.821185    1.539819    1.566599
     12          6           0       -0.528451   -0.559228   -1.584974
     13          6           0        0.957040   -0.966456   -1.647597
     14          6           0        1.949629   -0.688082   -0.439132
     15          8           0        1.615871   -0.344481    0.683643
     16          8           0        3.258765   -0.785798   -0.904638
     17          7           0       -6.032027    2.249268    0.293088
     18          6           0       -4.956038    3.091164    0.406988
     19          6           0       -5.486763    4.465683    0.631124
     20          6           0       -6.927119    4.417576    0.584415
     21          6           0       -7.208026    2.982660    0.376825
     22          6           0       -4.518517    5.652128    0.839669
     23          6           0       -7.907157    5.532478    0.734213
     24          8           0       -9.115106    5.454722    0.601747
     25          6           0       -7.375396    6.903753    0.876667
     26          7           0       -7.989983    0.065007    0.116771
     27          6           0       -8.808125    1.058514    0.442360
     28          6           0      -10.306240    0.633973    0.542776
     29          6           0      -10.269652   -0.851561    0.101007
     30          6           0       -8.737631   -1.031722   -0.110786
     31          6           0      -10.861240    0.726803    2.006249
     32          6           0      -11.028065   -1.232399   -1.232148
     33          6           0      -12.558438   -1.332197   -0.983489
     34          7           0       -5.761546   -1.753631   -0.459028
     35          6           0       -6.812242   -2.608975   -0.706619
     36          6           0       -6.232467   -3.854978   -1.046677
     37          6           0       -4.791588   -3.716418   -0.867185
     38          6           0       -4.616042   -2.365903   -0.594041
     39          6           0       -6.978873   -5.012523   -1.512939
     40          6           0       -3.559791   -4.359557   -0.888970
     41          8           0       -3.173923   -5.500673   -1.190978
     42          6           0       -2.519774   -3.385183   -0.600492
     43          6           0       -1.857008   -3.855593    0.640268
     44          8           0       -2.379207   -4.068186    1.736381
     45          8           0       -0.552346   -4.119138    0.359515
     46          6           0        0.184023   -4.781203    1.385797
     47          6           0        4.226031   -0.348517    0.141838
     48          6           0        5.530551   -0.295930   -0.570110
     49          6           0        6.696248    0.078212   -0.074640
     50          6           0        6.917417    0.909649    1.184706
     51          6           0        7.938427   -0.050081   -0.866918
     52          6           0        8.060199    0.932259   -2.114992
     53          6           0        8.956301    2.176841   -1.743397
     54          6           0       10.229842    2.467309   -2.599496
     55          6           0        9.880283    3.281555   -3.827135
     56          6           0       10.952379    1.183983   -3.026770
     57          6           0       12.375576    1.137526   -2.504796
     58          6           0       12.506140    0.286054   -1.221547
     59          6           0       13.410391    0.951483   -0.132697
     60          6           0       14.888030    1.026124   -0.581074
     61          6           0       13.226755    0.083609    1.140897
     62          6           0       11.957376    0.569649    1.902155
     63          6           0       11.009623   -0.672472    2.271845
     64          6           0       11.534951   -1.289684    3.575668
     65          6           0       11.626680   -2.790519    3.397166
     66          6           0       10.611144   -1.011760    4.785537
     67          1           0       -3.000534    3.578543    0.587262
     68          1           0       -9.175666    3.133538    0.831195
     69          1           0       -8.749365   -3.163043   -0.743685
     70          1           0       -0.944519   -0.923796    0.640854
     71          1           0       -1.093702    1.759738   -0.598743
     72          1           0       -0.222748    0.754932    2.030069
     73          1           0       -1.525351    1.880939    2.325464
     74          1           0       -0.185763    2.417042    1.447503
     75          1           0       -0.658691    0.287884   -2.258349
     76          1           0       -1.106085   -1.307309   -2.128539
     77          1           0        1.391364   -0.628015   -2.588525
     78          1           0        0.937158   -2.051152   -1.750375
     79          1           0       -4.344542    6.119168   -0.129611
     80          1           0       -3.604828    5.344190    1.347157
     81          1           0       -4.953170    6.339227    1.565436
     82          1           0       -6.748423    7.095849    0.006610
     83          1           0       -6.846431    7.110345    1.806914
     84          1           0       -8.204006    7.609152    0.805399
     85          1           0      -10.873683    1.216487   -0.183924
     86          1           0      -10.502531   -1.597894    0.859812
     87          1           0      -10.170186    0.912569    2.828680
     88          1           0      -11.600776   -0.070796    2.071966
     89          1           0      -11.438360    1.651863    1.989547
     90          1           0      -10.662397   -2.174331   -1.640249
     91          1           0      -10.869543   -0.450712   -1.975747
     92          1           0      -12.767621   -1.246744    0.082974
     93          1           0      -13.070840   -2.217713   -1.359846
     94          1           0      -13.039967   -0.428364   -1.357219
     95          1           0       -6.343136   -5.887501   -1.644877
     96          1           0       -7.415404   -4.910899   -2.506587
     97          1           0       -7.659662   -5.349610   -0.731230
     98          1           0       -1.907108   -3.440984   -1.500693
     99          1           0       -0.067488   -5.841861    1.390887
    100          1           0       -0.005730   -4.350386    2.369875
    101          1           0        1.223297   -4.736708    1.061973
    102          1           0        4.448474   -1.062542    0.935867
    103          1           0        3.961714    0.621177    0.562596
    104          1           0        5.632154   -0.831975   -1.513291
    105          1           0        7.110397    0.221670    2.008359
    106          1           0        5.971741    1.445859    1.264579
    107          1           0        7.696631    1.609280    0.884067
    108          1           0        7.877743   -1.081461   -1.212561
    109          1           0        8.866641   -0.121446   -0.298926
    110          1           0        7.057732    1.303783   -2.328389
    111          1           0        8.264284    0.466450   -3.078694
    112          1           0        9.316586    2.249923   -0.716083
    113          1           0        8.273551    3.021439   -1.837080
    114          1           0       10.806363    3.178748   -2.010104
    115          1           0        8.916559    3.783881   -3.750746
    116          1           0        9.816395    2.670094   -4.727229
    117          1           0       10.747246    3.905758   -4.045077
    118          1           0       11.051545    1.112353   -4.109551
    119          1           0       10.472960    0.285694   -2.637797
    120          1           0       12.746763    2.150119   -2.344352
    121          1           0       12.930677    0.504302   -3.196215
    122          1           0       12.945157   -0.695467   -1.401857
    123          1           0       11.534076    0.121569   -0.757455
    124          1           0       12.973879    1.950444   -0.123207
    125          1           0       15.627822    0.725726    0.160618
    126          1           0       14.962392    2.083708   -0.834919
    127          1           0       15.106680    0.403994   -1.449500
    128          1           0       14.103804    0.277015    1.757921
    129          1           0       13.210633   -0.969112    0.860360
    130          1           0       11.443646    1.262947    1.237671
    131          1           0       12.334719    1.108232    2.772183
    132          1           0       10.930643   -1.310552    1.391081
    133          1           0       10.055041   -0.189177    2.480795
    134          1           0       12.584272   -1.067194    3.770609
    135          1           0       12.512524   -3.133226    3.930686
    136          1           0       11.940559   -2.969220    2.368621
    137          1           0       10.670911   -3.244318    3.656944
    138          1           0       10.643284   -0.016462    5.227547
    139          1           0       10.938192   -1.753332    5.513992
    140          1           0        9.552906   -1.107409    4.541234
 ---------------------------------------------------------------------

 SCF Done:  E(RZINDO/S) =  -474.588588347     A.U. after   19 cycles

 Excitation energies and oscillator strengths:

 Excited State   1:      Singlet-A      1.3548 eV  915.18 nm  f=0.5411  <S**2>=0.000
     175 ->178         0.14470
     176 ->177         0.67371
 This state for optimization and/or second-order correction.
 Total Energy, E(CIS/TDA) =  -474.538801967
 Copying the excited state density for this state as the 1-particle RhoCI density.

 Excited State   2:      Singlet-A      1.9988 eV  620.29 nm  f=0.0824  <S**2>=0.000
     175 ->177         0.56093
     176 ->178        -0.37632

 Excited State   3:      Singlet-A      2.8914 eV  428.80 nm  f=0.0137  <S**2>=0.000
     167 ->177        -0.31941
     167 ->178         0.23008
     167 ->179         0.40373
     167 ->181        -0.18962
     167 ->185         0.20198
     168 ->177         0.10075
     168 ->179        -0.11406

 Excited State   4:      Singlet-A      2.9278 eV  423.47 nm  f=0.0032  <S**2>=0.000
     171 ->177        -0.19989
     171 ->179        -0.20568
     171 ->181        -0.29363
     171 ->185        -0.12203
     171 ->189         0.10823
     172 ->177        -0.20821
     172 ->179        -0.20414
     172 ->181        -0.28820
     172 ->185        -0.12126
     172 ->189         0.10686

 Excited State   5:      Singlet-A      3.0412 eV  407.68 nm  f=0.9819  <S**2>=0.000
     175 ->177         0.35642
     176 ->178         0.56007

 The electronic state is 1-A.
 Alpha  occ. eigenvalues --   -1.86399  -1.82170  -1.79202  -1.74437  -1.71907
 Alpha  occ. eigenvalues --   -1.70348  -1.67816  -1.62185  -1.61893  -1.61652
 Alpha  occ. eigenvalues --   -1.57461  -1.53435  -1.49222  -1.47473  -1.46420
 Alpha  occ. eigenvalues --   -1.43086  -1.42199  -1.40518  -1.38376  -1.37676
 Alpha  occ. eigenvalues --   -1.35421  -1.33483  -1.33205  -1.31650  -1.29210
 Alpha  occ. eigenvalues --   -1.28661  -1.24711  -1.22798  -1.21326  -1.19339
 Alpha  occ. eigenvalues --   -1.17323  -1.16280  -1.15384  -1.15337  -1.13394
 Alpha  occ. eigenvalues --   -1.12517  -1.11603  -1.10333  -1.04734  -1.03186
 Alpha  occ. eigenvalues --   -1.02701  -1.00909  -1.00679  -0.97491  -0.96946
 Alpha  occ. eigenvalues --   -0.96126  -0.95076  -0.94055  -0.92938  -0.92016
 Alpha  occ. eigenvalues --   -0.90690  -0.89356  -0.88722  -0.88277  -0.86694
 Alpha  occ. eigenvalues --   -0.85488  -0.84425  -0.83344  -0.81844  -0.80261
 Alpha  occ. eigenvalues --   -0.79330  -0.78048  -0.77302  -0.76809  -0.76458
 Alpha  occ. eigenvalues --   -0.75978  -0.75274  -0.74190  -0.73439  -0.73183
 Alpha  occ. eigenvalues --   -0.72528  -0.72506  -0.71942  -0.71208  -0.70287
 Alpha  occ. eigenvalues --   -0.69914  -0.69372  -0.68972  -0.68331  -0.68280
 Alpha  occ. eigenvalues --   -0.68058  -0.67456  -0.66896  -0.66316  -0.65587
 Alpha  occ. eigenvalues --   -0.65148  -0.65088  -0.64962  -0.64347  -0.63406
 Alpha  occ. eigenvalues --   -0.63332  -0.62851  -0.62788  -0.62661  -0.62189
 Alpha  occ. eigenvalues --   -0.61822  -0.61098  -0.60858  -0.60165  -0.59989
 Alpha  occ. eigenvalues --   -0.59512  -0.59334  -0.58677  -0.58581  -0.58245
 Alpha  occ. eigenvalues --   -0.58186  -0.57785  -0.57353  -0.56873  -0.56859
 Alpha  occ. eigenvalues --   -0.56675  -0.56113  -0.55390  -0.55230  -0.55038
 Alpha  occ. eigenvalues --   -0.54328  -0.54166  -0.53553  -0.52815  -0.52729
 Alpha  occ. eigenvalues --   -0.52130  -0.51641  -0.51452  -0.51234  -0.51125
 Alpha  occ. eigenvalues --   -0.50729  -0.50571  -0.50274  -0.49801  -0.49721
 Alpha  occ. eigenvalues --   -0.49658  -0.49585  -0.49327  -0.48894  -0.48826
 Alpha  occ. eigenvalues --   -0.48732  -0.48241  -0.48173  -0.48002  -0.47887
 Alpha  occ. eigenvalues --   -0.47200  -0.46762  -0.46711  -0.46418  -0.46202
 Alpha  occ. eigenvalues --   -0.45996  -0.45962  -0.45846  -0.45618  -0.45031
 Alpha  occ. eigenvalues --   -0.44887  -0.44340  -0.44282  -0.43665  -0.43445
 Alpha  occ. eigenvalues --   -0.43260  -0.42789  -0.42709  -0.42224  -0.42054
 Alpha  occ. eigenvalues --   -0.41249  -0.40334  -0.40151  -0.39644  -0.38860
 Alpha  occ. eigenvalues --   -0.37425  -0.36377  -0.35643  -0.34842  -0.34168
 Alpha  occ. eigenvalues --   -0.32562  -0.32391  -0.31983  -0.30381  -0.26692
 Alpha  occ. eigenvalues --   -0.21978
 Alpha virt. eigenvalues --   -0.08292  -0.01699  -0.00822   0.01067   0.01595
 Alpha virt. eigenvalues --    0.03154   0.03406   0.03851   0.05033   0.05157
 Alpha virt. eigenvalues --    0.06040   0.06747   0.06927   0.07465   0.08151

 Mulliken charges:
               1
     1  Mg   0.421501
     2  C   -0.024114
     3  C   -0.107508
     4  C   -0.070162
     5  C   -0.063775
     6  N   -0.282675
     7  C    0.083492
     8  C    0.008797
     9  C    0.005447
    10  C    0.185973
    11  C   -0.045295
    12  C   -0.018238
    13  C    0.005035
    14  C    0.462059
    15  O   -0.507536
    16  O   -0.265624
    17  N   -0.332856
    18  C    0.138156
    19  C    0.025813
    20  C   -0.036173
    21  C    0.147242
    22  C   -0.044514
    23  C    0.341920
    24  O   -0.511287
    25  C   -0.028793
    26  N   -0.250173
    27  C    0.174859
    28  C    0.008435
    29  C   -0.005542
    30  C    0.078751
    31  C   -0.056774
    32  C   -0.028234
    33  C   -0.064761
    34  N   -0.307666
    35  C    0.045420
    36  C    0.015859
    37  C   -0.084573
    38  C    0.116947
    39  C   -0.040863
    40  C    0.343857
    41  O   -0.581276
    42  C    0.066816
    43  C    0.502035
    44  O   -0.530967
    45  O   -0.267811
    46  C    0.078347
    47  C    0.107224
    48  C   -0.093198
    49  C   -0.010350
    50  C   -0.056395
    51  C   -0.023891
    52  C   -0.030616
    53  C   -0.039352
    54  C   -0.008248
    55  C   -0.059936
    56  C   -0.030622
    57  C   -0.044458
    58  C   -0.044185
    59  C   -0.024612
    60  C   -0.062516
    61  C   -0.037330
    62  C   -0.049316
    63  C   -0.036382
    64  C   -0.009375
    65  C   -0.062384
    66  C   -0.055129
    67  H    0.027458
    68  H    0.039333
    69  H    0.028636
    70  H    0.051334
    71  H    0.026861
    72  H    0.038915
    73  H    0.019050
    74  H    0.015108
    75  H    0.021927
    76  H    0.016284
    77  H    0.040519
    78  H    0.042498
    79  H    0.043003
    80  H    0.031302
    81  H    0.026349
    82  H    0.034527
    83  H    0.039572
    84  H    0.031911
    85  H    0.041958
    86  H    0.038305
    87  H    0.043265
    88  H    0.030791
    89  H    0.009025
    90  H    0.028140
    91  H    0.022199
    92  H    0.012982
    93  H    0.026893
    94  H    0.014447
    95  H    0.017258
    96  H    0.030439
    97  H    0.028019
    98  H    0.057713
    99  H    0.041813
   100  H    0.052056
   101  H    0.023801
   102  H    0.060244
   103  H    0.056159
   104  H    0.029796
   105  H    0.042671
   106  H    0.022007
   107  H    0.033825
   108  H    0.005611
   109  H    0.022160
   110  H    0.012586
   111  H    0.031669
   112  H    0.019117
   113  H    0.008562
   114  H    0.022089
   115  H    0.022203
   116  H    0.010401
   117  H    0.015537
   118  H    0.018348
   119  H    0.024347
   120  H    0.030774
   121  H    0.016271
   122  H    0.017165
   123  H    0.013727
   124  H    0.026808
   125  H    0.021571
   126  H    0.016473
   127  H    0.018915
   128  H    0.010684
   129  H    0.028097
   130  H    0.017395
   131  H    0.022859
   132  H    0.033028
   133  H    0.011339
   134  H    0.027711
   135  H    0.015323
   136  H    0.010195
   137  H    0.029238
   138  H    0.014463
   139  H    0.017148
   140  H    0.021291
 Sum of Mulliken charges =  -0.00000

 Dipole moment (field-independent basis, Debye):
    X=              4.2206    Y=             10.7460    Z=             -1.5205  Tot=             11.6448
 N-N= 4.297425147726D+03 E-N= 0.000000000000D+00  KE=-9.269753377124D+03
 Leave Link  601 at Fri Apr 29 13:15:14 2022, MaxMem=  6710886400 cpu:               1.3 elap:               0.1
 (Enter /sw/apps/gaussian-16.0/g16/l9999.exe)
 1\1\GINC-BP1-COMPUTE103\SP\RZINDO CIS\STO-3G\C55H74Mg1N4O6\OF15641\29-
 Apr-2022\0\\#p ZINDO=(nstates=5)\\step_301_chromophore_19 ZINDO\\0,1\M
 g,0,25.776,51.212,27.023\C,0,23.672,51.894,29.844\C,0,28.05,49.896,29.
 138\C,0,27.863,51.002,24.395\C,0,23.455,52.688,24.961\N,0,25.787,50.88
 3,29.251\C,0,24.827,51.243,30.215\C,0,25.21,50.81,31.605\C,0,26.718,50
 .34,31.379\C,0,26.86,50.34,29.817\C,0,27.83,51.111,32.13\C,0,24.312,49
 .684,32.237\C,0,23.956,49.632,33.736\C,0,24.883,50.304,34.837\O,0,25.8

 Normal termination of Gaussian 16 at Fri Apr 29 13:15:14 2022.
