 Gaussian 16, Revision A.03,
 Gaussian 16:  ES64L-G16RevA.03 25-Dec-2016

 ------------------------------
 #p blyp/Def2SVP td=(nstates=5)
 ------------------------------

 --------------------------------------------------
 step_351_chromophore_25 TDDFT with blyp functional
 --------------------------------------------------
 Symbolic Z-matrix:
 Charge =  0 Multiplicity = 1

                         Standard orientation:
 ---------------------------------------------------------------------
 Center     Atomic      Atomic             Coordinates (Angstroms)
 Number     Number       Type             X           Y           Z
 ---------------------------------------------------------------------
      1         12           0        6.218455    0.398429    0.284771
      2          6           0        3.758109   -1.997014    0.456947
      3          6           0        3.813393    2.811817    0.037661
      4          6           0        8.629569    2.620164   -0.723909
      5          6           0        8.559069   -1.934432    0.869013
      6          7           0        3.977154    0.333881    0.279863
      7          6           0        3.111133   -0.724224    0.367635
      8          6           0        1.671970   -0.305068    0.112090
      9          6           0        1.743848    1.283251    0.018914
     10          6           0        3.296436    1.525133    0.164492
     11          6           0        1.249311    1.955883   -1.350647
     12          6           0        0.716489   -0.698190    1.312934
     13          6           0       -0.415186   -1.583117    1.060835
     14          6           0       -1.841581   -1.055538    1.308391
     15          8           0       -2.411723   -1.021040    2.397068
     16          8           0       -2.509498   -0.797760    0.118047
     17          7           0        6.198747    2.422936   -0.142081
     18          6           0        5.163115    3.280149   -0.159249
     19          6           0        5.538630    4.597361   -0.468573
     20          6           0        6.910059    4.562397   -0.731747
     21          6           0        7.291195    3.163572   -0.555888
     22          6           0        4.590647    5.716566   -0.538873
     23          6           0        7.849441    5.799067   -1.095198
     24          8           0        9.062185    5.610870   -1.324892
     25          6           0        7.292060    7.227107   -1.337804
     26          7           0        8.261501    0.285731   -0.121617
     27          6           0        9.105116    1.293173   -0.410662
     28          6           0       10.582399    0.968916   -0.199479
     29          6           0       10.490265   -0.259217    0.697302
     30          6           0        9.017271   -0.665437    0.441288
     31          6           0       11.399848    0.751205   -1.504918
     32          6           0       10.872108    0.069843    2.205882
     33          6           0       11.561703   -1.187342    2.918975
     34          7           0        6.191525   -1.577321    0.429967
     35          6           0        7.243420   -2.419324    0.700286
     36          6           0        6.792697   -3.794508    0.869953
     37          6           0        5.368629   -3.698701    0.699052
     38          6           0        5.095380   -2.282977    0.518312
     39          6           0        7.652858   -4.972338    1.054466
     40          6           0        4.142573   -4.463996    0.636482
     41          8           0        3.975192   -5.650196    0.690346
     42          6           0        3.032725   -3.374714    0.453765
     43          6           0        2.340347   -3.716279   -0.835836
     44          8           0        2.840210   -3.423442   -1.914988
     45          8           0        1.099642   -4.258640   -0.604401
     46          6           0        0.237750   -4.629391   -1.694979
     47          6           0       -3.899076   -0.482673    0.223037
     48          6           0       -4.809108   -0.978353   -0.838005
     49          6           0       -5.719730   -2.023205   -0.818027
     50          6           0       -5.813506   -3.071590    0.315064
     51          6           0       -6.784437   -1.960878   -1.879364
     52          6           0       -8.090605   -1.152343   -1.686956
     53          6           0       -8.568410   -0.727673   -3.105304
     54          6           0      -10.111709   -0.686122   -3.210318
     55          6           0      -10.583754   -1.060387   -4.658789
     56          6           0      -10.792175    0.627986   -2.775983
     57          6           0      -12.355504    0.635809   -2.738178
     58          6           0      -12.947355    1.457936   -1.595549
     59          6           0      -13.755215    0.598808   -0.637027
     60          6           0      -15.031805    0.055556   -1.406695
     61          6           0      -14.078978    1.572788    0.629837
     62          6           0      -13.799850    0.913725    1.990877
     63          6           0      -14.574623    1.603407    3.123656
     64          6           0      -13.767025    1.856655    4.356522
     65          6           0      -14.728392    2.357592    5.465388
     66          6           0      -12.654676    2.916660    4.077135
     67          1           0        3.078121    3.606680   -0.102789
     68          1           0        9.423106    3.357718   -0.861500
     69          1           0        9.421308   -2.555177    1.121237
     70          1           0        1.322712   -0.672914   -0.852778
     71          1           0        1.282454    1.868008    0.814945
     72          1           0        0.683294    1.188722   -1.879055
     73          1           0        1.935192    2.411153   -2.064944
     74          1           0        0.491765    2.706062   -1.126475
     75          1           0        0.339141    0.236203    1.726296
     76          1           0        1.410999   -0.980886    2.104790
     77          1           0       -0.316632   -2.309192    1.867490
     78          1           0       -0.369696   -2.020447    0.063780
     79          1           0        5.102788    6.485896    0.039151
     80          1           0        3.609898    5.511965   -0.107953
     81          1           0        4.405858    5.986169   -1.579240
     82          1           0        8.110834    7.789108   -1.787001
     83          1           0        6.913986    7.689079   -0.425796
     84          1           0        6.493892    7.133692   -2.074409
     85          1           0       11.011672    1.854894    0.267680
     86          1           0       11.128970   -1.036576    0.275699
     87          1           0       10.817329    1.147553   -2.336094
     88          1           0       11.513510   -0.280719   -1.836826
     89          1           0       12.346048    1.292472   -1.516043
     90          1           0        9.936558    0.316833    2.707073
     91          1           0       11.565819    0.906805    2.285666
     92          1           0       10.919374   -1.486276    3.746710
     93          1           0       12.577647   -0.919219    3.206021
     94          1           0       11.558131   -2.086226    2.301719
     95          1           0        7.997144   -5.003603    2.088342
     96          1           0        8.569053   -4.863875    0.473122
     97          1           0        7.078413   -5.871508    0.833124
     98          1           0        2.208838   -3.485489    1.158782
     99          1           0       -0.604983   -3.943754   -1.784933
    100          1           0       -0.242375   -5.573547   -1.440279
    101          1           0        0.787541   -4.740064   -2.629172
    102          1           0       -3.928249    0.607416    0.210412
    103          1           0       -4.379089   -0.770064    1.158295
    104          1           0       -5.070319   -0.288415   -1.640827
    105          1           0       -5.112839   -2.823829    1.112562
    106          1           0       -5.622062   -4.110749    0.048986
    107          1           0       -6.782297   -3.036549    0.813550
    108          1           0       -6.945887   -3.007797   -2.139266
    109          1           0       -6.324264   -1.565544   -2.784996
    110          1           0       -8.076592   -0.208925   -1.140789
    111          1           0       -8.787273   -1.816700   -1.177364
    112          1           0       -8.298280   -1.421286   -3.902472
    113          1           0       -8.114965    0.249257   -3.274476
    114          1           0      -10.426123   -1.485416   -2.538077
    115          1           0      -11.595924   -0.703104   -4.847889
    116          1           0      -10.605527   -2.143047   -4.782994
    117          1           0       -9.926505   -0.592467   -5.391367
    118          1           0      -10.452261    1.357468   -3.510818
    119          1           0      -10.346235    1.062152   -1.880873
    120          1           0      -12.766530   -0.372353   -2.683806
    121          1           0      -12.710723    1.154032   -3.629324
    122          1           0      -13.610228    2.183636   -2.066448
    123          1           0      -12.087490    1.880836   -1.076028
    124          1           0      -13.058114   -0.190779   -0.355410
    125          1           0      -15.991139    0.304952   -0.953728
    126          1           0      -14.892681   -1.023992   -1.351991
    127          1           0      -15.037443    0.308862   -2.466789
    128          1           0      -15.148651    1.771903    0.687859
    129          1           0      -13.460113    2.462485    0.515050
    130          1           0      -12.741168    0.808122    2.229214
    131          1           0      -14.246487   -0.071362    1.856990
    132          1           0      -15.407257    0.939189    3.359008
    133          1           0      -14.989111    2.565802    2.822692
    134          1           0      -13.343205    0.922764    4.723753
    135          1           0      -15.769767    2.311679    5.146897
    136          1           0      -14.394383    3.373268    5.675679
    137          1           0      -14.639553    1.647034    6.286836
    138          1           0      -11.695447    2.401913    4.019244
    139          1           0      -12.422711    3.575888    4.913912
    140          1           0      -12.754005    3.463142    3.139430
 ---------------------------------------------------------------------

 SCF Done:  E(RB-LYP) =  -3007.38569034     A.U. after   21 cycles

 Excitation energies and oscillator strengths:

 Excited State   1:      Singlet-A      1.8189 eV  681.63 nm  f=0.2899  <S**2>=0.000
     245 -> 248       -0.20279
     246 -> 247        0.68155
     246 <- 247       -0.14099
 This state for optimization and/or second-order correction.
 Total Energy, E(TD-HF/TD-DFT) =  -3007.31884586
 Copying the excited state density for this state as the 1-particle RhoCI density.

 Excited State   2:      Singlet-A      1.9992 eV  620.17 nm  f=0.0704  <S**2>=0.000
     244 -> 247       -0.19648
     245 -> 247        0.62215
     246 -> 248        0.23906

 Excited State   3:      Singlet-A      2.1309 eV  581.83 nm  f=0.0074  <S**2>=0.000
     244 -> 247        0.67259
     245 -> 247        0.15949
     246 -> 248        0.10330

 Excited State   4:      Singlet-A      2.1558 eV  575.13 nm  f=0.0019  <S**2>=0.000
     243 -> 247        0.69938

 Excited State   5:      Singlet-A      2.5309 eV  489.88 nm  f=0.0006  <S**2>=0.000
     241 -> 247       -0.16321
     242 -> 247        0.68768

 The electronic state is 1-A.
 Alpha  occ. eigenvalues --  -46.26346 -18.82547 -18.81906 -18.76946 -18.76361
 Alpha  occ. eigenvalues --  -18.76155 -18.75700 -14.03099 -14.02941 -14.00894
 Alpha  occ. eigenvalues --  -14.00739 -10.04239 -10.03813 -10.01004  -9.99349
 Alpha  occ. eigenvalues --   -9.97835  -9.97143  -9.96820  -9.96129  -9.96118
 Alpha  occ. eigenvalues --   -9.96098  -9.95886  -9.95432  -9.94916  -9.94743
 Alpha  occ. eigenvalues --   -9.94695  -9.94302  -9.93956  -9.93609  -9.93604
 Alpha  occ. eigenvalues --   -9.93546  -9.93450  -9.93411  -9.93408  -9.93337
 Alpha  occ. eigenvalues --   -9.93156  -9.92936  -9.92825  -9.92788  -9.92710
 Alpha  occ. eigenvalues --   -9.92613  -9.92548  -9.92492  -9.92404  -9.92399
 Alpha  occ. eigenvalues --   -9.92243  -9.92210  -9.92183  -9.92117  -9.92088
 Alpha  occ. eigenvalues --   -9.92007  -9.91963  -9.91810  -9.91686  -9.91553
 Alpha  occ. eigenvalues --   -9.91297  -9.91261  -9.91113  -9.91062  -9.90947
 Alpha  occ. eigenvalues --   -9.90917  -9.90850  -9.90607  -9.90473  -9.90402
 Alpha  occ. eigenvalues --   -9.90295  -2.91234  -1.71651  -1.71114  -1.70956
 Alpha  occ. eigenvalues --   -0.97674  -0.97666  -0.92440  -0.90549  -0.90008
 Alpha  occ. eigenvalues --   -0.89739  -0.87531  -0.86676  -0.85934  -0.84812
 Alpha  occ. eigenvalues --   -0.74939  -0.73723  -0.73305  -0.72943  -0.72223
 Alpha  occ. eigenvalues --   -0.72115  -0.71574  -0.71068  -0.70915  -0.70216
 Alpha  occ. eigenvalues --   -0.69893  -0.68873  -0.67966  -0.67352  -0.66844
 Alpha  occ. eigenvalues --   -0.66509  -0.65739  -0.65077  -0.64961  -0.64024
 Alpha  occ. eigenvalues --   -0.63694  -0.62806  -0.62280  -0.61647  -0.60904
 Alpha  occ. eigenvalues --   -0.60720  -0.60148  -0.60005  -0.59506  -0.58782
 Alpha  occ. eigenvalues --   -0.58133  -0.57305  -0.56460  -0.55581  -0.54698
 Alpha  occ. eigenvalues --   -0.54164  -0.53903  -0.52918  -0.52535  -0.51680
 Alpha  occ. eigenvalues --   -0.51362  -0.50521  -0.50505  -0.50009  -0.49709
 Alpha  occ. eigenvalues --   -0.49289  -0.49066  -0.48690  -0.48322  -0.46434
 Alpha  occ. eigenvalues --   -0.46088  -0.45983  -0.45388  -0.45360  -0.44251
 Alpha  occ. eigenvalues --   -0.44064  -0.43343  -0.43175  -0.42878  -0.42255
 Alpha  occ. eigenvalues --   -0.42197  -0.42054  -0.41774  -0.41493  -0.41398
 Alpha  occ. eigenvalues --   -0.41138  -0.41026  -0.40405  -0.40102  -0.39930
 Alpha  occ. eigenvalues --   -0.39875  -0.39671  -0.39568  -0.39224  -0.38839
 Alpha  occ. eigenvalues --   -0.38769  -0.38533  -0.38512  -0.38218  -0.38042
 Alpha  occ. eigenvalues --   -0.37897  -0.37787  -0.37559  -0.37358  -0.37179
 Alpha  occ. eigenvalues --   -0.36892  -0.36731  -0.36582  -0.36561  -0.36468
 Alpha  occ. eigenvalues --   -0.36363  -0.36245  -0.36117  -0.35830  -0.35378
 Alpha  occ. eigenvalues --   -0.35371  -0.35246  -0.34949  -0.34841  -0.34442
 Alpha  occ. eigenvalues --   -0.34150  -0.34054  -0.34029  -0.33851  -0.33799
 Alpha  occ. eigenvalues --   -0.33485  -0.33454  -0.33413  -0.33267  -0.33144
 Alpha  occ. eigenvalues --   -0.32897  -0.32677  -0.32552  -0.32424  -0.32300
 Alpha  occ. eigenvalues --   -0.32144  -0.32009  -0.31803  -0.31606  -0.31504
 Alpha  occ. eigenvalues --   -0.31456  -0.31351  -0.31231  -0.31075  -0.30860
 Alpha  occ. eigenvalues --   -0.30531  -0.30437  -0.30299  -0.30125  -0.29910
 Alpha  occ. eigenvalues --   -0.29852  -0.29691  -0.29572  -0.29227  -0.29067
 Alpha  occ. eigenvalues --   -0.28796  -0.28478  -0.28337  -0.27937  -0.27662
 Alpha  occ. eigenvalues --   -0.27560  -0.27128  -0.27064  -0.26737  -0.26629
 Alpha  occ. eigenvalues --   -0.26392  -0.26120  -0.26031  -0.25675  -0.25474
 Alpha  occ. eigenvalues --   -0.25387  -0.25042  -0.24505  -0.23768  -0.23414
 Alpha  occ. eigenvalues --   -0.23305  -0.22345  -0.21843  -0.21325  -0.20829
 Alpha  occ. eigenvalues --   -0.20564  -0.20437  -0.18986  -0.18812  -0.16842
 Alpha  occ. eigenvalues --   -0.15540
 Alpha virt. eigenvalues --   -0.11147  -0.06864  -0.06074  -0.04593  -0.04059
 Alpha virt. eigenvalues --   -0.03121  -0.02466  -0.02098  -0.01208  -0.00088
 Alpha virt. eigenvalues --    0.01084   0.01890   0.02738   0.02836   0.03245

 Mulliken charges:
               1
     1  Mg   0.714033
     2  C    0.014544
     3  C   -0.061519
     4  C   -0.046432
     5  C   -0.086741
     6  N   -0.212591
     7  C   -0.064209
     8  C    0.041139
     9  C   -0.043504
    10  C    0.032917
    11  C    0.100239
    12  C    0.112361
    13  C    0.207446
    14  C    0.048493
    15  O   -0.197146
    16  O   -0.264003
    17  N   -0.264055
    18  C    0.105541
    19  C   -0.145768
    20  C    0.019996
    21  C    0.063822
    22  C    0.179447
    23  C   -0.048335
    24  O   -0.180972
    25  C    0.120133
    26  N   -0.192605
    27  C    0.010548
    28  C   -0.001319
    29  C    0.051137
    30  C   -0.028984
    31  C    0.137467
    32  C    0.099814
    33  C    0.049553
    34  N   -0.249808
    35  C    0.166020
    36  C   -0.184405
    37  C    0.061073
    38  C    0.117824
    39  C    0.194973
    40  C   -0.043774
    41  O   -0.101567
    42  C   -0.000058
    43  C    0.101198
    44  O   -0.183495
    45  O   -0.263221
    46  C    0.205470
    47  C    0.324386
    48  C   -0.077777
    49  C   -0.161689
    50  C    0.122020
    51  C    0.114390
    52  C    0.104765
    53  C    0.081381
    54  C   -0.067187
    55  C    0.094533
    56  C    0.091685
    57  C    0.078842
    58  C    0.071815
    59  C   -0.092842
    60  C    0.105923
    61  C    0.098559
    62  C    0.080664
    63  C    0.085683
    64  C   -0.110464
    65  C    0.128145
    66  C    0.100476
    67  H   -0.077322
    68  H   -0.041638
    69  H   -0.067301
    70  H   -0.001128
    71  H   -0.006686
    72  H   -0.016240
    73  H    0.015178
    74  H   -0.019657
    75  H   -0.030266
    76  H   -0.023117
    77  H   -0.001156
    78  H    0.001821
    79  H    0.001122
    80  H   -0.012030
    81  H    0.010214
    82  H    0.000583
    83  H    0.020434
    84  H    0.008636
    85  H   -0.027602
    86  H   -0.036298
    87  H   -0.018951
    88  H   -0.013800
    89  H    0.000456
    90  H   -0.013114
    91  H   -0.008636
    92  H   -0.006251
    93  H    0.005125
    94  H   -0.005773
    95  H   -0.006895
    96  H   -0.005740
    97  H    0.014591
    98  H   -0.017635
    99  H    0.015764
   100  H    0.012194
   101  H    0.025607
   102  H   -0.029836
   103  H   -0.001178
   104  H   -0.042949
   105  H   -0.011733
   106  H    0.004555
   107  H   -0.002411
   108  H   -0.031664
   109  H   -0.021766
   110  H   -0.022148
   111  H   -0.026709
   112  H   -0.026976
   113  H   -0.028662
   114  H   -0.044424
   115  H   -0.017506
   116  H   -0.015080
   117  H   -0.015116
   118  H   -0.047010
   119  H   -0.045482
   120  H   -0.020259
   121  H   -0.029035
   122  H   -0.032747
   123  H   -0.031778
   124  H   -0.032864
   125  H   -0.009454
   126  H   -0.014517
   127  H   -0.005128
   128  H   -0.031113
   129  H   -0.023833
   130  H   -0.028566
   131  H   -0.039682
   132  H   -0.039149
   133  H   -0.029368
   134  H   -0.037694
   135  H   -0.022559
   136  H   -0.016821
   137  H   -0.017636
   138  H   -0.027268
   139  H   -0.019505
   140  H   -0.003400
 Sum of Mulliken charges =  -0.00000

 Dipole moment (field-independent basis, Debye):
    X=             -2.4332    Y=              2.7282    Z=              0.3322  Tot=              3.6707
 Quadrupole moment (field-independent basis, Debye-Ang):
   XX=           -374.8216   YY=           -415.5315   ZZ=           -414.0221
   XY=              4.8516   XZ=             29.4267   YZ=              2.8953

 Normal termination of Gaussian 16 at Fri Apr 29 15:39:08 2022.
