 Gaussian 16, Revision A.03,
 Gaussian 16:  ES64L-G16RevA.03 25-Dec-2016

 -----------------------------------
 #p cam-b3lyp/Def2SVP td=(nstates=5)
 -----------------------------------

 -------------------------------------------------------
 step_351_chromophore_25 TDDFT with cam-b3lyp functional
 -------------------------------------------------------
 Symbolic Z-matrix:
 Charge =  0 Multiplicity = 1

                         Standard orientation:
 ---------------------------------------------------------------------
 Center     Atomic      Atomic             Coordinates (Angstroms)
 Number     Number       Type             X           Y           Z
 ---------------------------------------------------------------------
      1         12           0        6.218455    0.398429    0.284771
      2          6           0        3.758109   -1.997014    0.456947
      3          6           0        3.813393    2.811817    0.037661
      4          6           0        8.629569    2.620164   -0.723909
      5          6           0        8.559069   -1.934432    0.869013
      6          7           0        3.977154    0.333881    0.279863
      7          6           0        3.111133   -0.724224    0.367635
      8          6           0        1.671970   -0.305068    0.112090
      9          6           0        1.743848    1.283251    0.018914
     10          6           0        3.296436    1.525133    0.164492
     11          6           0        1.249311    1.955883   -1.350647
     12          6           0        0.716489   -0.698190    1.312934
     13          6           0       -0.415186   -1.583117    1.060835
     14          6           0       -1.841581   -1.055538    1.308391
     15          8           0       -2.411723   -1.021040    2.397068
     16          8           0       -2.509498   -0.797760    0.118047
     17          7           0        6.198747    2.422936   -0.142081
     18          6           0        5.163115    3.280149   -0.159249
     19          6           0        5.538630    4.597361   -0.468573
     20          6           0        6.910059    4.562397   -0.731747
     21          6           0        7.291195    3.163572   -0.555888
     22          6           0        4.590647    5.716566   -0.538873
     23          6           0        7.849441    5.799067   -1.095198
     24          8           0        9.062185    5.610870   -1.324892
     25          6           0        7.292060    7.227107   -1.337804
     26          7           0        8.261501    0.285731   -0.121617
     27          6           0        9.105116    1.293173   -0.410662
     28          6           0       10.582399    0.968916   -0.199479
     29          6           0       10.490265   -0.259217    0.697302
     30          6           0        9.017271   -0.665437    0.441288
     31          6           0       11.399848    0.751205   -1.504918
     32          6           0       10.872108    0.069843    2.205882
     33          6           0       11.561703   -1.187342    2.918975
     34          7           0        6.191525   -1.577321    0.429967
     35          6           0        7.243420   -2.419324    0.700286
     36          6           0        6.792697   -3.794508    0.869953
     37          6           0        5.368629   -3.698701    0.699052
     38          6           0        5.095380   -2.282977    0.518312
     39          6           0        7.652858   -4.972338    1.054466
     40          6           0        4.142573   -4.463996    0.636482
     41          8           0        3.975192   -5.650196    0.690346
     42          6           0        3.032725   -3.374714    0.453765
     43          6           0        2.340347   -3.716279   -0.835836
     44          8           0        2.840210   -3.423442   -1.914988
     45          8           0        1.099642   -4.258640   -0.604401
     46          6           0        0.237750   -4.629391   -1.694979
     47          6           0       -3.899076   -0.482673    0.223037
     48          6           0       -4.809108   -0.978353   -0.838005
     49          6           0       -5.719730   -2.023205   -0.818027
     50          6           0       -5.813506   -3.071590    0.315064
     51          6           0       -6.784437   -1.960878   -1.879364
     52          6           0       -8.090605   -1.152343   -1.686956
     53          6           0       -8.568410   -0.727673   -3.105304
     54          6           0      -10.111709   -0.686122   -3.210318
     55          6           0      -10.583754   -1.060387   -4.658789
     56          6           0      -10.792175    0.627986   -2.775983
     57          6           0      -12.355504    0.635809   -2.738178
     58          6           0      -12.947355    1.457936   -1.595549
     59          6           0      -13.755215    0.598808   -0.637027
     60          6           0      -15.031805    0.055556   -1.406695
     61          6           0      -14.078978    1.572788    0.629837
     62          6           0      -13.799850    0.913725    1.990877
     63          6           0      -14.574623    1.603407    3.123656
     64          6           0      -13.767025    1.856655    4.356522
     65          6           0      -14.728392    2.357592    5.465388
     66          6           0      -12.654676    2.916660    4.077135
     67          1           0        3.078121    3.606680   -0.102789
     68          1           0        9.423106    3.357718   -0.861500
     69          1           0        9.421308   -2.555177    1.121237
     70          1           0        1.322712   -0.672914   -0.852778
     71          1           0        1.282454    1.868008    0.814945
     72          1           0        0.683294    1.188722   -1.879055
     73          1           0        1.935192    2.411153   -2.064944
     74          1           0        0.491765    2.706062   -1.126475
     75          1           0        0.339141    0.236203    1.726296
     76          1           0        1.410999   -0.980886    2.104790
     77          1           0       -0.316632   -2.309192    1.867490
     78          1           0       -0.369696   -2.020447    0.063780
     79          1           0        5.102788    6.485896    0.039151
     80          1           0        3.609898    5.511965   -0.107953
     81          1           0        4.405858    5.986169   -1.579240
     82          1           0        8.110834    7.789108   -1.787001
     83          1           0        6.913986    7.689079   -0.425796
     84          1           0        6.493892    7.133692   -2.074409
     85          1           0       11.011672    1.854894    0.267680
     86          1           0       11.128970   -1.036576    0.275699
     87          1           0       10.817329    1.147553   -2.336094
     88          1           0       11.513510   -0.280719   -1.836826
     89          1           0       12.346048    1.292472   -1.516043
     90          1           0        9.936558    0.316833    2.707073
     91          1           0       11.565819    0.906805    2.285666
     92          1           0       10.919374   -1.486276    3.746710
     93          1           0       12.577647   -0.919219    3.206021
     94          1           0       11.558131   -2.086226    2.301719
     95          1           0        7.997144   -5.003603    2.088342
     96          1           0        8.569053   -4.863875    0.473122
     97          1           0        7.078413   -5.871508    0.833124
     98          1           0        2.208838   -3.485489    1.158782
     99          1           0       -0.604983   -3.943754   -1.784933
    100          1           0       -0.242375   -5.573547   -1.440279
    101          1           0        0.787541   -4.740064   -2.629172
    102          1           0       -3.928249    0.607416    0.210412
    103          1           0       -4.379089   -0.770064    1.158295
    104          1           0       -5.070319   -0.288415   -1.640827
    105          1           0       -5.112839   -2.823829    1.112562
    106          1           0       -5.622062   -4.110749    0.048986
    107          1           0       -6.782297   -3.036549    0.813550
    108          1           0       -6.945887   -3.007797   -2.139266
    109          1           0       -6.324264   -1.565544   -2.784996
    110          1           0       -8.076592   -0.208925   -1.140789
    111          1           0       -8.787273   -1.816700   -1.177364
    112          1           0       -8.298280   -1.421286   -3.902472
    113          1           0       -8.114965    0.249257   -3.274476
    114          1           0      -10.426123   -1.485416   -2.538077
    115          1           0      -11.595924   -0.703104   -4.847889
    116          1           0      -10.605527   -2.143047   -4.782994
    117          1           0       -9.926505   -0.592467   -5.391367
    118          1           0      -10.452261    1.357468   -3.510818
    119          1           0      -10.346235    1.062152   -1.880873
    120          1           0      -12.766530   -0.372353   -2.683806
    121          1           0      -12.710723    1.154032   -3.629324
    122          1           0      -13.610228    2.183636   -2.066448
    123          1           0      -12.087490    1.880836   -1.076028
    124          1           0      -13.058114   -0.190779   -0.355410
    125          1           0      -15.991139    0.304952   -0.953728
    126          1           0      -14.892681   -1.023992   -1.351991
    127          1           0      -15.037443    0.308862   -2.466789
    128          1           0      -15.148651    1.771903    0.687859
    129          1           0      -13.460113    2.462485    0.515050
    130          1           0      -12.741168    0.808122    2.229214
    131          1           0      -14.246487   -0.071362    1.856990
    132          1           0      -15.407257    0.939189    3.359008
    133          1           0      -14.989111    2.565802    2.822692
    134          1           0      -13.343205    0.922764    4.723753
    135          1           0      -15.769767    2.311679    5.146897
    136          1           0      -14.394383    3.373268    5.675679
    137          1           0      -14.639553    1.647034    6.286836
    138          1           0      -11.695447    2.401913    4.019244
    139          1           0      -12.422711    3.575888    4.913912
    140          1           0      -12.754005    3.463142    3.139430
 ---------------------------------------------------------------------

 SCF Done:  E(RCAM-B3LYP) =  -3007.17817619     A.U. after   19 cycles

 Excitation energies and oscillator strengths:

 Excited State   1:      Singlet-A      1.7156 eV  722.68 nm  f=0.3679  <S**2>=0.000
     245 -> 248        0.19340
     246 -> 247        0.68160
     245 <- 248        0.11035
 This state for optimization and/or second-order correction.
 Total Energy, E(TD-HF/TD-DFT) =  -3007.11512852
 Copying the excited state density for this state as the 1-particle RhoCI density.

 Excited State   2:      Singlet-A      2.2202 eV  558.43 nm  f=0.1045  <S**2>=0.000
     245 -> 247        0.63356
     246 -> 248       -0.30490

 Excited State   3:      Singlet-A      3.4890 eV  355.36 nm  f=0.6241  <S**2>=0.000
     241 -> 247       -0.14569
     242 -> 247        0.17751
     245 -> 247        0.27625
     246 -> 248        0.59986
     245 <- 247       -0.10914

 Excited State   4:      Singlet-A      3.5532 eV  348.94 nm  f=0.0139  <S**2>=0.000
     240 -> 247        0.18883
     240 -> 249       -0.11675
     241 -> 247        0.12095
     241 -> 249       -0.11961
     244 -> 247        0.61262

 Excited State   5:      Singlet-A      3.6589 eV  338.86 nm  f=0.0683  <S**2>=0.000
     240 -> 247        0.36784
     240 -> 249       -0.20102
     240 -> 250        0.11351
     241 -> 247        0.35232
     241 -> 249       -0.14276
     244 -> 247       -0.31216
     246 -> 248        0.13548

 The electronic state is 1-A.
 Alpha  occ. eigenvalues --  -46.87796 -19.25601 -19.24780 -19.20022 -19.19559
 Alpha  occ. eigenvalues --  -19.19349 -19.19071 -14.42010 -14.41768 -14.39270
 Alpha  occ. eigenvalues --  -14.39191 -10.39690 -10.39375 -10.36280 -10.34791
 Alpha  occ. eigenvalues --  -10.31866 -10.31465 -10.31158 -10.30582 -10.30472
 Alpha  occ. eigenvalues --  -10.30442 -10.30174 -10.29829 -10.29057 -10.28798
 Alpha  occ. eigenvalues --  -10.28757 -10.28686 -10.28284 -10.28187 -10.27857
 Alpha  occ. eigenvalues --  -10.27813 -10.27531 -10.27440 -10.27242 -10.27221
 Alpha  occ. eigenvalues --  -10.27136 -10.27073 -10.26982 -10.26909 -10.26722
 Alpha  occ. eigenvalues --  -10.26560 -10.26527 -10.26306 -10.26248 -10.26187
 Alpha  occ. eigenvalues --  -10.26070 -10.25969 -10.25922 -10.25896 -10.25882
 Alpha  occ. eigenvalues --  -10.25753 -10.25737 -10.25550 -10.25410 -10.25378
 Alpha  occ. eigenvalues --  -10.25220 -10.24952 -10.24913 -10.24800 -10.24597
 Alpha  occ. eigenvalues --  -10.24570 -10.24445 -10.24251 -10.24092 -10.24044
 Alpha  occ. eigenvalues --  -10.23874  -3.16600  -1.91489  -1.91051  -1.90930
 Alpha  occ. eigenvalues --   -1.16286  -1.16161  -1.11065  -1.08860  -1.08111
 Alpha  occ. eigenvalues --   -1.07670  -1.05292  -1.04364  -1.03452  -1.02383
 Alpha  occ. eigenvalues --   -0.92155  -0.90604  -0.90167  -0.89760  -0.88960
 Alpha  occ. eigenvalues --   -0.88738  -0.88221  -0.87679  -0.87592  -0.86728
 Alpha  occ. eigenvalues --   -0.86469  -0.85222  -0.84225  -0.83499  -0.82949
 Alpha  occ. eigenvalues --   -0.82570  -0.81720  -0.81150  -0.80822  -0.79867
 Alpha  occ. eigenvalues --   -0.79456  -0.78539  -0.77862  -0.77152  -0.76307
 Alpha  occ. eigenvalues --   -0.76197  -0.75499  -0.75272  -0.74794  -0.74008
 Alpha  occ. eigenvalues --   -0.73155  -0.72323  -0.71335  -0.70417  -0.69287
 Alpha  occ. eigenvalues --   -0.68799  -0.68566  -0.67292  -0.66913  -0.65774
 Alpha  occ. eigenvalues --   -0.65553  -0.64730  -0.64529  -0.63912  -0.63544
 Alpha  occ. eigenvalues --   -0.63237  -0.63054  -0.62444  -0.62181  -0.60040
 Alpha  occ. eigenvalues --   -0.59756  -0.59549  -0.58969  -0.58713  -0.57731
 Alpha  occ. eigenvalues --   -0.57518  -0.57028  -0.56422  -0.56078  -0.55571
 Alpha  occ. eigenvalues --   -0.55189  -0.55018  -0.54664  -0.54577  -0.54471
 Alpha  occ. eigenvalues --   -0.54050  -0.53901  -0.53261  -0.52866  -0.52767
 Alpha  occ. eigenvalues --   -0.52471  -0.52416  -0.52193  -0.51823  -0.51594
 Alpha  occ. eigenvalues --   -0.51425  -0.51220  -0.50878  -0.50785  -0.50541
 Alpha  occ. eigenvalues --   -0.50349  -0.50171  -0.49869  -0.49772  -0.49345
 Alpha  occ. eigenvalues --   -0.49305  -0.49228  -0.49127  -0.49003  -0.48895
 Alpha  occ. eigenvalues --   -0.48608  -0.48422  -0.48227  -0.48085  -0.47707
 Alpha  occ. eigenvalues --   -0.47371  -0.47223  -0.46970  -0.46856  -0.46306
 Alpha  occ. eigenvalues --   -0.46073  -0.45896  -0.45736  -0.45666  -0.45468
 Alpha  occ. eigenvalues --   -0.45412  -0.45266  -0.45232  -0.45080  -0.44864
 Alpha  occ. eigenvalues --   -0.44807  -0.44518  -0.44245  -0.44046  -0.43913
 Alpha  occ. eigenvalues --   -0.43759  -0.43513  -0.43462  -0.43387  -0.43258
 Alpha  occ. eigenvalues --   -0.43050  -0.42804  -0.42562  -0.42325  -0.42228
 Alpha  occ. eigenvalues --   -0.42012  -0.41947  -0.41705  -0.41579  -0.41295
 Alpha  occ. eigenvalues --   -0.41182  -0.41002  -0.40798  -0.40745  -0.40186
 Alpha  occ. eigenvalues --   -0.39952  -0.39639  -0.39374  -0.38836  -0.38820
 Alpha  occ. eigenvalues --   -0.38504  -0.38154  -0.37881  -0.37739  -0.37518
 Alpha  occ. eigenvalues --   -0.37122  -0.36924  -0.36723  -0.36616  -0.36295
 Alpha  occ. eigenvalues --   -0.36220  -0.36011  -0.35698  -0.34788  -0.34271
 Alpha  occ. eigenvalues --   -0.33873  -0.33612  -0.32746  -0.31141  -0.31043
 Alpha  occ. eigenvalues --   -0.30703  -0.30178  -0.30099  -0.29856  -0.23506
 Alpha  occ. eigenvalues --   -0.20821
 Alpha virt. eigenvalues --   -0.08174  -0.01630   0.00419   0.02393   0.02841
 Alpha virt. eigenvalues --    0.03298   0.04521   0.05310   0.05848   0.07013
 Alpha virt. eigenvalues --    0.07899   0.08536   0.08969   0.08998   0.09490

 Mulliken charges:
               1
     1  Mg   0.850936
     2  C   -0.012457
     3  C   -0.073943
     4  C   -0.054760
     5  C   -0.091225
     6  N   -0.281936
     7  C   -0.018305
     8  C   -0.019310
     9  C   -0.084536
    10  C    0.050761
    11  C    0.041664
    12  C    0.061085
    13  C    0.130272
    14  C    0.135264
    15  O   -0.238569
    16  O   -0.328800
    17  N   -0.352601
    18  C    0.114279
    19  C   -0.156475
    20  C   -0.044798
    21  C    0.081519
    22  C    0.119798
    23  C    0.029504
    24  O   -0.222479
    25  C    0.043714
    26  N   -0.264169
    27  C    0.025569
    28  C   -0.057029
    29  C   -0.010183
    30  C   -0.010324
    31  C    0.079024
    32  C    0.048377
    33  C   -0.011091
    34  N   -0.344842
    35  C    0.165527
    36  C   -0.170670
    37  C   -0.015891
    38  C    0.150522
    39  C    0.136405
    40  C    0.051760
    41  O   -0.139951
    42  C   -0.066632
    43  C    0.189759
    44  O   -0.219062
    45  O   -0.328656
    46  C    0.169190
    47  C    0.288790
    48  C   -0.103398
    49  C   -0.175975
    50  C    0.065384
    51  C    0.049513
    52  C    0.053437
    53  C    0.025346
    54  C   -0.122185
    55  C    0.034739
    56  C    0.043819
    57  C    0.019166
    58  C    0.021806
    59  C   -0.145301
    60  C    0.044346
    61  C    0.051343
    62  C    0.024079
    63  C    0.029514
    64  C   -0.167271
    65  C    0.067304
    66  C    0.036276
    67  H   -0.043523
    68  H   -0.002457
    69  H   -0.033075
    70  H    0.032351
    71  H    0.026207
    72  H    0.008215
    73  H    0.040756
    74  H    0.004912
    75  H    0.003001
    76  H    0.010826
    77  H    0.033280
    78  H    0.031829
    79  H    0.024102
    80  H    0.016276
    81  H    0.036314
    82  H    0.035082
    83  H    0.046525
    84  H    0.034774
    85  H    0.008842
    86  H    0.000115
    87  H    0.008031
    88  H    0.010784
    89  H    0.024852
    90  H    0.015256
    91  H    0.019397
    92  H    0.017467
    93  H    0.028394
    94  H    0.013805
    95  H    0.021155
    96  H    0.020373
    97  H    0.042473
    98  H    0.024790
    99  H    0.034539
   100  H    0.034831
   101  H    0.051769
   102  H   -0.000270
   103  H    0.030444
   104  H   -0.011542
   105  H    0.012115
   106  H    0.029057
   107  H    0.020937
   108  H   -0.002453
   109  H    0.008981
   110  H    0.005723
   111  H    0.000848
   112  H    0.003079
   113  H   -0.001040
   114  H   -0.013988
   115  H    0.007167
   116  H    0.010017
   117  H    0.008717
   118  H   -0.018086
   119  H   -0.017845
   120  H    0.005943
   121  H    0.000102
   122  H   -0.003390
   123  H   -0.004064
   124  H   -0.002672
   125  H    0.015200
   126  H    0.008907
   127  H    0.018049
   128  H   -0.003848
   129  H    0.002422
   130  H   -0.001418
   131  H   -0.009933
   132  H   -0.008961
   133  H   -0.001287
   134  H   -0.005367
   135  H    0.002838
   136  H    0.007158
   137  H    0.006661
   138  H   -0.002651
   139  H    0.006230
   140  H    0.018988
 Sum of Mulliken charges =  -0.00000

 Dipole moment (field-independent basis, Debye):
    X=             -2.4760    Y=              2.8788    Z=              0.3458  Tot=              3.8128
 Quadrupole moment (field-independent basis, Debye-Ang):
   XX=           -374.8080   YY=           -410.9326   ZZ=           -414.3759
   XY=              5.5429   XZ=             30.3583   YZ=              2.1837

 Normal termination of Gaussian 16 at Fri Apr 29 14:47:54 2022.
