 Gaussian 16, Revision A.03,
 Gaussian 16:  ES64L-G16RevA.03 25-Dec-2016

 ---------------------------------
 #p PBE1PBE/Def2SVP td=(nstates=5)
 ---------------------------------

 -----------------------------------------------------
 step_351_chromophore_25 TDDFT with PBE1PBE functional
 -----------------------------------------------------
 Symbolic Z-matrix:
 Charge =  0 Multiplicity = 1

                         Standard orientation:
 ---------------------------------------------------------------------
 Center     Atomic      Atomic             Coordinates (Angstroms)
 Number     Number       Type             X           Y           Z
 ---------------------------------------------------------------------
      1         12           0        6.218455    0.398429    0.284771
      2          6           0        3.758109   -1.997014    0.456947
      3          6           0        3.813393    2.811817    0.037661
      4          6           0        8.629569    2.620164   -0.723909
      5          6           0        8.559069   -1.934432    0.869013
      6          7           0        3.977154    0.333881    0.279863
      7          6           0        3.111133   -0.724224    0.367635
      8          6           0        1.671970   -0.305068    0.112090
      9          6           0        1.743848    1.283251    0.018914
     10          6           0        3.296436    1.525133    0.164492
     11          6           0        1.249311    1.955883   -1.350647
     12          6           0        0.716489   -0.698190    1.312934
     13          6           0       -0.415186   -1.583117    1.060835
     14          6           0       -1.841581   -1.055538    1.308391
     15          8           0       -2.411723   -1.021040    2.397068
     16          8           0       -2.509498   -0.797760    0.118047
     17          7           0        6.198747    2.422936   -0.142081
     18          6           0        5.163115    3.280149   -0.159249
     19          6           0        5.538630    4.597361   -0.468573
     20          6           0        6.910059    4.562397   -0.731747
     21          6           0        7.291195    3.163572   -0.555888
     22          6           0        4.590647    5.716566   -0.538873
     23          6           0        7.849441    5.799067   -1.095198
     24          8           0        9.062185    5.610870   -1.324892
     25          6           0        7.292060    7.227107   -1.337804
     26          7           0        8.261501    0.285731   -0.121617
     27          6           0        9.105116    1.293173   -0.410662
     28          6           0       10.582399    0.968916   -0.199479
     29          6           0       10.490265   -0.259217    0.697302
     30          6           0        9.017271   -0.665437    0.441288
     31          6           0       11.399848    0.751205   -1.504918
     32          6           0       10.872108    0.069843    2.205882
     33          6           0       11.561703   -1.187342    2.918975
     34          7           0        6.191525   -1.577321    0.429967
     35          6           0        7.243420   -2.419324    0.700286
     36          6           0        6.792697   -3.794508    0.869953
     37          6           0        5.368629   -3.698701    0.699052
     38          6           0        5.095380   -2.282977    0.518312
     39          6           0        7.652858   -4.972338    1.054466
     40          6           0        4.142573   -4.463996    0.636482
     41          8           0        3.975192   -5.650196    0.690346
     42          6           0        3.032725   -3.374714    0.453765
     43          6           0        2.340347   -3.716279   -0.835836
     44          8           0        2.840210   -3.423442   -1.914988
     45          8           0        1.099642   -4.258640   -0.604401
     46          6           0        0.237750   -4.629391   -1.694979
     47          6           0       -3.899076   -0.482673    0.223037
     48          6           0       -4.809108   -0.978353   -0.838005
     49          6           0       -5.719730   -2.023205   -0.818027
     50          6           0       -5.813506   -3.071590    0.315064
     51          6           0       -6.784437   -1.960878   -1.879364
     52          6           0       -8.090605   -1.152343   -1.686956
     53          6           0       -8.568410   -0.727673   -3.105304
     54          6           0      -10.111709   -0.686122   -3.210318
     55          6           0      -10.583754   -1.060387   -4.658789
     56          6           0      -10.792175    0.627986   -2.775983
     57          6           0      -12.355504    0.635809   -2.738178
     58          6           0      -12.947355    1.457936   -1.595549
     59          6           0      -13.755215    0.598808   -0.637027
     60          6           0      -15.031805    0.055556   -1.406695
     61          6           0      -14.078978    1.572788    0.629837
     62          6           0      -13.799850    0.913725    1.990877
     63          6           0      -14.574623    1.603407    3.123656
     64          6           0      -13.767025    1.856655    4.356522
     65          6           0      -14.728392    2.357592    5.465388
     66          6           0      -12.654676    2.916660    4.077135
     67          1           0        3.078121    3.606680   -0.102789
     68          1           0        9.423106    3.357718   -0.861500
     69          1           0        9.421308   -2.555177    1.121237
     70          1           0        1.322712   -0.672914   -0.852778
     71          1           0        1.282454    1.868008    0.814945
     72          1           0        0.683294    1.188722   -1.879055
     73          1           0        1.935192    2.411153   -2.064944
     74          1           0        0.491765    2.706062   -1.126475
     75          1           0        0.339141    0.236203    1.726296
     76          1           0        1.410999   -0.980886    2.104790
     77          1           0       -0.316632   -2.309192    1.867490
     78          1           0       -0.369696   -2.020447    0.063780
     79          1           0        5.102788    6.485896    0.039151
     80          1           0        3.609898    5.511965   -0.107953
     81          1           0        4.405858    5.986169   -1.579240
     82          1           0        8.110834    7.789108   -1.787001
     83          1           0        6.913986    7.689079   -0.425796
     84          1           0        6.493892    7.133692   -2.074409
     85          1           0       11.011672    1.854894    0.267680
     86          1           0       11.128970   -1.036576    0.275699
     87          1           0       10.817329    1.147553   -2.336094
     88          1           0       11.513510   -0.280719   -1.836826
     89          1           0       12.346048    1.292472   -1.516043
     90          1           0        9.936558    0.316833    2.707073
     91          1           0       11.565819    0.906805    2.285666
     92          1           0       10.919374   -1.486276    3.746710
     93          1           0       12.577647   -0.919219    3.206021
     94          1           0       11.558131   -2.086226    2.301719
     95          1           0        7.997144   -5.003603    2.088342
     96          1           0        8.569053   -4.863875    0.473122
     97          1           0        7.078413   -5.871508    0.833124
     98          1           0        2.208838   -3.485489    1.158782
     99          1           0       -0.604983   -3.943754   -1.784933
    100          1           0       -0.242375   -5.573547   -1.440279
    101          1           0        0.787541   -4.740064   -2.629172
    102          1           0       -3.928249    0.607416    0.210412
    103          1           0       -4.379089   -0.770064    1.158295
    104          1           0       -5.070319   -0.288415   -1.640827
    105          1           0       -5.112839   -2.823829    1.112562
    106          1           0       -5.622062   -4.110749    0.048986
    107          1           0       -6.782297   -3.036549    0.813550
    108          1           0       -6.945887   -3.007797   -2.139266
    109          1           0       -6.324264   -1.565544   -2.784996
    110          1           0       -8.076592   -0.208925   -1.140789
    111          1           0       -8.787273   -1.816700   -1.177364
    112          1           0       -8.298280   -1.421286   -3.902472
    113          1           0       -8.114965    0.249257   -3.274476
    114          1           0      -10.426123   -1.485416   -2.538077
    115          1           0      -11.595924   -0.703104   -4.847889
    116          1           0      -10.605527   -2.143047   -4.782994
    117          1           0       -9.926505   -0.592467   -5.391367
    118          1           0      -10.452261    1.357468   -3.510818
    119          1           0      -10.346235    1.062152   -1.880873
    120          1           0      -12.766530   -0.372353   -2.683806
    121          1           0      -12.710723    1.154032   -3.629324
    122          1           0      -13.610228    2.183636   -2.066448
    123          1           0      -12.087490    1.880836   -1.076028
    124          1           0      -13.058114   -0.190779   -0.355410
    125          1           0      -15.991139    0.304952   -0.953728
    126          1           0      -14.892681   -1.023992   -1.351991
    127          1           0      -15.037443    0.308862   -2.466789
    128          1           0      -15.148651    1.771903    0.687859
    129          1           0      -13.460113    2.462485    0.515050
    130          1           0      -12.741168    0.808122    2.229214
    131          1           0      -14.246487   -0.071362    1.856990
    132          1           0      -15.407257    0.939189    3.359008
    133          1           0      -14.989111    2.565802    2.822692
    134          1           0      -13.343205    0.922764    4.723753
    135          1           0      -15.769767    2.311679    5.146897
    136          1           0      -14.394383    3.373268    5.675679
    137          1           0      -14.639553    1.647034    6.286836
    138          1           0      -11.695447    2.401913    4.019244
    139          1           0      -12.422711    3.575888    4.913912
    140          1           0      -12.754005    3.463142    3.139430
 ---------------------------------------------------------------------

 SCF Done:  E(RPBE1PBE) =  -3005.36773124     A.U. after   15 cycles

 Excitation energies and oscillator strengths:

 Excited State   1:      Singlet-A      1.8728 eV  662.02 nm  f=0.3579  <S**2>=0.000
     245 -> 248       -0.18649
     246 -> 247        0.68799
     246 <- 247       -0.10019
 This state for optimization and/or second-order correction.
 Total Energy, E(TD-HF/TD-DFT) =  -3005.29890611
 Copying the excited state density for this state as the 1-particle RhoCI density.

 Excited State   2:      Singlet-A      2.2296 eV  556.09 nm  f=0.1033  <S**2>=0.000
     245 -> 247        0.64498
     246 -> 248        0.28023

 Excited State   3:      Singlet-A      3.1160 eV  397.89 nm  f=0.0024  <S**2>=0.000
     241 -> 247        0.20765
     242 -> 247        0.30172
     242 -> 249       -0.10283
     243 -> 247        0.16298
     244 -> 247        0.53523

 Excited State   4:      Singlet-A      3.2551 eV  380.90 nm  f=0.0720  <S**2>=0.000
     240 -> 247        0.16794
     242 -> 247        0.47725
     244 -> 247       -0.34115
     245 -> 247       -0.10441
     246 -> 248        0.29301

 Excited State   5:      Singlet-A      3.2884 eV  377.03 nm  f=0.0023  <S**2>=0.000
     240 -> 247        0.56865
     240 -> 248        0.10046
     240 -> 249        0.14595
     240 -> 250        0.10789
     241 -> 247       -0.27073
     244 -> 247        0.18254

 The electronic state is 1-A.
 Alpha  occ. eigenvalues --  -46.91219 -19.26183 -19.25478 -19.20303 -19.19702
 Alpha  occ. eigenvalues --  -19.19637 -19.19162 -14.41529 -14.41261 -14.38962
 Alpha  occ. eigenvalues --  -14.38790 -10.36730 -10.36317 -10.33546 -10.31819
 Alpha  occ. eigenvalues --  -10.29146 -10.29023 -10.28531 -10.28285 -10.28279
 Alpha  occ. eigenvalues --  -10.28255 -10.27978 -10.27463 -10.26848 -10.26623
 Alpha  occ. eigenvalues --  -10.26584 -10.26264 -10.25868 -10.25837 -10.25643
 Alpha  occ. eigenvalues --  -10.25383 -10.25378 -10.25088 -10.24905 -10.24874
 Alpha  occ. eigenvalues --  -10.24873 -10.24722 -10.24697 -10.24250 -10.24246
 Alpha  occ. eigenvalues --  -10.24198 -10.24146 -10.23922 -10.23774 -10.23680
 Alpha  occ. eigenvalues --  -10.23646 -10.23613 -10.23492 -10.23474 -10.23347
 Alpha  occ. eigenvalues --  -10.23325 -10.23314 -10.23077 -10.23076 -10.22975
 Alpha  occ. eigenvalues --  -10.22876 -10.22527 -10.22378 -10.22335 -10.22164
 Alpha  occ. eigenvalues --  -10.21992 -10.21856 -10.21763 -10.21631 -10.21612
 Alpha  occ. eigenvalues --  -10.21275  -3.13595  -1.86426  -1.85965  -1.85850
 Alpha  occ. eigenvalues --   -1.10987  -1.10975  -1.05718  -1.03643  -1.02839
 Alpha  occ. eigenvalues --   -1.02535  -0.99926  -0.99015  -0.98194  -0.97009
 Alpha  occ. eigenvalues --   -0.86444  -0.84738  -0.84329  -0.83867  -0.83077
 Alpha  occ. eigenvalues --   -0.83046  -0.82563  -0.81900  -0.81808  -0.81062
 Alpha  occ. eigenvalues --   -0.80771  -0.79481  -0.78406  -0.77749  -0.77171
 Alpha  occ. eigenvalues --   -0.76790  -0.75976  -0.75328  -0.75075  -0.74217
 Alpha  occ. eigenvalues --   -0.73612  -0.72827  -0.72195  -0.71457  -0.70540
 Alpha  occ. eigenvalues --   -0.70418  -0.69641  -0.69579  -0.68922  -0.68181
 Alpha  occ. eigenvalues --   -0.67491  -0.66759  -0.65788  -0.64701  -0.63607
 Alpha  occ. eigenvalues --   -0.63093  -0.62963  -0.61603  -0.61314  -0.60218
 Alpha  occ. eigenvalues --   -0.60042  -0.59109  -0.58912  -0.58454  -0.58065
 Alpha  occ. eigenvalues --   -0.57413  -0.57198  -0.56978  -0.56378  -0.54593
 Alpha  occ. eigenvalues --   -0.54277  -0.53928  -0.53521  -0.53333  -0.52321
 Alpha  occ. eigenvalues --   -0.51950  -0.51427  -0.50844  -0.50610  -0.50098
 Alpha  occ. eigenvalues --   -0.49724  -0.49361  -0.49215  -0.48979  -0.48928
 Alpha  occ. eigenvalues --   -0.48580  -0.48430  -0.47732  -0.47461  -0.47176
 Alpha  occ. eigenvalues --   -0.47027  -0.46888  -0.46727  -0.46401  -0.46157
 Alpha  occ. eigenvalues --   -0.46001  -0.45751  -0.45414  -0.45316  -0.45123
 Alpha  occ. eigenvalues --   -0.44981  -0.44740  -0.44452  -0.44416  -0.43930
 Alpha  occ. eigenvalues --   -0.43872  -0.43776  -0.43724  -0.43559  -0.43495
 Alpha  occ. eigenvalues --   -0.43168  -0.43024  -0.42846  -0.42753  -0.42425
 Alpha  occ. eigenvalues --   -0.41971  -0.41837  -0.41633  -0.41509  -0.41000
 Alpha  occ. eigenvalues --   -0.40816  -0.40619  -0.40444  -0.40346  -0.40082
 Alpha  occ. eigenvalues --   -0.40066  -0.40011  -0.39962  -0.39690  -0.39568
 Alpha  occ. eigenvalues --   -0.39513  -0.39257  -0.39042  -0.38855  -0.38700
 Alpha  occ. eigenvalues --   -0.38543  -0.38251  -0.38202  -0.38153  -0.38079
 Alpha  occ. eigenvalues --   -0.37883  -0.37518  -0.37404  -0.37166  -0.36996
 Alpha  occ. eigenvalues --   -0.36841  -0.36678  -0.36501  -0.36438  -0.36149
 Alpha  occ. eigenvalues --   -0.36075  -0.35743  -0.35689  -0.35547  -0.34943
 Alpha  occ. eigenvalues --   -0.34857  -0.34465  -0.34158  -0.33797  -0.33635
 Alpha  occ. eigenvalues --   -0.33323  -0.33130  -0.32745  -0.32691  -0.32313
 Alpha  occ. eigenvalues --   -0.31990  -0.31925  -0.31547  -0.31486  -0.31222
 Alpha  occ. eigenvalues --   -0.31139  -0.31046  -0.30650  -0.29920  -0.29131
 Alpha  occ. eigenvalues --   -0.28677  -0.28642  -0.28277  -0.26571  -0.25984
 Alpha  occ. eigenvalues --   -0.25786  -0.25769  -0.25470  -0.25393  -0.20470
 Alpha  occ. eigenvalues --   -0.18451
 Alpha virt. eigenvalues --   -0.10673  -0.05142  -0.03797  -0.02019  -0.01153
 Alpha virt. eigenvalues --   -0.00049   0.00090   0.00757   0.01593   0.02939
 Alpha virt. eigenvalues --    0.04089   0.04530   0.05631   0.05799   0.06261

 Mulliken charges:
               1
     1  Mg   1.008311
     2  C   -0.016334
     3  C   -0.066522
     4  C   -0.038955
     5  C   -0.075960
     6  N   -0.383752
     7  C    0.062913
     8  C   -0.106792
     9  C   -0.148869
    10  C    0.088410
    11  C   -0.016745
    12  C    0.024619
    13  C    0.039133
    14  C    0.206175
    15  O   -0.272089
    16  O   -0.360409
    17  N   -0.473174
    18  C    0.144281
    19  C   -0.193135
    20  C   -0.082629
    21  C    0.103852
    22  C    0.058141
    23  C    0.080279
    24  O   -0.255999
    25  C   -0.030522
    26  N   -0.367923
    27  C    0.059081
    28  C   -0.135519
    29  C   -0.086355
    30  C    0.019213
    31  C    0.025363
    32  C   -0.007902
    33  C   -0.082862
    34  N   -0.480783
    35  C    0.177657
    36  C   -0.182590
    37  C   -0.056694
    38  C    0.185512
    39  C    0.079070
    40  C    0.142457
    41  O   -0.189163
    42  C   -0.167057
    43  C    0.283884
    44  O   -0.253324
    45  O   -0.364383
    46  C    0.117773
    47  C    0.245393
    48  C   -0.117628
    49  C   -0.208115
    50  C    0.004436
    51  C   -0.022640
    52  C   -0.004799
    53  C   -0.030984
    54  C   -0.210264
    55  C   -0.028537
    56  C   -0.005298
    57  C   -0.045638
    58  C   -0.034564
    59  C   -0.230220
    60  C   -0.014982
    61  C   -0.002546
    62  C   -0.040045
    63  C   -0.027917
    64  C   -0.260191
    65  C    0.007249
    66  C   -0.023548
    67  H   -0.010330
    68  H    0.028796
    69  H   -0.000769
    70  H    0.067668
    71  H    0.060903
    72  H    0.037022
    73  H    0.066870
    74  H    0.032852
    75  H    0.034911
    76  H    0.042419
    77  H    0.066414
    78  H    0.068564
    79  H    0.053735
    80  H    0.043872
    81  H    0.064341
    82  H    0.062647
    83  H    0.071993
    84  H    0.062104
    85  H    0.045095
    86  H    0.036897
    87  H    0.036393
    88  H    0.037923
    89  H    0.052019
    90  H    0.048529
    91  H    0.050893
    92  H    0.045405
    93  H    0.055611
    94  H    0.040000
    95  H    0.049581
    96  H    0.047296
    97  H    0.069742
    98  H    0.063309
    99  H    0.054671
   100  H    0.056505
   101  H    0.071564
   102  H    0.028379
   103  H    0.056375
   104  H    0.018513
   105  H    0.039530
   106  H    0.056194
   107  H    0.048612
   108  H    0.031173
   109  H    0.041735
   110  H    0.037386
   111  H    0.032857
   112  H    0.035987
   113  H    0.031943
   114  H    0.025405
   115  H    0.035902
   116  H    0.038353
   117  H    0.036651
   118  H    0.016110
   119  H    0.013924
   120  H    0.038285
   121  H    0.032756
   122  H    0.030546
   123  H    0.028895
   124  H    0.034834
   125  H    0.042236
   126  H    0.036545
   127  H    0.044844
   128  H    0.029036
   129  H    0.034746
   130  H    0.030479
   131  H    0.025839
   132  H    0.024894
   133  H    0.030975
   134  H    0.032139
   135  H    0.030031
   136  H    0.034305
   137  H    0.034453
   138  H    0.025241
   139  H    0.033437
   140  H    0.046167
 Sum of Mulliken charges =  -0.00000

 Dipole moment (field-independent basis, Debye):
    X=             -2.4630    Y=              3.0545    Z=              0.3019  Tot=              3.9355
 Quadrupole moment (field-independent basis, Debye-Ang):
   XX=           -367.9472   YY=           -408.2604   ZZ=           -411.7982
   XY=              6.0651   XZ=             30.6511   YZ=              1.9234

 Normal termination of Gaussian 16 at Fri Apr 29 15:06:40 2022.
