 Gaussian 16, Revision A.03,
 Gaussian 16:  ES64L-G16RevA.03 25-Dec-2016

 --------------------------------
 #p wB97XD/Def2SVP td=(nstates=5)
 --------------------------------

 ----------------------------------------------------
 step_351_chromophore_25 TDDFT with wB97XD functional
 ----------------------------------------------------
 Symbolic Z-matrix:
 Charge =  0 Multiplicity = 1

                         Standard orientation:
 ---------------------------------------------------------------------
 Center     Atomic      Atomic             Coordinates (Angstroms)
 Number     Number       Type             X           Y           Z
 ---------------------------------------------------------------------
      1         12           0        6.218455    0.398429    0.284771
      2          6           0        3.758109   -1.997014    0.456947
      3          6           0        3.813393    2.811817    0.037661
      4          6           0        8.629569    2.620164   -0.723909
      5          6           0        8.559069   -1.934432    0.869013
      6          7           0        3.977154    0.333881    0.279863
      7          6           0        3.111133   -0.724224    0.367635
      8          6           0        1.671970   -0.305068    0.112090
      9          6           0        1.743848    1.283251    0.018914
     10          6           0        3.296436    1.525133    0.164492
     11          6           0        1.249311    1.955883   -1.350647
     12          6           0        0.716489   -0.698190    1.312934
     13          6           0       -0.415186   -1.583117    1.060835
     14          6           0       -1.841581   -1.055538    1.308391
     15          8           0       -2.411723   -1.021040    2.397068
     16          8           0       -2.509498   -0.797760    0.118047
     17          7           0        6.198747    2.422936   -0.142081
     18          6           0        5.163115    3.280149   -0.159249
     19          6           0        5.538630    4.597361   -0.468573
     20          6           0        6.910059    4.562397   -0.731747
     21          6           0        7.291195    3.163572   -0.555888
     22          6           0        4.590647    5.716566   -0.538873
     23          6           0        7.849441    5.799067   -1.095198
     24          8           0        9.062185    5.610870   -1.324892
     25          6           0        7.292060    7.227107   -1.337804
     26          7           0        8.261501    0.285731   -0.121617
     27          6           0        9.105116    1.293173   -0.410662
     28          6           0       10.582399    0.968916   -0.199479
     29          6           0       10.490265   -0.259217    0.697302
     30          6           0        9.017271   -0.665437    0.441288
     31          6           0       11.399848    0.751205   -1.504918
     32          6           0       10.872108    0.069843    2.205882
     33          6           0       11.561703   -1.187342    2.918975
     34          7           0        6.191525   -1.577321    0.429967
     35          6           0        7.243420   -2.419324    0.700286
     36          6           0        6.792697   -3.794508    0.869953
     37          6           0        5.368629   -3.698701    0.699052
     38          6           0        5.095380   -2.282977    0.518312
     39          6           0        7.652858   -4.972338    1.054466
     40          6           0        4.142573   -4.463996    0.636482
     41          8           0        3.975192   -5.650196    0.690346
     42          6           0        3.032725   -3.374714    0.453765
     43          6           0        2.340347   -3.716279   -0.835836
     44          8           0        2.840210   -3.423442   -1.914988
     45          8           0        1.099642   -4.258640   -0.604401
     46          6           0        0.237750   -4.629391   -1.694979
     47          6           0       -3.899076   -0.482673    0.223037
     48          6           0       -4.809108   -0.978353   -0.838005
     49          6           0       -5.719730   -2.023205   -0.818027
     50          6           0       -5.813506   -3.071590    0.315064
     51          6           0       -6.784437   -1.960878   -1.879364
     52          6           0       -8.090605   -1.152343   -1.686956
     53          6           0       -8.568410   -0.727673   -3.105304
     54          6           0      -10.111709   -0.686122   -3.210318
     55          6           0      -10.583754   -1.060387   -4.658789
     56          6           0      -10.792175    0.627986   -2.775983
     57          6           0      -12.355504    0.635809   -2.738178
     58          6           0      -12.947355    1.457936   -1.595549
     59          6           0      -13.755215    0.598808   -0.637027
     60          6           0      -15.031805    0.055556   -1.406695
     61          6           0      -14.078978    1.572788    0.629837
     62          6           0      -13.799850    0.913725    1.990877
     63          6           0      -14.574623    1.603407    3.123656
     64          6           0      -13.767025    1.856655    4.356522
     65          6           0      -14.728392    2.357592    5.465388
     66          6           0      -12.654676    2.916660    4.077135
     67          1           0        3.078121    3.606680   -0.102789
     68          1           0        9.423106    3.357718   -0.861500
     69          1           0        9.421308   -2.555177    1.121237
     70          1           0        1.322712   -0.672914   -0.852778
     71          1           0        1.282454    1.868008    0.814945
     72          1           0        0.683294    1.188722   -1.879055
     73          1           0        1.935192    2.411153   -2.064944
     74          1           0        0.491765    2.706062   -1.126475
     75          1           0        0.339141    0.236203    1.726296
     76          1           0        1.410999   -0.980886    2.104790
     77          1           0       -0.316632   -2.309192    1.867490
     78          1           0       -0.369696   -2.020447    0.063780
     79          1           0        5.102788    6.485896    0.039151
     80          1           0        3.609898    5.511965   -0.107953
     81          1           0        4.405858    5.986169   -1.579240
     82          1           0        8.110834    7.789108   -1.787001
     83          1           0        6.913986    7.689079   -0.425796
     84          1           0        6.493892    7.133692   -2.074409
     85          1           0       11.011672    1.854894    0.267680
     86          1           0       11.128970   -1.036576    0.275699
     87          1           0       10.817329    1.147553   -2.336094
     88          1           0       11.513510   -0.280719   -1.836826
     89          1           0       12.346048    1.292472   -1.516043
     90          1           0        9.936558    0.316833    2.707073
     91          1           0       11.565819    0.906805    2.285666
     92          1           0       10.919374   -1.486276    3.746710
     93          1           0       12.577647   -0.919219    3.206021
     94          1           0       11.558131   -2.086226    2.301719
     95          1           0        7.997144   -5.003603    2.088342
     96          1           0        8.569053   -4.863875    0.473122
     97          1           0        7.078413   -5.871508    0.833124
     98          1           0        2.208838   -3.485489    1.158782
     99          1           0       -0.604983   -3.943754   -1.784933
    100          1           0       -0.242375   -5.573547   -1.440279
    101          1           0        0.787541   -4.740064   -2.629172
    102          1           0       -3.928249    0.607416    0.210412
    103          1           0       -4.379089   -0.770064    1.158295
    104          1           0       -5.070319   -0.288415   -1.640827
    105          1           0       -5.112839   -2.823829    1.112562
    106          1           0       -5.622062   -4.110749    0.048986
    107          1           0       -6.782297   -3.036549    0.813550
    108          1           0       -6.945887   -3.007797   -2.139266
    109          1           0       -6.324264   -1.565544   -2.784996
    110          1           0       -8.076592   -0.208925   -1.140789
    111          1           0       -8.787273   -1.816700   -1.177364
    112          1           0       -8.298280   -1.421286   -3.902472
    113          1           0       -8.114965    0.249257   -3.274476
    114          1           0      -10.426123   -1.485416   -2.538077
    115          1           0      -11.595924   -0.703104   -4.847889
    116          1           0      -10.605527   -2.143047   -4.782994
    117          1           0       -9.926505   -0.592467   -5.391367
    118          1           0      -10.452261    1.357468   -3.510818
    119          1           0      -10.346235    1.062152   -1.880873
    120          1           0      -12.766530   -0.372353   -2.683806
    121          1           0      -12.710723    1.154032   -3.629324
    122          1           0      -13.610228    2.183636   -2.066448
    123          1           0      -12.087490    1.880836   -1.076028
    124          1           0      -13.058114   -0.190779   -0.355410
    125          1           0      -15.991139    0.304952   -0.953728
    126          1           0      -14.892681   -1.023992   -1.351991
    127          1           0      -15.037443    0.308862   -2.466789
    128          1           0      -15.148651    1.771903    0.687859
    129          1           0      -13.460113    2.462485    0.515050
    130          1           0      -12.741168    0.808122    2.229214
    131          1           0      -14.246487   -0.071362    1.856990
    132          1           0      -15.407257    0.939189    3.359008
    133          1           0      -14.989111    2.565802    2.822692
    134          1           0      -13.343205    0.922764    4.723753
    135          1           0      -15.769767    2.311679    5.146897
    136          1           0      -14.394383    3.373268    5.675679
    137          1           0      -14.639553    1.647034    6.286836
    138          1           0      -11.695447    2.401913    4.019244
    139          1           0      -12.422711    3.575888    4.913912
    140          1           0      -12.754005    3.463142    3.139430
 ---------------------------------------------------------------------

 SCF Done:  E(RwB97XD) =  -3007.87369958     A.U. after   19 cycles

 Excitation energies and oscillator strengths:

 Excited State   1:      Singlet-A      1.6580 eV  747.80 nm  f=0.3661  <S**2>=0.000
     245 -> 248        0.19890
     246 -> 247        0.67958
     245 <- 248        0.11996
 This state for optimization and/or second-order correction.
 Total Energy, E(TD-HF/TD-DFT) =  -3007.81276953
 Copying the excited state density for this state as the 1-particle RhoCI density.

 Excited State   2:      Singlet-A      2.1652 eV  572.62 nm  f=0.1018  <S**2>=0.000
     245 -> 247        0.63204
     246 -> 248       -0.30682

 Excited State   3:      Singlet-A      3.5022 eV  354.02 nm  f=0.6284  <S**2>=0.000
     241 -> 247       -0.13714
     242 -> 247        0.20160
     245 -> 247        0.27413
     246 -> 248        0.59601
     245 <- 247       -0.11415

 Excited State   4:      Singlet-A      3.5762 eV  346.69 nm  f=0.0240  <S**2>=0.000
     239 -> 247        0.11734
     241 -> 247        0.14169
     241 -> 249       -0.15203
     243 -> 247        0.12925
     244 -> 247        0.60550
     246 -> 248        0.10204

 Excited State   5:      Singlet-A      3.6841 eV  336.54 nm  f=0.0547  <S**2>=0.000
     239 -> 247        0.26192
     239 -> 249       -0.16638
     240 -> 247       -0.11322
     241 -> 247        0.43680
     241 -> 249       -0.21120
     241 -> 250        0.12413
     244 -> 247       -0.28354
     246 -> 248        0.11816

 The electronic state is 1-A.
 Alpha  occ. eigenvalues --  -46.94149 -19.30834 -19.30062 -19.24999 -19.24508
 Alpha  occ. eigenvalues --  -19.24370 -19.24135 -14.46620 -14.46346 -14.43863
 Alpha  occ. eigenvalues --  -14.43796 -10.43542 -10.43235 -10.40280 -10.38820
 Alpha  occ. eigenvalues --  -10.35588 -10.35516 -10.35056 -10.34599 -10.34498
 Alpha  occ. eigenvalues --  -10.34452 -10.34215 -10.33889 -10.33131 -10.32826
 Alpha  occ. eigenvalues --  -10.32791 -10.32691 -10.32452 -10.32221 -10.31993
 Alpha  occ. eigenvalues --  -10.31882 -10.31589 -10.31358 -10.31271 -10.31170
 Alpha  occ. eigenvalues --  -10.31158 -10.31097 -10.31056 -10.30778 -10.30636
 Alpha  occ. eigenvalues --  -10.30617 -10.30580 -10.30255 -10.30144 -10.30124
 Alpha  occ. eigenvalues --  -10.30014 -10.29879 -10.29877 -10.29860 -10.29749
 Alpha  occ. eigenvalues --  -10.29734 -10.29698 -10.29514 -10.29393 -10.29328
 Alpha  occ. eigenvalues --  -10.29150 -10.28895 -10.28754 -10.28738 -10.28543
 Alpha  occ. eigenvalues --  -10.28421 -10.28269 -10.28146 -10.28001 -10.27973
 Alpha  occ. eigenvalues --  -10.27684  -3.20360  -1.93945  -1.93486  -1.93363
 Alpha  occ. eigenvalues --   -1.18473  -1.18374  -1.13327  -1.11064  -1.10303
 Alpha  occ. eigenvalues --   -1.09903  -1.07303  -1.06407  -1.05480  -1.04402
 Alpha  occ. eigenvalues --   -0.94150  -0.92414  -0.92001  -0.91534  -0.90740
 Alpha  occ. eigenvalues --   -0.90602  -0.90140  -0.89551  -0.89470  -0.88650
 Alpha  occ. eigenvalues --   -0.88416  -0.87117  -0.86065  -0.85427  -0.84805
 Alpha  occ. eigenvalues --   -0.84430  -0.83642  -0.83054  -0.82727  -0.81829
 Alpha  occ. eigenvalues --   -0.81285  -0.80488  -0.79789  -0.79073  -0.78208
 Alpha  occ. eigenvalues --   -0.78090  -0.77275  -0.77207  -0.76608  -0.75847
 Alpha  occ. eigenvalues --   -0.75092  -0.74317  -0.73311  -0.72333  -0.71202
 Alpha  occ. eigenvalues --   -0.70699  -0.70552  -0.69199  -0.68871  -0.67708
 Alpha  occ. eigenvalues --   -0.67525  -0.66572  -0.66539  -0.65914  -0.65537
 Alpha  occ. eigenvalues --   -0.65073  -0.64872  -0.64432  -0.64015  -0.61998
 Alpha  occ. eigenvalues --   -0.61750  -0.61457  -0.60973  -0.60688  -0.59733
 Alpha  occ. eigenvalues --   -0.59454  -0.59003  -0.58320  -0.58040  -0.57533
 Alpha  occ. eigenvalues --   -0.57138  -0.56858  -0.56620  -0.56451  -0.56396
 Alpha  occ. eigenvalues --   -0.55969  -0.55827  -0.55151  -0.54839  -0.54679
 Alpha  occ. eigenvalues --   -0.54366  -0.54297  -0.54100  -0.53771  -0.53518
 Alpha  occ. eigenvalues --   -0.53358  -0.53114  -0.52824  -0.52678  -0.52458
 Alpha  occ. eigenvalues --   -0.52298  -0.52111  -0.51806  -0.51684  -0.51254
 Alpha  occ. eigenvalues --   -0.51215  -0.51150  -0.51067  -0.50911  -0.50796
 Alpha  occ. eigenvalues --   -0.50477  -0.50321  -0.50146  -0.49987  -0.49654
 Alpha  occ. eigenvalues --   -0.49266  -0.49113  -0.48896  -0.48826  -0.48267
 Alpha  occ. eigenvalues --   -0.48007  -0.47802  -0.47613  -0.47572  -0.47334
 Alpha  occ. eigenvalues --   -0.47311  -0.47179  -0.47149  -0.46930  -0.46812
 Alpha  occ. eigenvalues --   -0.46712  -0.46446  -0.46197  -0.45978  -0.45804
 Alpha  occ. eigenvalues --   -0.45684  -0.45441  -0.45345  -0.45284  -0.45208
 Alpha  occ. eigenvalues --   -0.44938  -0.44677  -0.44472  -0.44221  -0.44136
 Alpha  occ. eigenvalues --   -0.44004  -0.43882  -0.43579  -0.43526  -0.43163
 Alpha  occ. eigenvalues --   -0.43085  -0.42851  -0.42698  -0.42667  -0.42037
 Alpha  occ. eigenvalues --   -0.41837  -0.41535  -0.41240  -0.40737  -0.40682
 Alpha  occ. eigenvalues --   -0.40364  -0.40074  -0.39722  -0.39659  -0.39352
 Alpha  occ. eigenvalues --   -0.38986  -0.38954  -0.38629  -0.38574  -0.38204
 Alpha  occ. eigenvalues --   -0.38132  -0.38019  -0.37623  -0.36768  -0.36217
 Alpha  occ. eigenvalues --   -0.35818  -0.35442  -0.35014  -0.33191  -0.33046
 Alpha  occ. eigenvalues --   -0.32808  -0.32379  -0.32158  -0.32034  -0.25427
 Alpha  occ. eigenvalues --   -0.22634
 Alpha virt. eigenvalues --   -0.06518   0.00287   0.02481   0.04495   0.05500
 Alpha virt. eigenvalues --    0.05932   0.06806   0.07439   0.08293   0.09612
 Alpha virt. eigenvalues --    0.10589   0.11147   0.12381   0.12570   0.13055

 Mulliken charges:
               1
     1  Mg   0.995097
     2  C   -0.021179
     3  C   -0.080165
     4  C   -0.057435
     5  C   -0.094791
     6  N   -0.350295
     7  C    0.027560
     8  C   -0.079209
     9  C   -0.125866
    10  C    0.074575
    11  C   -0.005477
    12  C    0.031606
    13  C    0.062742
    14  C    0.194905
    15  O   -0.269206
    16  O   -0.359501
    17  N   -0.439002
    18  C    0.132738
    19  C   -0.177710
    20  C   -0.081998
    21  C    0.099146
    22  C    0.070627
    23  C    0.073990
    24  O   -0.252047
    25  C   -0.017958
    26  N   -0.335996
    27  C    0.044822
    28  C   -0.109460
    29  C   -0.057454
    30  C    0.009842
    31  C    0.033083
    32  C    0.001520
    33  C   -0.065657
    34  N   -0.441252
    35  C    0.173833
    36  C   -0.178024
    37  C   -0.057634
    38  C    0.176138
    39  C    0.088506
    40  C    0.126878
    41  O   -0.178406
    42  C   -0.127506
    43  C    0.255952
    44  O   -0.247467
    45  O   -0.360988
    46  C    0.132383
    47  C    0.261303
    48  C   -0.124941
    49  C   -0.201750
    50  C    0.018442
    51  C    0.004230
    52  C    0.005931
    53  C   -0.016136
    54  C   -0.178304
    55  C   -0.014837
    56  C    0.010662
    57  C   -0.031780
    58  C   -0.013295
    59  C   -0.200906
    60  C   -0.005513
    61  C    0.014343
    62  C   -0.024152
    63  C   -0.011170
    64  C   -0.230466
    65  C    0.018832
    66  C   -0.013532
    67  H   -0.020837
    68  H    0.024090
    69  H   -0.008108
    70  H    0.057301
    71  H    0.051176
    72  H    0.030335
    73  H    0.061420
    74  H    0.027240
    75  H    0.027062
    76  H    0.035421
    77  H    0.061341
    78  H    0.056135
    79  H    0.045083
    80  H    0.040149
    81  H    0.059466
    82  H    0.061221
    83  H    0.068051
    84  H    0.055858
    85  H    0.035806
    86  H    0.024503
    87  H    0.029738
    88  H    0.032098
    89  H    0.047473
    90  H    0.040000
    91  H    0.044098
    92  H    0.039444
    93  H    0.051126
    94  H    0.032101
    95  H    0.045141
    96  H    0.042315
    97  H    0.067384
    98  H    0.054566
    99  H    0.051017
   100  H    0.052595
   101  H    0.068547
   102  H    0.024667
   103  H    0.049480
   104  H    0.013515
   105  H    0.032748
   106  H    0.051672
   107  H    0.042803
   108  H    0.023326
   109  H    0.030525
   110  H    0.030323
   111  H    0.024528
   112  H    0.025718
   113  H    0.023383
   114  H    0.010692
   115  H    0.028829
   116  H    0.033111
   117  H    0.030025
   118  H    0.005664
   119  H    0.004064
   120  H    0.026003
   121  H    0.025013
   122  H    0.021073
   123  H    0.017040
   124  H    0.021763
   125  H    0.037639
   126  H    0.030453
   127  H    0.038251
   128  H    0.018613
   129  H    0.024286
   130  H    0.021934
   131  H    0.015843
   132  H    0.016485
   133  H    0.019590
   134  H    0.022279
   135  H    0.023928
   136  H    0.027750
   137  H    0.029340
   138  H    0.018748
   139  H    0.027708
   140  H    0.039607
 Sum of Mulliken charges =  -0.00000

 Dipole moment (field-independent basis, Debye):
    X=             -2.5261    Y=              2.8898    Z=              0.3469  Tot=              3.8539
 Quadrupole moment (field-independent basis, Debye-Ang):
   XX=           -369.5839   YY=           -406.4543   ZZ=           -411.4779
   XY=              5.4092   XZ=             30.9151   YZ=              1.7903

 Normal termination of Gaussian 16 at Fri Apr 29 15:28:21 2022.
