 Gaussian 16, Revision A.03,
 Gaussian 16:  ES64L-G16RevA.03 25-Dec-2016

 --------------------
 #p ZINDO=(nstates=5)
 --------------------

 -----------------------------
 step_351_chromophore_25 ZINDO
 -----------------------------
 Symbolic Z-matrix:
 Charge =  0 Multiplicity = 1

                         Standard orientation:
 ---------------------------------------------------------------------
 Center     Atomic      Atomic             Coordinates (Angstroms)
 Number     Number       Type             X           Y           Z
 ---------------------------------------------------------------------
      1         12           0        6.218455    0.398429    0.284771
      2          6           0        3.758109   -1.997014    0.456947
      3          6           0        3.813393    2.811817    0.037661
      4          6           0        8.629569    2.620164   -0.723909
      5          6           0        8.559069   -1.934432    0.869013
      6          7           0        3.977154    0.333881    0.279863
      7          6           0        3.111133   -0.724224    0.367635
      8          6           0        1.671970   -0.305068    0.112090
      9          6           0        1.743848    1.283251    0.018914
     10          6           0        3.296436    1.525133    0.164492
     11          6           0        1.249311    1.955883   -1.350647
     12          6           0        0.716489   -0.698190    1.312934
     13          6           0       -0.415186   -1.583117    1.060835
     14          6           0       -1.841581   -1.055538    1.308391
     15          8           0       -2.411723   -1.021040    2.397068
     16          8           0       -2.509498   -0.797760    0.118047
     17          7           0        6.198747    2.422936   -0.142081
     18          6           0        5.163115    3.280149   -0.159249
     19          6           0        5.538630    4.597361   -0.468573
     20          6           0        6.910059    4.562397   -0.731747
     21          6           0        7.291195    3.163572   -0.555888
     22          6           0        4.590647    5.716566   -0.538873
     23          6           0        7.849441    5.799067   -1.095198
     24          8           0        9.062185    5.610870   -1.324892
     25          6           0        7.292060    7.227107   -1.337804
     26          7           0        8.261501    0.285731   -0.121617
     27          6           0        9.105116    1.293173   -0.410662
     28          6           0       10.582399    0.968916   -0.199479
     29          6           0       10.490265   -0.259217    0.697302
     30          6           0        9.017271   -0.665437    0.441288
     31          6           0       11.399848    0.751205   -1.504918
     32          6           0       10.872108    0.069843    2.205882
     33          6           0       11.561703   -1.187342    2.918975
     34          7           0        6.191525   -1.577321    0.429967
     35          6           0        7.243420   -2.419324    0.700286
     36          6           0        6.792697   -3.794508    0.869953
     37          6           0        5.368629   -3.698701    0.699052
     38          6           0        5.095380   -2.282977    0.518312
     39          6           0        7.652858   -4.972338    1.054466
     40          6           0        4.142573   -4.463996    0.636482
     41          8           0        3.975192   -5.650196    0.690346
     42          6           0        3.032725   -3.374714    0.453765
     43          6           0        2.340347   -3.716279   -0.835836
     44          8           0        2.840210   -3.423442   -1.914988
     45          8           0        1.099642   -4.258640   -0.604401
     46          6           0        0.237750   -4.629391   -1.694979
     47          6           0       -3.899076   -0.482673    0.223037
     48          6           0       -4.809108   -0.978353   -0.838005
     49          6           0       -5.719730   -2.023205   -0.818027
     50          6           0       -5.813506   -3.071590    0.315064
     51          6           0       -6.784437   -1.960878   -1.879364
     52          6           0       -8.090605   -1.152343   -1.686956
     53          6           0       -8.568410   -0.727673   -3.105304
     54          6           0      -10.111709   -0.686122   -3.210318
     55          6           0      -10.583754   -1.060387   -4.658789
     56          6           0      -10.792175    0.627986   -2.775983
     57          6           0      -12.355504    0.635809   -2.738178
     58          6           0      -12.947355    1.457936   -1.595549
     59          6           0      -13.755215    0.598808   -0.637027
     60          6           0      -15.031805    0.055556   -1.406695
     61          6           0      -14.078978    1.572788    0.629837
     62          6           0      -13.799850    0.913725    1.990877
     63          6           0      -14.574623    1.603407    3.123656
     64          6           0      -13.767025    1.856655    4.356522
     65          6           0      -14.728392    2.357592    5.465388
     66          6           0      -12.654676    2.916660    4.077135
     67          1           0        3.078121    3.606680   -0.102789
     68          1           0        9.423106    3.357718   -0.861500
     69          1           0        9.421308   -2.555177    1.121237
     70          1           0        1.322712   -0.672914   -0.852778
     71          1           0        1.282454    1.868008    0.814945
     72          1           0        0.683294    1.188722   -1.879055
     73          1           0        1.935192    2.411153   -2.064944
     74          1           0        0.491765    2.706062   -1.126475
     75          1           0        0.339141    0.236203    1.726296
     76          1           0        1.410999   -0.980886    2.104790
     77          1           0       -0.316632   -2.309192    1.867490
     78          1           0       -0.369696   -2.020447    0.063780
     79          1           0        5.102788    6.485896    0.039151
     80          1           0        3.609898    5.511965   -0.107953
     81          1           0        4.405858    5.986169   -1.579240
     82          1           0        8.110834    7.789108   -1.787001
     83          1           0        6.913986    7.689079   -0.425796
     84          1           0        6.493892    7.133692   -2.074409
     85          1           0       11.011672    1.854894    0.267680
     86          1           0       11.128970   -1.036576    0.275699
     87          1           0       10.817329    1.147553   -2.336094
     88          1           0       11.513510   -0.280719   -1.836826
     89          1           0       12.346048    1.292472   -1.516043
     90          1           0        9.936558    0.316833    2.707073
     91          1           0       11.565819    0.906805    2.285666
     92          1           0       10.919374   -1.486276    3.746710
     93          1           0       12.577647   -0.919219    3.206021
     94          1           0       11.558131   -2.086226    2.301719
     95          1           0        7.997144   -5.003603    2.088342
     96          1           0        8.569053   -4.863875    0.473122
     97          1           0        7.078413   -5.871508    0.833124
     98          1           0        2.208838   -3.485489    1.158782
     99          1           0       -0.604983   -3.943754   -1.784933
    100          1           0       -0.242375   -5.573547   -1.440279
    101          1           0        0.787541   -4.740064   -2.629172
    102          1           0       -3.928249    0.607416    0.210412
    103          1           0       -4.379089   -0.770064    1.158295
    104          1           0       -5.070319   -0.288415   -1.640827
    105          1           0       -5.112839   -2.823829    1.112562
    106          1           0       -5.622062   -4.110749    0.048986
    107          1           0       -6.782297   -3.036549    0.813550
    108          1           0       -6.945887   -3.007797   -2.139266
    109          1           0       -6.324264   -1.565544   -2.784996
    110          1           0       -8.076592   -0.208925   -1.140789
    111          1           0       -8.787273   -1.816700   -1.177364
    112          1           0       -8.298280   -1.421286   -3.902472
    113          1           0       -8.114965    0.249257   -3.274476
    114          1           0      -10.426123   -1.485416   -2.538077
    115          1           0      -11.595924   -0.703104   -4.847889
    116          1           0      -10.605527   -2.143047   -4.782994
    117          1           0       -9.926505   -0.592467   -5.391367
    118          1           0      -10.452261    1.357468   -3.510818
    119          1           0      -10.346235    1.062152   -1.880873
    120          1           0      -12.766530   -0.372353   -2.683806
    121          1           0      -12.710723    1.154032   -3.629324
    122          1           0      -13.610228    2.183636   -2.066448
    123          1           0      -12.087490    1.880836   -1.076028
    124          1           0      -13.058114   -0.190779   -0.355410
    125          1           0      -15.991139    0.304952   -0.953728
    126          1           0      -14.892681   -1.023992   -1.351991
    127          1           0      -15.037443    0.308862   -2.466789
    128          1           0      -15.148651    1.771903    0.687859
    129          1           0      -13.460113    2.462485    0.515050
    130          1           0      -12.741168    0.808122    2.229214
    131          1           0      -14.246487   -0.071362    1.856990
    132          1           0      -15.407257    0.939189    3.359008
    133          1           0      -14.989111    2.565802    2.822692
    134          1           0      -13.343205    0.922764    4.723753
    135          1           0      -15.769767    2.311679    5.146897
    136          1           0      -14.394383    3.373268    5.675679
    137          1           0      -14.639553    1.647034    6.286836
    138          1           0      -11.695447    2.401913    4.019244
    139          1           0      -12.422711    3.575888    4.913912
    140          1           0      -12.754005    3.463142    3.139430
 ---------------------------------------------------------------------

 SCF Done:  E(RZINDO/S) =  -474.313654913     A.U. after   20 cycles

 Excitation energies and oscillator strengths:

 Excited State   1:      Singlet-A      1.2358 eV 1003.25 nm  f=0.5695  <S**2>=0.000
     175 ->178         0.20315
     176 ->177         0.65934
 This state for optimization and/or second-order correction.
 Total Energy, E(CIS/TDA) =  -474.268239281
 Copying the excited state density for this state as the 1-particle RhoCI density.

 Excited State   2:      Singlet-A      1.8758 eV  660.97 nm  f=0.0343  <S**2>=0.000
     175 ->177         0.53962
     176 ->178        -0.43215

 Excited State   3:      Singlet-A      2.9529 eV  419.87 nm  f=0.5018  <S**2>=0.000
     175 ->177         0.27130
     176 ->178         0.40343
     176 ->179         0.45955

 Excited State   4:      Singlet-A      3.0156 eV  411.14 nm  f=0.3472  <S**2>=0.000
     168 ->177         0.11819
     168 ->181         0.12726
     169 ->177         0.18879
     169 ->179        -0.24771
     169 ->186        -0.13270
     175 ->177        -0.21130
     176 ->178        -0.23557
     176 ->179         0.39645
     176 ->181         0.10192

 Excited State   5:      Singlet-A      3.0320 eV  408.91 nm  f=0.0075  <S**2>=0.000
     168 ->177         0.16341
     168 ->179         0.32127
     168 ->181         0.36090
     168 ->182         0.12591
     168 ->186         0.20889
     169 ->177        -0.20565
     169 ->181        -0.20266

 The electronic state is 1-A.
 Alpha  occ. eigenvalues --   -1.86013  -1.82597  -1.80142  -1.73478  -1.72117
 Alpha  occ. eigenvalues --   -1.70577  -1.65305  -1.61596  -1.59546  -1.56871
 Alpha  occ. eigenvalues --   -1.55556  -1.51751  -1.50088  -1.48563  -1.45618
 Alpha  occ. eigenvalues --   -1.44294  -1.43765  -1.40456  -1.39340  -1.38805
 Alpha  occ. eigenvalues --   -1.36299  -1.34803  -1.33315  -1.31157  -1.28534
 Alpha  occ. eigenvalues --   -1.25246  -1.23566  -1.21185  -1.20755  -1.18547
 Alpha  occ. eigenvalues --   -1.18129  -1.16275  -1.16143  -1.15044  -1.13494
 Alpha  occ. eigenvalues --   -1.12606  -1.09996  -1.09191  -1.05323  -1.03806
 Alpha  occ. eigenvalues --   -1.02581  -1.01189  -0.98874  -0.98024  -0.97540
 Alpha  occ. eigenvalues --   -0.96249  -0.94676  -0.93254  -0.92886  -0.92199
 Alpha  occ. eigenvalues --   -0.90350  -0.90001  -0.88072  -0.86707  -0.86303
 Alpha  occ. eigenvalues --   -0.86214  -0.83750  -0.83425  -0.81992  -0.80439
 Alpha  occ. eigenvalues --   -0.79576  -0.79359  -0.78763  -0.77533  -0.76909
 Alpha  occ. eigenvalues --   -0.75970  -0.75228  -0.74516  -0.73803  -0.73558
 Alpha  occ. eigenvalues --   -0.72794  -0.72446  -0.72323  -0.71676  -0.71507
 Alpha  occ. eigenvalues --   -0.70268  -0.69052  -0.68779  -0.68209  -0.67646
 Alpha  occ. eigenvalues --   -0.67162  -0.66958  -0.66630  -0.66198  -0.65893
 Alpha  occ. eigenvalues --   -0.65108  -0.64563  -0.64053  -0.63625  -0.63417
 Alpha  occ. eigenvalues --   -0.63183  -0.62519  -0.62349  -0.62039  -0.61686
 Alpha  occ. eigenvalues --   -0.61307  -0.61119  -0.60471  -0.60324  -0.60134
 Alpha  occ. eigenvalues --   -0.59217  -0.58783  -0.58151  -0.57999  -0.57786
 Alpha  occ. eigenvalues --   -0.57523  -0.57132  -0.56973  -0.56789  -0.56243
 Alpha  occ. eigenvalues --   -0.55937  -0.55748  -0.55462  -0.55109  -0.54901
 Alpha  occ. eigenvalues --   -0.54582  -0.54085  -0.53632  -0.53393  -0.52915
 Alpha  occ. eigenvalues --   -0.52238  -0.52171  -0.51794  -0.51540  -0.51324
 Alpha  occ. eigenvalues --   -0.50924  -0.50802  -0.50695  -0.50688  -0.50241
 Alpha  occ. eigenvalues --   -0.50228  -0.49942  -0.49763  -0.49376  -0.49185
 Alpha  occ. eigenvalues --   -0.49091  -0.48609  -0.48215  -0.48039  -0.47644
 Alpha  occ. eigenvalues --   -0.47418  -0.47076  -0.46994  -0.46596  -0.46411
 Alpha  occ. eigenvalues --   -0.46101  -0.46050  -0.45912  -0.45780  -0.45720
 Alpha  occ. eigenvalues --   -0.45042  -0.44977  -0.44422  -0.44266  -0.44155
 Alpha  occ. eigenvalues --   -0.43978  -0.43432  -0.43303  -0.42709  -0.41841
 Alpha  occ. eigenvalues --   -0.41661  -0.41570  -0.41191  -0.39308  -0.38624
 Alpha  occ. eigenvalues --   -0.38190  -0.37394  -0.35446  -0.35210  -0.34419
 Alpha  occ. eigenvalues --   -0.33106  -0.32576  -0.32278  -0.32015  -0.26165
 Alpha  occ. eigenvalues --   -0.21517
 Alpha virt. eigenvalues --   -0.08167  -0.02073  -0.00509   0.01224   0.01404
 Alpha virt. eigenvalues --    0.02516   0.02860   0.03321   0.03489   0.04626
 Alpha virt. eigenvalues --    0.06039   0.07109   0.07256   0.07630   0.08084

 Mulliken charges:
               1
     1  Mg   0.434162
     2  C   -0.052591
     3  C   -0.084638
     4  C   -0.075984
     5  C   -0.086189
     6  N   -0.290636
     7  C    0.134883
     8  C    0.016495
     9  C   -0.009776
    10  C    0.105827
    11  C   -0.057909
    12  C   -0.019573
    13  C    0.016149
    14  C    0.462913
    15  O   -0.515195
    16  O   -0.266122
    17  N   -0.314699
    18  C    0.102990
    19  C    0.005640
    20  C   -0.053367
    21  C    0.121624
    22  C   -0.043182
    23  C    0.313096
    24  O   -0.522274
    25  C   -0.026216
    26  N   -0.248338
    27  C    0.126197
    28  C    0.009846
    29  C    0.002512
    30  C    0.132519
    31  C   -0.054248
    32  C   -0.032068
    33  C   -0.065673
    34  N   -0.307897
    35  C    0.102894
    36  C    0.041230
    37  C   -0.071904
    38  C    0.146158
    39  C   -0.030260
    40  C    0.345502
    41  O   -0.509781
    42  C    0.041971
    43  C    0.487939
    44  O   -0.525726
    45  O   -0.269917
    46  C    0.078119
    47  C    0.113992
    48  C   -0.102198
    49  C    0.000636
    50  C   -0.043349
    51  C   -0.016945
    52  C   -0.026194
    53  C   -0.036250
    54  C   -0.016131
    55  C   -0.060026
    56  C   -0.035398
    57  C   -0.041994
    58  C   -0.037907
    59  C   -0.024413
    60  C   -0.058339
    61  C   -0.046017
    62  C   -0.042695
    63  C   -0.026429
    64  C   -0.009424
    65  C   -0.067455
    66  C   -0.060844
    67  H    0.019817
    68  H    0.046241
    69  H    0.028908
    70  H    0.049059
    71  H    0.039405
    72  H    0.012062
    73  H    0.038103
    74  H    0.013098
    75  H    0.022628
    76  H    0.026429
    77  H    0.042723
    78  H    0.044722
    79  H    0.028456
    80  H    0.023953
    81  H    0.032761
    82  H    0.040401
    83  H    0.042270
    84  H    0.034847
    85  H    0.030631
    86  H    0.029919
    87  H    0.016910
    88  H    0.023699
    89  H    0.026589
    90  H    0.027667
    91  H    0.028757
    92  H    0.019452
    93  H    0.027771
    94  H    0.020379
    95  H    0.031655
    96  H    0.030665
    97  H    0.040195
    98  H    0.046008
    99  H    0.034387
   100  H    0.032798
   101  H    0.054677
   102  H    0.029845
   103  H    0.052198
   104  H    0.022341
   105  H    0.022250
   106  H    0.032660
   107  H    0.025988
   108  H    0.016867
   109  H    0.017679
   110  H    0.030268
   111  H    0.020891
   112  H    0.022244
   113  H    0.021799
   114  H    0.014647
   115  H    0.016480
   116  H    0.016882
   117  H    0.020564
   118  H    0.008624
   119  H    0.016369
   120  H    0.025387
   121  H    0.015850
   122  H    0.019835
   123  H    0.018292
   124  H    0.028441
   125  H    0.025160
   126  H    0.012496
   127  H    0.025442
   128  H    0.024298
   129  H    0.024900
   130  H    0.024975
   131  H    0.012736
   132  H    0.010736
   133  H    0.019550
   134  H    0.021760
   135  H    0.019310
   136  H    0.027303
   137  H    0.017852
   138  H    0.005641
   139  H    0.019399
   140  H    0.026872
 Sum of Mulliken charges =  -0.00000

 Dipole moment (field-independent basis, Debye):
    X=             -3.1690    Y=              3.7521    Z=              1.4640  Tot=              5.1249
 N-N= 4.195268772364D+03 E-N= 0.000000000000D+00  KE=-9.064944951159D+03
 Leave Link  601 at Fri Apr 29 15:39:15 2022, MaxMem=  6710886400 cpu:               0.8 elap:               0.1
 (Enter /sw/apps/gaussian-16.0/g16/l9999.exe)
 1\1\GINC-BP1-COMPUTE161\SP\RZINDO CIS\STO-3G\C55H74Mg1N4O6\OF15641\29-
 Apr-2022\0\\#p ZINDO=(nstates=5)\\step_351_chromophore_25 ZINDO\\0,1\M
 g,0,-2.942,34.621,26.49\C,0,-3.665,32.812,29.323\C,0,-1.064,36.766,28.
 372\C,0,-2.943,36.834,23.869\C,0,-4.501,32.326,24.602\N,0,-2.432,34.70
 1,28.672\C,0,-2.797,33.882,29.708\C,0,-2.379,34.448,31.056\C,0,-1.499,
 35.722,30.683\C,0,-1.625,35.727,29.11\C,0,-1.999,37.141,31.239\C,0,-1.
 478,33.433,31.873\C,0,-1.928,32.979,33.184\C,0,-1.068,33.306,34.42\O,0

 Normal termination of Gaussian 16 at Fri Apr 29 15:39:15 2022.
