 Gaussian 16, Revision A.03,
 Gaussian 16:  ES64L-G16RevA.03 25-Dec-2016

 ------------------------------
 #p blyp/Def2SVP td=(nstates=5)
 ------------------------------

 --------------------------------------------------
 step_951_chromophore_20 TDDFT with blyp functional
 --------------------------------------------------
 Symbolic Z-matrix:
 Charge =  0 Multiplicity = 1

                         Standard orientation:
 ---------------------------------------------------------------------
 Center     Atomic      Atomic             Coordinates (Angstroms)
 Number     Number       Type             X           Y           Z
 ---------------------------------------------------------------------
      1         12           0        4.424376    1.237106   -0.565083
      2          6           0        4.102074   -2.218458   -1.250488
      3          6           0        2.019748    1.831043   -2.849287
      4          6           0        4.105146    4.390946    0.761234
      5          6           0        6.665099    0.492260    1.914169
      6          7           0        3.124907   -0.081854   -1.726363
      7          6           0        3.124674   -1.440801   -1.942751
      8          6           0        2.044253   -1.846313   -2.945007
      9          6           0        1.924124   -0.533867   -3.695056
     10          6           0        2.418010    0.511831   -2.729395
     11          6           0        2.620675   -0.448667   -5.106451
     12          6           0        0.728958   -2.257382   -2.193916
     13          6           0       -0.129151   -3.313689   -2.972605
     14          6           0       -0.800548   -4.402378   -2.235261
     15          8           0       -0.623114   -5.602987   -2.418592
     16          8           0       -1.504998   -3.935521   -1.202981
     17          7           0        3.279213    2.895266   -0.987224
     18          6           0        2.367475    2.968861   -2.064873
     19          6           0        1.801702    4.273991   -2.146143
     20          6           0        2.428439    5.051418   -1.134181
     21          6           0        3.386239    4.138046   -0.426880
     22          6           0        0.818142    4.675071   -3.186007
     23          6           0        2.189246    6.545479   -0.971362
     24          8           0        1.508926    7.184291   -1.733973
     25          6           0        3.060713    7.332559    0.031720
     26          7           0        5.175133    2.286339    1.181104
     27          6           0        5.002314    3.545428    1.443705
     28          6           0        5.726533    3.953376    2.689639
     29          6           0        6.530836    2.701197    3.014789
     30          6           0        6.002622    1.731018    2.076340
     31          6           0        6.539524    5.279766    2.520927
     32          6           0        6.464861    2.237475    4.465109
     33          6           0        7.740470    1.835446    5.115896
     34          7           0        5.423919   -0.384271    0.009018
     35          6           0        6.375395   -0.546186    0.956689
     36          6           0        6.881990   -1.871823    1.005442
     37          6           0        6.004177   -2.536839    0.096293
     38          6           0        5.093648   -1.647679   -0.462684
     39          6           0        8.009348   -2.519918    1.880954
     40          6           0        5.742437   -3.911781   -0.403652
     41          8           0        6.254447   -4.970986   -0.159313
     42          6           0        4.419611   -3.707951   -1.253144
     43          6           0        3.280613   -4.323008   -0.472401
     44          8           0        2.856271   -3.896426    0.580285
     45          8           0        2.920659   -5.558751   -1.031094
     46          6           0        1.832026   -6.327698   -0.383289
     47          6           0       -2.523929   -4.825534   -0.601495
     48          6           0       -3.782388   -4.031588   -0.268731
     49          6           0       -4.832258   -4.395550    0.515036
     50          6           0       -5.030209   -5.748912    1.139323
     51          6           0       -5.824067   -3.291819    0.835352
     52          6           0       -5.432464   -2.493985    2.059647
     53          6           0       -6.324201   -2.909288    3.275889
     54          6           0       -7.095240   -1.786433    3.895278
     55          6           0       -7.565426   -2.062974    5.368358
     56          6           0       -8.242871   -1.273276    3.080378
     57          6           0       -8.168025    0.314682    2.914508
     58          6           0       -7.442201    0.758763    1.642859
     59          6           0       -8.527009    1.196727    0.537653
     60          6           0       -8.081834    0.804382   -0.870691
     61          6           0       -8.923194    2.698967    0.671222
     62          6           0      -10.423158    2.847021    0.666169
     63          6           0      -10.903056    3.897037   -0.205776
     64          6           0      -10.884806    3.512527   -1.728827
     65          6           0       -9.843401    4.255584   -2.538584
     66          6           0      -12.305786    3.433443   -2.322011
     67          1           0        1.223053    1.995711   -3.576894
     68          1           0        3.952573    5.324697    1.306754
     69          1           0        7.469291    0.325796    2.633139
     70          1           0        2.392019   -2.690697   -3.541391
     71          1           0        0.850266   -0.387570   -3.807510
     72          1           0        1.915990   -1.011947   -5.719255
     73          1           0        3.599359   -0.893520   -4.930560
     74          1           0        2.618900    0.557464   -5.526530
     75          1           0        0.030468   -1.420593   -2.183779
     76          1           0        0.769979   -2.510909   -1.134358
     77          1           0        0.472600   -3.865570   -3.694794
     78          1           0       -0.954327   -2.776706   -3.439351
     79          1           0        0.041310    3.914382   -3.261066
     80          1           0        1.260741    4.875633   -4.161418
     81          1           0        0.348484    5.635281   -2.972436
     82          1           0        4.107499    7.040476   -0.049335
     83          1           0        2.820983    7.013466    1.045548
     84          1           0        2.978949    8.398571   -0.177281
     85          1           0        4.865359    4.081155    3.345014
     86          1           0        7.589980    2.888126    2.841463
     87          1           0        7.622508    5.174710    2.593469
     88          1           0        6.150806    5.969905    3.269249
     89          1           0        6.359280    5.653927    1.513317
     90          1           0        5.773249    1.402063    4.576266
     91          1           0        5.972703    2.952997    5.124028
     92          1           0        7.601180    0.780655    5.357052
     93          1           0        7.881238    2.446537    6.006692
     94          1           0        8.644043    1.870147    4.507417
     95          1           0        8.847928   -1.826690    1.957527
     96          1           0        8.249475   -3.399023    1.283462
     97          1           0        7.663582   -2.729847    2.892581
     98          1           0        4.390871   -4.228725   -2.211036
     99          1           0        2.255475   -7.088753    0.273472
    100          1           0        1.395899   -6.896504   -1.205202
    101          1           0        1.110241   -5.752724    0.196080
    102          1           0       -2.174899   -5.262626    0.333784
    103          1           0       -2.722459   -5.589119   -1.354038
    104          1           0       -3.826206   -2.997128   -0.609495
    105          1           0       -4.087951   -6.259967    0.941048
    106          1           0       -5.812732   -6.420839    0.785289
    107          1           0       -5.186809   -5.672748    2.215241
    108          1           0       -6.796328   -3.779946    0.907165
    109          1           0       -6.066355   -2.700001   -0.047208
    110          1           0       -5.476984   -1.425877    1.849076
    111          1           0       -4.400734   -2.601096    2.395107
    112          1           0       -5.714986   -3.273828    4.102569
    113          1           0       -6.955395   -3.796349    3.222692
    114          1           0       -6.397302   -0.959172    4.018854
    115          1           0       -7.214595   -3.012185    5.773556
    116          1           0       -8.628112   -1.955968    5.585044
    117          1           0       -6.983381   -1.345613    5.946286
    118          1           0       -9.197118   -1.364084    3.599100
    119          1           0       -8.350721   -1.760862    2.111755
    120          1           0       -7.678724    0.789070    3.764820
    121          1           0       -9.172180    0.729583    2.998223
    122          1           0       -6.825723   -0.017169    1.189425
    123          1           0       -6.872932    1.637045    1.944624
    124          1           0       -9.444559    0.624828    0.675776
    125          1           0       -7.205323    0.156918   -0.851477
    126          1           0       -7.759770    1.644802   -1.484459
    127          1           0       -8.781714    0.185948   -1.432300
    128          1           0       -8.483310    3.262858   -0.151103
    129          1           0       -8.530734    3.228254    1.539528
    130          1           0      -10.672414    3.019099    1.713497
    131          1           0      -11.038701    1.989448    0.394965
    132          1           0      -10.317590    4.810567   -0.095646
    133          1           0      -11.823957    4.334655    0.180097
    134          1           0      -10.583837    2.467547   -1.795485
    135          1           0       -9.669210    3.633259   -3.416722
    136          1           0       -8.941140    4.364873   -1.937167
    137          1           0      -10.282369    5.242198   -2.685308
    138          1           0      -12.569456    2.416882   -2.613544
    139          1           0      -12.214260    3.999553   -3.249887
    140          1           0      -13.018645    3.981391   -1.705185
 ---------------------------------------------------------------------

 SCF Done:  E(RB-LYP) =  -3007.35534623     A.U. after   21 cycles

 Excitation energies and oscillator strengths:

 Excited State   1:      Singlet-A      1.8077 eV  685.87 nm  f=0.2706  <S**2>=0.000
     245 -> 248        0.21741
     246 -> 247        0.68036
     246 <- 247       -0.13857
 This state for optimization and/or second-order correction.
 Total Energy, E(TD-HF/TD-DFT) =  -3007.28891476
 Copying the excited state density for this state as the 1-particle RhoCI density.

 Excited State   2:      Singlet-A      1.9408 eV  638.82 nm  f=0.0029  <S**2>=0.000
     244 -> 247        0.69237
     245 -> 247        0.13072

 Excited State   3:      Singlet-A      2.0035 eV  618.84 nm  f=0.0764  <S**2>=0.000
     244 -> 247       -0.13664
     245 -> 247        0.62742
     246 -> 248       -0.26531

 Excited State   4:      Singlet-A      2.1328 eV  581.31 nm  f=0.0009  <S**2>=0.000
     243 -> 247        0.70322

 Excited State   5:      Singlet-A      2.3353 eV  530.92 nm  f=0.0000  <S**2>=0.000
     242 -> 247        0.70709

 The electronic state is 1-A.
 Alpha  occ. eigenvalues --  -46.26114 -18.82325 -18.81060 -18.76516 -18.76407
 Alpha  occ. eigenvalues --  -18.76386 -18.75649 -14.03249 -14.02680 -14.01179
 Alpha  occ. eigenvalues --  -14.00538 -10.03850 -10.03352 -10.00079  -9.99796
 Alpha  occ. eigenvalues --   -9.98625  -9.96947  -9.96428  -9.96400  -9.96156
 Alpha  occ. eigenvalues --   -9.95901  -9.95653  -9.95493  -9.95313  -9.94853
 Alpha  occ. eigenvalues --   -9.94322  -9.94017  -9.93940  -9.93886  -9.93861
 Alpha  occ. eigenvalues --   -9.93637  -9.93590  -9.93312  -9.93305  -9.93294
 Alpha  occ. eigenvalues --   -9.93060  -9.92941  -9.92889  -9.92882  -9.92851
 Alpha  occ. eigenvalues --   -9.92774  -9.92664  -9.92661  -9.92615  -9.92046
 Alpha  occ. eigenvalues --   -9.92006  -9.91976  -9.91739  -9.91705  -9.91697
 Alpha  occ. eigenvalues --   -9.91649  -9.91414  -9.91284  -9.91216  -9.90999
 Alpha  occ. eigenvalues --   -9.90991  -9.90990  -9.90949  -9.90811  -9.90764
 Alpha  occ. eigenvalues --   -9.90738  -9.90656  -9.90575  -9.90515  -9.90108
 Alpha  occ. eigenvalues --   -9.89990  -2.90981  -1.71381  -1.70889  -1.70684
 Alpha  occ. eigenvalues --   -0.98837  -0.96125  -0.92744  -0.92481  -0.89579
 Alpha  occ. eigenvalues --   -0.89087  -0.88766  -0.86716  -0.85639  -0.84374
 Alpha  occ. eigenvalues --   -0.75625  -0.74124  -0.73743  -0.73484  -0.73329
 Alpha  occ. eigenvalues --   -0.72481  -0.72083  -0.71136  -0.70660  -0.70101
 Alpha  occ. eigenvalues --   -0.69554  -0.68919  -0.68147  -0.67936  -0.67322
 Alpha  occ. eigenvalues --   -0.66892  -0.65912  -0.65348  -0.64545  -0.64464
 Alpha  occ. eigenvalues --   -0.64192  -0.62905  -0.62349  -0.61376  -0.61044
 Alpha  occ. eigenvalues --   -0.60413  -0.60311  -0.60151  -0.59632  -0.58978
 Alpha  occ. eigenvalues --   -0.58479  -0.57767  -0.57171  -0.56533  -0.54891
 Alpha  occ. eigenvalues --   -0.54038  -0.53890  -0.52899  -0.52608  -0.52371
 Alpha  occ. eigenvalues --   -0.51438  -0.51403  -0.50607  -0.50219  -0.50182
 Alpha  occ. eigenvalues --   -0.50029  -0.49071  -0.48486  -0.47623  -0.46842
 Alpha  occ. eigenvalues --   -0.46319  -0.46249  -0.45765  -0.45537  -0.44620
 Alpha  occ. eigenvalues --   -0.44347  -0.43607  -0.43242  -0.42828  -0.42633
 Alpha  occ. eigenvalues --   -0.42414  -0.41790  -0.41449  -0.41258  -0.41171
 Alpha  occ. eigenvalues --   -0.40926  -0.40596  -0.40359  -0.40004  -0.39943
 Alpha  occ. eigenvalues --   -0.39912  -0.39560  -0.39222  -0.39162  -0.38823
 Alpha  occ. eigenvalues --   -0.38655  -0.38573  -0.38444  -0.38199  -0.38174
 Alpha  occ. eigenvalues --   -0.37850  -0.37585  -0.37457  -0.37266  -0.37175
 Alpha  occ. eigenvalues --   -0.37079  -0.37025  -0.36761  -0.36731  -0.36514
 Alpha  occ. eigenvalues --   -0.36335  -0.36228  -0.35936  -0.35857  -0.35660
 Alpha  occ. eigenvalues --   -0.35631  -0.35388  -0.34997  -0.34869  -0.34813
 Alpha  occ. eigenvalues --   -0.34783  -0.34498  -0.34468  -0.34340  -0.34258
 Alpha  occ. eigenvalues --   -0.33945  -0.33855  -0.33622  -0.33320  -0.33200
 Alpha  occ. eigenvalues --   -0.33083  -0.32836  -0.32820  -0.32728  -0.32501
 Alpha  occ. eigenvalues --   -0.32442  -0.32432  -0.32037  -0.31913  -0.31761
 Alpha  occ. eigenvalues --   -0.31653  -0.31419  -0.31395  -0.31285  -0.31078
 Alpha  occ. eigenvalues --   -0.30911  -0.30703  -0.30422  -0.30133  -0.29875
 Alpha  occ. eigenvalues --   -0.29622  -0.29518  -0.29373  -0.29304  -0.29267
 Alpha  occ. eigenvalues --   -0.29129  -0.28928  -0.28350  -0.28092  -0.27808
 Alpha  occ. eigenvalues --   -0.27591  -0.27392  -0.26553  -0.26355  -0.26122
 Alpha  occ. eigenvalues --   -0.25825  -0.25813  -0.25779  -0.25379  -0.24959
 Alpha  occ. eigenvalues --   -0.24866  -0.24246  -0.24060  -0.23921  -0.23441
 Alpha  occ. eigenvalues --   -0.23275  -0.22003  -0.21672  -0.21509  -0.20582
 Alpha  occ. eigenvalues --   -0.20296  -0.20128  -0.19273  -0.18587  -0.17202
 Alpha  occ. eigenvalues --   -0.15941
 Alpha virt. eigenvalues --   -0.11546  -0.07159  -0.06161  -0.04374  -0.03038
 Alpha virt. eigenvalues --   -0.02358  -0.02298  -0.02098  -0.01664  -0.00150
 Alpha virt. eigenvalues --    0.01029   0.01637   0.02328   0.02663   0.03196

 Mulliken charges:
               1
     1  Mg   0.711384
     2  C   -0.004502
     3  C   -0.092953
     4  C   -0.056394
     5  C   -0.092628
     6  N   -0.221809
     7  C   -0.092787
     8  C    0.035395
     9  C   -0.005446
    10  C    0.069685
    11  C    0.156179
    12  C    0.121819
    13  C    0.144159
    14  C    0.033227
    15  O   -0.198809
    16  O   -0.264679
    17  N   -0.322596
    18  C    0.140577
    19  C   -0.118356
    20  C    0.002784
    21  C    0.160548
    22  C    0.174771
    23  C   -0.075738
    24  O   -0.141678
    25  C    0.109356
    26  N   -0.148820
    27  C   -0.094846
    28  C    0.058889
    29  C    0.046961
    30  C    0.030952
    31  C    0.138675
    32  C    0.085946
    33  C    0.074151
    34  N   -0.303149
    35  C    0.127536
    36  C   -0.180100
    37  C    0.007850
    38  C    0.152139
    39  C    0.171023
    40  C    0.018181
    41  O   -0.098906
    42  C    0.031918
    43  C    0.101972
    44  O   -0.175104
    45  O   -0.289197
    46  C    0.208911
    47  C    0.309285
    48  C   -0.090872
    49  C   -0.175921
    50  C    0.143445
    51  C    0.131216
    52  C    0.146370
    53  C    0.099862
    54  C   -0.072768
    55  C    0.105914
    56  C    0.128577
    57  C    0.028249
    58  C    0.121548
    59  C   -0.085506
    60  C    0.106406
    61  C    0.141228
    62  C    0.079580
    63  C    0.111391
    64  C   -0.136159
    65  C    0.134901
    66  C    0.130413
    67  H   -0.058858
    68  H   -0.083445
    69  H   -0.070969
    70  H   -0.032239
    71  H   -0.045746
    72  H   -0.005006
    73  H    0.007454
    74  H   -0.003064
    75  H   -0.025657
    76  H    0.015037
    77  H   -0.003417
    78  H   -0.003758
    79  H   -0.006740
    80  H   -0.000799
    81  H   -0.002559
    82  H    0.002051
    83  H    0.014220
    84  H   -0.003766
    85  H   -0.023102
    86  H   -0.027031
    87  H   -0.009202
    88  H   -0.002191
    89  H   -0.005793
    90  H   -0.029780
    91  H   -0.038789
    92  H   -0.006094
    93  H   -0.005951
    94  H   -0.010224
    95  H   -0.008043
    96  H    0.021828
    97  H    0.013461
    98  H   -0.017868
    99  H    0.004450
   100  H    0.027452
   101  H    0.023092
   102  H    0.021695
   103  H    0.014085
   104  H   -0.037263
   105  H   -0.028624
   106  H    0.006956
   107  H   -0.001772
   108  H   -0.037314
   109  H   -0.034656
   110  H   -0.028495
   111  H   -0.026659
   112  H   -0.059000
   113  H   -0.041230
   114  H   -0.036777
   115  H   -0.029309
   116  H   -0.008789
   117  H   -0.023959
   118  H   -0.041966
   119  H   -0.035484
   120  H   -0.043007
   121  H   -0.036278
   122  H   -0.020476
   123  H   -0.033751
   124  H   -0.030073
   125  H   -0.039572
   126  H   -0.021933
   127  H   -0.016021
   128  H   -0.045211
   129  H   -0.039588
   130  H   -0.046296
   131  H   -0.028156
   132  H   -0.067211
   133  H   -0.056336
   134  H   -0.039199
   135  H   -0.007771
   136  H   -0.014875
   137  H   -0.014223
   138  H   -0.009816
   139  H   -0.042446
   140  H   -0.011802
 Sum of Mulliken charges =  -0.00000

 Dipole moment (field-independent basis, Debye):
    X=             -0.9602    Y=              2.0518    Z=              1.5869  Tot=              2.7659
 Quadrupole moment (field-independent basis, Debye-Ang):
   XX=           -385.1011   YY=           -445.7239   ZZ=           -387.9138
   XY=             44.2552   XZ=              7.2007   YZ=             11.7001

 Normal termination of Gaussian 16 at Sun May  1 00:43:43 2022.
