 Gaussian 16, Revision A.03,
 Gaussian 16:  ES64L-G16RevA.03 25-Dec-2016

 -----------------------------------
 #p cam-b3lyp/Def2SVP td=(nstates=5)
 -----------------------------------

 -------------------------------------------------------
 step_951_chromophore_20 TDDFT with cam-b3lyp functional
 -------------------------------------------------------
 Symbolic Z-matrix:
 Charge =  0 Multiplicity = 1

                         Standard orientation:
 ---------------------------------------------------------------------
 Center     Atomic      Atomic             Coordinates (Angstroms)
 Number     Number       Type             X           Y           Z
 ---------------------------------------------------------------------
      1         12           0        4.424376    1.237106   -0.565083
      2          6           0        4.102074   -2.218458   -1.250488
      3          6           0        2.019748    1.831043   -2.849287
      4          6           0        4.105146    4.390946    0.761234
      5          6           0        6.665099    0.492260    1.914169
      6          7           0        3.124907   -0.081854   -1.726363
      7          6           0        3.124674   -1.440801   -1.942751
      8          6           0        2.044253   -1.846313   -2.945007
      9          6           0        1.924124   -0.533867   -3.695056
     10          6           0        2.418010    0.511831   -2.729395
     11          6           0        2.620675   -0.448667   -5.106451
     12          6           0        0.728958   -2.257382   -2.193916
     13          6           0       -0.129151   -3.313689   -2.972605
     14          6           0       -0.800548   -4.402378   -2.235261
     15          8           0       -0.623114   -5.602987   -2.418592
     16          8           0       -1.504998   -3.935521   -1.202981
     17          7           0        3.279213    2.895266   -0.987224
     18          6           0        2.367475    2.968861   -2.064873
     19          6           0        1.801702    4.273991   -2.146143
     20          6           0        2.428439    5.051418   -1.134181
     21          6           0        3.386239    4.138046   -0.426880
     22          6           0        0.818142    4.675071   -3.186007
     23          6           0        2.189246    6.545479   -0.971362
     24          8           0        1.508926    7.184291   -1.733973
     25          6           0        3.060713    7.332559    0.031720
     26          7           0        5.175133    2.286339    1.181104
     27          6           0        5.002314    3.545428    1.443705
     28          6           0        5.726533    3.953376    2.689639
     29          6           0        6.530836    2.701197    3.014789
     30          6           0        6.002622    1.731018    2.076340
     31          6           0        6.539524    5.279766    2.520927
     32          6           0        6.464861    2.237475    4.465109
     33          6           0        7.740470    1.835446    5.115896
     34          7           0        5.423919   -0.384271    0.009018
     35          6           0        6.375395   -0.546186    0.956689
     36          6           0        6.881990   -1.871823    1.005442
     37          6           0        6.004177   -2.536839    0.096293
     38          6           0        5.093648   -1.647679   -0.462684
     39          6           0        8.009348   -2.519918    1.880954
     40          6           0        5.742437   -3.911781   -0.403652
     41          8           0        6.254447   -4.970986   -0.159313
     42          6           0        4.419611   -3.707951   -1.253144
     43          6           0        3.280613   -4.323008   -0.472401
     44          8           0        2.856271   -3.896426    0.580285
     45          8           0        2.920659   -5.558751   -1.031094
     46          6           0        1.832026   -6.327698   -0.383289
     47          6           0       -2.523929   -4.825534   -0.601495
     48          6           0       -3.782388   -4.031588   -0.268731
     49          6           0       -4.832258   -4.395550    0.515036
     50          6           0       -5.030209   -5.748912    1.139323
     51          6           0       -5.824067   -3.291819    0.835352
     52          6           0       -5.432464   -2.493985    2.059647
     53          6           0       -6.324201   -2.909288    3.275889
     54          6           0       -7.095240   -1.786433    3.895278
     55          6           0       -7.565426   -2.062974    5.368358
     56          6           0       -8.242871   -1.273276    3.080378
     57          6           0       -8.168025    0.314682    2.914508
     58          6           0       -7.442201    0.758763    1.642859
     59          6           0       -8.527009    1.196727    0.537653
     60          6           0       -8.081834    0.804382   -0.870691
     61          6           0       -8.923194    2.698967    0.671222
     62          6           0      -10.423158    2.847021    0.666169
     63          6           0      -10.903056    3.897037   -0.205776
     64          6           0      -10.884806    3.512527   -1.728827
     65          6           0       -9.843401    4.255584   -2.538584
     66          6           0      -12.305786    3.433443   -2.322011
     67          1           0        1.223053    1.995711   -3.576894
     68          1           0        3.952573    5.324697    1.306754
     69          1           0        7.469291    0.325796    2.633139
     70          1           0        2.392019   -2.690697   -3.541391
     71          1           0        0.850266   -0.387570   -3.807510
     72          1           0        1.915990   -1.011947   -5.719255
     73          1           0        3.599359   -0.893520   -4.930560
     74          1           0        2.618900    0.557464   -5.526530
     75          1           0        0.030468   -1.420593   -2.183779
     76          1           0        0.769979   -2.510909   -1.134358
     77          1           0        0.472600   -3.865570   -3.694794
     78          1           0       -0.954327   -2.776706   -3.439351
     79          1           0        0.041310    3.914382   -3.261066
     80          1           0        1.260741    4.875633   -4.161418
     81          1           0        0.348484    5.635281   -2.972436
     82          1           0        4.107499    7.040476   -0.049335
     83          1           0        2.820983    7.013466    1.045548
     84          1           0        2.978949    8.398571   -0.177281
     85          1           0        4.865359    4.081155    3.345014
     86          1           0        7.589980    2.888126    2.841463
     87          1           0        7.622508    5.174710    2.593469
     88          1           0        6.150806    5.969905    3.269249
     89          1           0        6.359280    5.653927    1.513317
     90          1           0        5.773249    1.402063    4.576266
     91          1           0        5.972703    2.952997    5.124028
     92          1           0        7.601180    0.780655    5.357052
     93          1           0        7.881238    2.446537    6.006692
     94          1           0        8.644043    1.870147    4.507417
     95          1           0        8.847928   -1.826690    1.957527
     96          1           0        8.249475   -3.399023    1.283462
     97          1           0        7.663582   -2.729847    2.892581
     98          1           0        4.390871   -4.228725   -2.211036
     99          1           0        2.255475   -7.088753    0.273472
    100          1           0        1.395899   -6.896504   -1.205202
    101          1           0        1.110241   -5.752724    0.196080
    102          1           0       -2.174899   -5.262626    0.333784
    103          1           0       -2.722459   -5.589119   -1.354038
    104          1           0       -3.826206   -2.997128   -0.609495
    105          1           0       -4.087951   -6.259967    0.941048
    106          1           0       -5.812732   -6.420839    0.785289
    107          1           0       -5.186809   -5.672748    2.215241
    108          1           0       -6.796328   -3.779946    0.907165
    109          1           0       -6.066355   -2.700001   -0.047208
    110          1           0       -5.476984   -1.425877    1.849076
    111          1           0       -4.400734   -2.601096    2.395107
    112          1           0       -5.714986   -3.273828    4.102569
    113          1           0       -6.955395   -3.796349    3.222692
    114          1           0       -6.397302   -0.959172    4.018854
    115          1           0       -7.214595   -3.012185    5.773556
    116          1           0       -8.628112   -1.955968    5.585044
    117          1           0       -6.983381   -1.345613    5.946286
    118          1           0       -9.197118   -1.364084    3.599100
    119          1           0       -8.350721   -1.760862    2.111755
    120          1           0       -7.678724    0.789070    3.764820
    121          1           0       -9.172180    0.729583    2.998223
    122          1           0       -6.825723   -0.017169    1.189425
    123          1           0       -6.872932    1.637045    1.944624
    124          1           0       -9.444559    0.624828    0.675776
    125          1           0       -7.205323    0.156918   -0.851477
    126          1           0       -7.759770    1.644802   -1.484459
    127          1           0       -8.781714    0.185948   -1.432300
    128          1           0       -8.483310    3.262858   -0.151103
    129          1           0       -8.530734    3.228254    1.539528
    130          1           0      -10.672414    3.019099    1.713497
    131          1           0      -11.038701    1.989448    0.394965
    132          1           0      -10.317590    4.810567   -0.095646
    133          1           0      -11.823957    4.334655    0.180097
    134          1           0      -10.583837    2.467547   -1.795485
    135          1           0       -9.669210    3.633259   -3.416722
    136          1           0       -8.941140    4.364873   -1.937167
    137          1           0      -10.282369    5.242198   -2.685308
    138          1           0      -12.569456    2.416882   -2.613544
    139          1           0      -12.214260    3.999553   -3.249887
    140          1           0      -13.018645    3.981391   -1.705185
 ---------------------------------------------------------------------

 SCF Done:  E(RCAM-B3LYP) =  -3007.16394556     A.U. after   17 cycles

 Excitation energies and oscillator strengths:

 Excited State   1:      Singlet-A      1.7221 eV  719.98 nm  f=0.3475  <S**2>=0.000
     245 -> 248       -0.19496
     246 -> 247        0.68137
     245 <- 248       -0.11074
 This state for optimization and/or second-order correction.
 Total Energy, E(TD-HF/TD-DFT) =  -3007.10066104
 Copying the excited state density for this state as the 1-particle RhoCI density.

 Excited State   2:      Singlet-A      2.2141 eV  559.97 nm  f=0.1027  <S**2>=0.000
     245 -> 247        0.63176
     246 -> 248        0.30534

 Excited State   3:      Singlet-A      3.3734 eV  367.53 nm  f=0.0185  <S**2>=0.000
     242 -> 247        0.50919
     244 -> 247       -0.44735
     246 -> 248        0.13069

 Excited State   4:      Singlet-A      3.4485 eV  359.53 nm  f=0.2104  <S**2>=0.000
     242 -> 247        0.26130
     244 -> 247        0.44536
     245 -> 247       -0.15929
     246 -> 248        0.43147

 Excited State   5:      Singlet-A      3.5544 eV  348.82 nm  f=0.4488  <S**2>=0.000
     240 -> 247       -0.24481
     241 -> 247       -0.15254
     241 -> 249        0.12713
     242 -> 247       -0.29876
     244 -> 247       -0.24214
     245 -> 247       -0.23273
     246 -> 248        0.38685

 The electronic state is 1-A.
 Alpha  occ. eigenvalues --  -46.87586 -19.25221 -19.23875 -19.19539 -19.19474
 Alpha  occ. eigenvalues --  -19.19329 -19.19046 -14.42216 -14.41421 -14.39776
 Alpha  occ. eigenvalues --  -14.38763 -10.39038 -10.38787 -10.35276 -10.35160
 Alpha  occ. eigenvalues --  -10.32759 -10.31302 -10.31210 -10.30758 -10.30456
 Alpha  occ. eigenvalues --  -10.30284 -10.30155 -10.29775 -10.29215 -10.28857
 Alpha  occ. eigenvalues --  -10.28348 -10.28280 -10.28221 -10.28181 -10.27881
 Alpha  occ. eigenvalues --  -10.27749 -10.27550 -10.27492 -10.27350 -10.27315
 Alpha  occ. eigenvalues --  -10.27230 -10.27146 -10.27050 -10.26816 -10.26782
 Alpha  occ. eigenvalues --  -10.26665 -10.26658 -10.26330 -10.26294 -10.26008
 Alpha  occ. eigenvalues --  -10.25863 -10.25660 -10.25622 -10.25462 -10.25417
 Alpha  occ. eigenvalues --  -10.25396 -10.25258 -10.24939 -10.24937 -10.24857
 Alpha  occ. eigenvalues --  -10.24705 -10.24632 -10.24630 -10.24421 -10.24413
 Alpha  occ. eigenvalues --  -10.24340 -10.24316 -10.24174 -10.24133 -10.23672
 Alpha  occ. eigenvalues --  -10.23622  -3.16364  -1.91238  -1.90835  -1.90674
 Alpha  occ. eigenvalues --   -1.17322  -1.14610  -1.11110  -1.11027  -1.07434
 Alpha  occ. eigenvalues --   -1.06896  -1.06559  -1.04459  -1.03020  -1.02099
 Alpha  occ. eigenvalues --   -0.92665  -0.91038  -0.90435  -0.90318  -0.90120
 Alpha  occ. eigenvalues --   -0.89228  -0.88844  -0.87739  -0.87234  -0.86695
 Alpha  occ. eigenvalues --   -0.86147  -0.85197  -0.84385  -0.84092  -0.83511
 Alpha  occ. eigenvalues --   -0.83023  -0.81998  -0.81323  -0.80506  -0.80219
 Alpha  occ. eigenvalues --   -0.80030  -0.78501  -0.77811  -0.77175  -0.76462
 Alpha  occ. eigenvalues --   -0.75708  -0.75699  -0.75471  -0.74958  -0.74223
 Alpha  occ. eigenvalues --   -0.73520  -0.72742  -0.72104  -0.71412  -0.69463
 Alpha  occ. eigenvalues --   -0.68668  -0.68384  -0.67339  -0.67052  -0.66469
 Alpha  occ. eigenvalues --   -0.65723  -0.65590  -0.64761  -0.64267  -0.64119
 Alpha  occ. eigenvalues --   -0.63815  -0.63020  -0.62367  -0.61217  -0.60504
 Alpha  occ. eigenvalues --   -0.59972  -0.59720  -0.59283  -0.58853  -0.58121
 Alpha  occ. eigenvalues --   -0.57785  -0.57105  -0.56578  -0.55834  -0.55759
 Alpha  occ. eigenvalues --   -0.55482  -0.54968  -0.54326  -0.54148  -0.53912
 Alpha  occ. eigenvalues --   -0.53671  -0.53333  -0.53130  -0.52737  -0.52631
 Alpha  occ. eigenvalues --   -0.52407  -0.52290  -0.52235  -0.51909  -0.51524
 Alpha  occ. eigenvalues --   -0.51332  -0.51023  -0.50879  -0.50796  -0.50584
 Alpha  occ. eigenvalues --   -0.50325  -0.50138  -0.49801  -0.49696  -0.49605
 Alpha  occ. eigenvalues --   -0.49411  -0.49304  -0.49171  -0.49009  -0.48942
 Alpha  occ. eigenvalues --   -0.48718  -0.48385  -0.48315  -0.48156  -0.47770
 Alpha  occ. eigenvalues --   -0.47570  -0.47334  -0.47038  -0.46887  -0.46705
 Alpha  occ. eigenvalues --   -0.46600  -0.46461  -0.46291  -0.46137  -0.46057
 Alpha  occ. eigenvalues --   -0.45874  -0.45781  -0.45392  -0.45210  -0.44935
 Alpha  occ. eigenvalues --   -0.44751  -0.44696  -0.44547  -0.44407  -0.44077
 Alpha  occ. eigenvalues --   -0.44007  -0.43993  -0.43896  -0.43513  -0.43383
 Alpha  occ. eigenvalues --   -0.43061  -0.42956  -0.42796  -0.42624  -0.42559
 Alpha  occ. eigenvalues --   -0.42312  -0.42222  -0.41874  -0.41627  -0.41413
 Alpha  occ. eigenvalues --   -0.40985  -0.40894  -0.40861  -0.40612  -0.40369
 Alpha  occ. eigenvalues --   -0.40273  -0.40121  -0.39361  -0.39068  -0.38711
 Alpha  occ. eigenvalues --   -0.38697  -0.38252  -0.37844  -0.37157  -0.36977
 Alpha  occ. eigenvalues --   -0.36865  -0.36601  -0.36580  -0.36210  -0.35712
 Alpha  occ. eigenvalues --   -0.35535  -0.35427  -0.34767  -0.34624  -0.33941
 Alpha  occ. eigenvalues --   -0.33760  -0.33629  -0.33060  -0.31304  -0.30964
 Alpha  occ. eigenvalues --   -0.30720  -0.29954  -0.29806  -0.29443  -0.23913
 Alpha  occ. eigenvalues --   -0.21278
 Alpha virt. eigenvalues --   -0.08584  -0.02099   0.00444   0.02493   0.02823
 Alpha virt. eigenvalues --    0.04701   0.05037   0.05348   0.05820   0.06423
 Alpha virt. eigenvalues --    0.08024   0.08448   0.08483   0.09084   0.09343

 Mulliken charges:
               1
     1  Mg   0.846717
     2  C   -0.034449
     3  C   -0.101643
     4  C   -0.081399
     5  C   -0.092833
     6  N   -0.286140
     7  C   -0.051658
     8  C   -0.009784
     9  C   -0.072173
    10  C    0.082394
    11  C    0.103762
    12  C    0.066129
    13  C    0.074934
    14  C    0.116000
    15  O   -0.241640
    16  O   -0.327047
    17  N   -0.410156
    18  C    0.148945
    19  C   -0.123334
    20  C   -0.064177
    21  C    0.192189
    22  C    0.115280
    23  C    0.004174
    24  O   -0.182446
    25  C    0.028816
    26  N   -0.224503
    27  C   -0.058202
    28  C   -0.004605
    29  C   -0.023561
    30  C    0.054200
    31  C    0.080074
    32  C    0.032012
    33  C    0.007520
    34  N   -0.395867
    35  C    0.131161
    36  C   -0.179693
    37  C   -0.069672
    38  C    0.177605
    39  C    0.127657
    40  C    0.109254
    41  O   -0.138307
    42  C   -0.039338
    43  C    0.196125
    44  O   -0.209937
    45  O   -0.354412
    46  C    0.172876
    47  C    0.280696
    48  C   -0.113631
    49  C   -0.195814
    50  C    0.086917
    51  C    0.067422
    52  C    0.082952
    53  C    0.046987
    54  C   -0.126704
    55  C    0.046738
    56  C    0.071149
    57  C   -0.021843
    58  C    0.073197
    59  C   -0.139758
    60  C    0.050661
    61  C    0.086636
    62  C    0.023551
    63  C    0.051039
    64  C   -0.193625
    65  C    0.076945
    66  C    0.069529
    67  H   -0.022529
    68  H   -0.047784
    69  H   -0.036815
    70  H    0.003985
    71  H   -0.009774
    72  H    0.019152
    73  H    0.030316
    74  H    0.021965
    75  H    0.005646
    76  H    0.047328
    77  H    0.027782
    78  H    0.026067
    79  H    0.018450
    80  H    0.028629
    81  H    0.031833
    82  H    0.029326
    83  H    0.039634
    84  H    0.031775
    85  H    0.012852
    86  H    0.008470
    87  H    0.017205
    88  H    0.021753
    89  H    0.018305
    90  H    0.002984
    91  H   -0.008421
    92  H    0.017371
    93  H    0.018783
    94  H    0.012381
    95  H    0.014565
    96  H    0.045912
    97  H    0.037542
    98  H    0.027335
    99  H    0.026944
   100  H    0.050763
   101  H    0.044071
   102  H    0.044952
   103  H    0.045622
   104  H   -0.001991
   105  H   -0.005716
   106  H    0.032399
   107  H    0.020756
   108  H   -0.007110
   109  H   -0.004080
   110  H    0.000566
   111  H    0.006082
   112  H   -0.027185
   113  H   -0.013173
   114  H   -0.004715
   115  H   -0.003910
   116  H    0.015165
   117  H    0.000445
   118  H   -0.010962
   119  H   -0.008859
   120  H   -0.014196
   121  H   -0.009261
   122  H   -0.001008
   123  H   -0.004668
   124  H    0.001038
   125  H   -0.015021
   126  H    0.000684
   127  H    0.007738
   128  H   -0.019830
   129  H   -0.008972
   130  H   -0.015103
   131  H   -0.001202
   132  H   -0.035602
   133  H   -0.023571
   134  H   -0.009014
   135  H    0.015955
   136  H    0.006869
   137  H    0.008885
   138  H    0.014561
   139  H   -0.016451
   140  H    0.012190
 Sum of Mulliken charges =  -0.00000

 Dipole moment (field-independent basis, Debye):
    X=             -1.4169    Y=              2.7937    Z=              1.3803  Tot=              3.4231
 Quadrupole moment (field-independent basis, Debye-Ang):
   XX=           -386.3041   YY=           -441.9780   ZZ=           -385.8482
   XY=             47.7843   XZ=              7.3288   YZ=             12.0159

 Normal termination of Gaussian 16 at Sat Apr 30 23:43:09 2022.
