 Gaussian 16, Revision A.03,
 Gaussian 16:  ES64L-G16RevA.03 25-Dec-2016

 ---------------------------------
 #p PBE1PBE/Def2SVP td=(nstates=5)
 ---------------------------------

 -----------------------------------------------------
 step_951_chromophore_20 TDDFT with PBE1PBE functional
 -----------------------------------------------------
 Symbolic Z-matrix:
 Charge =  0 Multiplicity = 1

                         Standard orientation:
 ---------------------------------------------------------------------
 Center     Atomic      Atomic             Coordinates (Angstroms)
 Number     Number       Type             X           Y           Z
 ---------------------------------------------------------------------
      1         12           0        4.424376    1.237106   -0.565083
      2          6           0        4.102074   -2.218458   -1.250488
      3          6           0        2.019748    1.831043   -2.849287
      4          6           0        4.105146    4.390946    0.761234
      5          6           0        6.665099    0.492260    1.914169
      6          7           0        3.124907   -0.081854   -1.726363
      7          6           0        3.124674   -1.440801   -1.942751
      8          6           0        2.044253   -1.846313   -2.945007
      9          6           0        1.924124   -0.533867   -3.695056
     10          6           0        2.418010    0.511831   -2.729395
     11          6           0        2.620675   -0.448667   -5.106451
     12          6           0        0.728958   -2.257382   -2.193916
     13          6           0       -0.129151   -3.313689   -2.972605
     14          6           0       -0.800548   -4.402378   -2.235261
     15          8           0       -0.623114   -5.602987   -2.418592
     16          8           0       -1.504998   -3.935521   -1.202981
     17          7           0        3.279213    2.895266   -0.987224
     18          6           0        2.367475    2.968861   -2.064873
     19          6           0        1.801702    4.273991   -2.146143
     20          6           0        2.428439    5.051418   -1.134181
     21          6           0        3.386239    4.138046   -0.426880
     22          6           0        0.818142    4.675071   -3.186007
     23          6           0        2.189246    6.545479   -0.971362
     24          8           0        1.508926    7.184291   -1.733973
     25          6           0        3.060713    7.332559    0.031720
     26          7           0        5.175133    2.286339    1.181104
     27          6           0        5.002314    3.545428    1.443705
     28          6           0        5.726533    3.953376    2.689639
     29          6           0        6.530836    2.701197    3.014789
     30          6           0        6.002622    1.731018    2.076340
     31          6           0        6.539524    5.279766    2.520927
     32          6           0        6.464861    2.237475    4.465109
     33          6           0        7.740470    1.835446    5.115896
     34          7           0        5.423919   -0.384271    0.009018
     35          6           0        6.375395   -0.546186    0.956689
     36          6           0        6.881990   -1.871823    1.005442
     37          6           0        6.004177   -2.536839    0.096293
     38          6           0        5.093648   -1.647679   -0.462684
     39          6           0        8.009348   -2.519918    1.880954
     40          6           0        5.742437   -3.911781   -0.403652
     41          8           0        6.254447   -4.970986   -0.159313
     42          6           0        4.419611   -3.707951   -1.253144
     43          6           0        3.280613   -4.323008   -0.472401
     44          8           0        2.856271   -3.896426    0.580285
     45          8           0        2.920659   -5.558751   -1.031094
     46          6           0        1.832026   -6.327698   -0.383289
     47          6           0       -2.523929   -4.825534   -0.601495
     48          6           0       -3.782388   -4.031588   -0.268731
     49          6           0       -4.832258   -4.395550    0.515036
     50          6           0       -5.030209   -5.748912    1.139323
     51          6           0       -5.824067   -3.291819    0.835352
     52          6           0       -5.432464   -2.493985    2.059647
     53          6           0       -6.324201   -2.909288    3.275889
     54          6           0       -7.095240   -1.786433    3.895278
     55          6           0       -7.565426   -2.062974    5.368358
     56          6           0       -8.242871   -1.273276    3.080378
     57          6           0       -8.168025    0.314682    2.914508
     58          6           0       -7.442201    0.758763    1.642859
     59          6           0       -8.527009    1.196727    0.537653
     60          6           0       -8.081834    0.804382   -0.870691
     61          6           0       -8.923194    2.698967    0.671222
     62          6           0      -10.423158    2.847021    0.666169
     63          6           0      -10.903056    3.897037   -0.205776
     64          6           0      -10.884806    3.512527   -1.728827
     65          6           0       -9.843401    4.255584   -2.538584
     66          6           0      -12.305786    3.433443   -2.322011
     67          1           0        1.223053    1.995711   -3.576894
     68          1           0        3.952573    5.324697    1.306754
     69          1           0        7.469291    0.325796    2.633139
     70          1           0        2.392019   -2.690697   -3.541391
     71          1           0        0.850266   -0.387570   -3.807510
     72          1           0        1.915990   -1.011947   -5.719255
     73          1           0        3.599359   -0.893520   -4.930560
     74          1           0        2.618900    0.557464   -5.526530
     75          1           0        0.030468   -1.420593   -2.183779
     76          1           0        0.769979   -2.510909   -1.134358
     77          1           0        0.472600   -3.865570   -3.694794
     78          1           0       -0.954327   -2.776706   -3.439351
     79          1           0        0.041310    3.914382   -3.261066
     80          1           0        1.260741    4.875633   -4.161418
     81          1           0        0.348484    5.635281   -2.972436
     82          1           0        4.107499    7.040476   -0.049335
     83          1           0        2.820983    7.013466    1.045548
     84          1           0        2.978949    8.398571   -0.177281
     85          1           0        4.865359    4.081155    3.345014
     86          1           0        7.589980    2.888126    2.841463
     87          1           0        7.622508    5.174710    2.593469
     88          1           0        6.150806    5.969905    3.269249
     89          1           0        6.359280    5.653927    1.513317
     90          1           0        5.773249    1.402063    4.576266
     91          1           0        5.972703    2.952997    5.124028
     92          1           0        7.601180    0.780655    5.357052
     93          1           0        7.881238    2.446537    6.006692
     94          1           0        8.644043    1.870147    4.507417
     95          1           0        8.847928   -1.826690    1.957527
     96          1           0        8.249475   -3.399023    1.283462
     97          1           0        7.663582   -2.729847    2.892581
     98          1           0        4.390871   -4.228725   -2.211036
     99          1           0        2.255475   -7.088753    0.273472
    100          1           0        1.395899   -6.896504   -1.205202
    101          1           0        1.110241   -5.752724    0.196080
    102          1           0       -2.174899   -5.262626    0.333784
    103          1           0       -2.722459   -5.589119   -1.354038
    104          1           0       -3.826206   -2.997128   -0.609495
    105          1           0       -4.087951   -6.259967    0.941048
    106          1           0       -5.812732   -6.420839    0.785289
    107          1           0       -5.186809   -5.672748    2.215241
    108          1           0       -6.796328   -3.779946    0.907165
    109          1           0       -6.066355   -2.700001   -0.047208
    110          1           0       -5.476984   -1.425877    1.849076
    111          1           0       -4.400734   -2.601096    2.395107
    112          1           0       -5.714986   -3.273828    4.102569
    113          1           0       -6.955395   -3.796349    3.222692
    114          1           0       -6.397302   -0.959172    4.018854
    115          1           0       -7.214595   -3.012185    5.773556
    116          1           0       -8.628112   -1.955968    5.585044
    117          1           0       -6.983381   -1.345613    5.946286
    118          1           0       -9.197118   -1.364084    3.599100
    119          1           0       -8.350721   -1.760862    2.111755
    120          1           0       -7.678724    0.789070    3.764820
    121          1           0       -9.172180    0.729583    2.998223
    122          1           0       -6.825723   -0.017169    1.189425
    123          1           0       -6.872932    1.637045    1.944624
    124          1           0       -9.444559    0.624828    0.675776
    125          1           0       -7.205323    0.156918   -0.851477
    126          1           0       -7.759770    1.644802   -1.484459
    127          1           0       -8.781714    0.185948   -1.432300
    128          1           0       -8.483310    3.262858   -0.151103
    129          1           0       -8.530734    3.228254    1.539528
    130          1           0      -10.672414    3.019099    1.713497
    131          1           0      -11.038701    1.989448    0.394965
    132          1           0      -10.317590    4.810567   -0.095646
    133          1           0      -11.823957    4.334655    0.180097
    134          1           0      -10.583837    2.467547   -1.795485
    135          1           0       -9.669210    3.633259   -3.416722
    136          1           0       -8.941140    4.364873   -1.937167
    137          1           0      -10.282369    5.242198   -2.685308
    138          1           0      -12.569456    2.416882   -2.613544
    139          1           0      -12.214260    3.999553   -3.249887
    140          1           0      -13.018645    3.981391   -1.705185
 ---------------------------------------------------------------------

 SCF Done:  E(RPBE1PBE) =  -3005.35336354     A.U. after   16 cycles

 Excitation energies and oscillator strengths:

 Excited State   1:      Singlet-A      1.8642 eV  665.09 nm  f=0.3340  <S**2>=0.000
     245 -> 248       -0.19179
     246 -> 247        0.68687
 This state for optimization and/or second-order correction.
 Total Energy, E(TD-HF/TD-DFT) =  -3005.28485699
 Copying the excited state density for this state as the 1-particle RhoCI density.

 Excited State   2:      Singlet-A      2.2202 eV  558.45 nm  f=0.1026  <S**2>=0.000
     245 -> 247        0.64377
     246 -> 248        0.28194

 Excited State   3:      Singlet-A      3.0054 eV  412.54 nm  f=0.0009  <S**2>=0.000
     241 -> 247       -0.16161
     242 -> 247       -0.40007
     243 -> 247        0.53446

 Excited State   4:      Singlet-A      3.0659 eV  404.39 nm  f=0.0011  <S**2>=0.000
     240 -> 247        0.11639
     241 -> 247        0.25697
     242 -> 247        0.44804
     243 -> 247        0.44802

 Excited State   5:      Singlet-A      3.1338 eV  395.64 nm  f=0.0035  <S**2>=0.000
     240 -> 247       -0.21389
     240 -> 249       -0.11987
     241 -> 247        0.58749
     242 -> 247       -0.26395

 The electronic state is 1-A.
 Alpha  occ. eigenvalues --  -46.90993 -19.25874 -19.24582 -19.19861 -19.19695
 Alpha  occ. eigenvalues --  -19.19625 -19.19109 -14.41694 -14.40915 -14.39369
 Alpha  occ. eigenvalues --  -14.38538 -10.36042 -10.35838 -10.32535 -10.32161
 Alpha  occ. eigenvalues --  -10.30141 -10.29206 -10.28680 -10.28327 -10.27997
 Alpha  occ. eigenvalues --  -10.27633 -10.27603 -10.27541 -10.27125 -10.26687
 Alpha  occ. eigenvalues --  -10.26227 -10.26114 -10.25915 -10.25643 -10.25586
 Alpha  occ. eigenvalues --  -10.25431 -10.25331 -10.25329 -10.25016 -10.24872
 Alpha  occ. eigenvalues --  -10.24862 -10.24679 -10.24562 -10.24509 -10.24495
 Alpha  occ. eigenvalues --  -10.24428 -10.24125 -10.23910 -10.23640 -10.23544
 Alpha  occ. eigenvalues --  -10.23292 -10.23215 -10.23170 -10.23079 -10.22955
 Alpha  occ. eigenvalues --  -10.22786 -10.22730 -10.22694 -10.22600 -10.22580
 Alpha  occ. eigenvalues --  -10.22267 -10.22185 -10.22171 -10.21950 -10.21856
 Alpha  occ. eigenvalues --  -10.21783 -10.21753 -10.21543 -10.21504 -10.21160
 Alpha  occ. eigenvalues --  -10.21131  -3.13343  -1.86159  -1.85733  -1.85579
 Alpha  occ. eigenvalues --   -1.12140  -1.09362  -1.05899  -1.05719  -1.02293
 Alpha  occ. eigenvalues --   -1.01750  -1.01223  -0.99062  -0.97831  -0.96605
 Alpha  occ. eigenvalues --   -0.87105  -0.85142  -0.84782  -0.84457  -0.84286
 Alpha  occ. eigenvalues --   -0.83347  -0.83118  -0.82037  -0.81338  -0.80900
 Alpha  occ. eigenvalues --   -0.80362  -0.79649  -0.78599  -0.78339  -0.77785
 Alpha  occ. eigenvalues --   -0.77203  -0.76248  -0.75472  -0.74656  -0.74567
 Alpha  occ. eigenvalues --   -0.74253  -0.72779  -0.72163  -0.71349  -0.70598
 Alpha  occ. eigenvalues --   -0.70047  -0.69821  -0.69785  -0.69072  -0.68373
 Alpha  occ. eigenvalues --   -0.67877  -0.67189  -0.66518  -0.65720  -0.63863
 Alpha  occ. eigenvalues --   -0.63116  -0.62615  -0.61777  -0.61242  -0.60906
 Alpha  occ. eigenvalues --   -0.60109  -0.59879  -0.59252  -0.58710  -0.58373
 Alpha  occ. eigenvalues --   -0.58313  -0.57151  -0.56539  -0.55815  -0.54986
 Alpha  occ. eigenvalues --   -0.54489  -0.54149  -0.53880  -0.53517  -0.52669
 Alpha  occ. eigenvalues --   -0.52157  -0.51590  -0.51036  -0.50389  -0.50354
 Alpha  occ. eigenvalues --   -0.50097  -0.49515  -0.48918  -0.48621  -0.48259
 Alpha  occ. eigenvalues --   -0.48132  -0.47955  -0.47654  -0.47372  -0.47177
 Alpha  occ. eigenvalues --   -0.46866  -0.46854  -0.46746  -0.46409  -0.45921
 Alpha  occ. eigenvalues --   -0.45843  -0.45544  -0.45452  -0.45332  -0.45217
 Alpha  occ. eigenvalues --   -0.44950  -0.44680  -0.44395  -0.44231  -0.44058
 Alpha  occ. eigenvalues --   -0.43994  -0.43854  -0.43751  -0.43612  -0.43595
 Alpha  occ. eigenvalues --   -0.43337  -0.43049  -0.42889  -0.42796  -0.42444
 Alpha  occ. eigenvalues --   -0.42126  -0.41958  -0.41650  -0.41557  -0.41414
 Alpha  occ. eigenvalues --   -0.41146  -0.41108  -0.40917  -0.40877  -0.40717
 Alpha  occ. eigenvalues --   -0.40515  -0.40458  -0.40200  -0.39906  -0.39642
 Alpha  occ. eigenvalues --   -0.39448  -0.39336  -0.39283  -0.39193  -0.38847
 Alpha  occ. eigenvalues --   -0.38770  -0.38665  -0.38605  -0.38354  -0.38233
 Alpha  occ. eigenvalues --   -0.37947  -0.37795  -0.37500  -0.37441  -0.37348
 Alpha  occ. eigenvalues --   -0.37068  -0.37028  -0.36754  -0.36454  -0.36286
 Alpha  occ. eigenvalues --   -0.35871  -0.35707  -0.35649  -0.35394  -0.35302
 Alpha  occ. eigenvalues --   -0.35062  -0.34967  -0.34104  -0.33883  -0.33630
 Alpha  occ. eigenvalues --   -0.33499  -0.32999  -0.32833  -0.32032  -0.31967
 Alpha  occ. eigenvalues --   -0.31759  -0.31678  -0.31306  -0.31036  -0.30559
 Alpha  occ. eigenvalues --   -0.30391  -0.30371  -0.29815  -0.29616  -0.28835
 Alpha  occ. eigenvalues --   -0.28689  -0.28560  -0.28427  -0.26847  -0.25989
 Alpha  occ. eigenvalues --   -0.25696  -0.25319  -0.25166  -0.25082  -0.20858
 Alpha  occ. eigenvalues --   -0.18882
 Alpha virt. eigenvalues --   -0.11093  -0.05556  -0.03809  -0.01719  -0.00097
 Alpha virt. eigenvalues --    0.00150   0.00642   0.00953   0.01261   0.02738
 Alpha virt. eigenvalues --    0.04064   0.04484   0.05203   0.05611   0.06139

 Mulliken charges:
               1
     1  Mg   0.999189
     2  C   -0.057125
     3  C   -0.084422
     4  C   -0.077696
     5  C   -0.078718
     6  N   -0.386143
     7  C    0.031187
     8  C   -0.077976
     9  C   -0.158868
    10  C    0.112282
    11  C    0.045464
    12  C    0.022624
    13  C   -0.002391
    14  C    0.189029
    15  O   -0.277180
    16  O   -0.358290
    17  N   -0.521209
    18  C    0.167011
    19  C   -0.149572
    20  C   -0.109357
    21  C    0.220454
    22  C    0.058165
    23  C    0.057597
    24  O   -0.220158
    25  C   -0.050593
    26  N   -0.338665
    27  C   -0.011415
    28  C   -0.085736
    29  C   -0.119178
    30  C    0.103045
    31  C    0.022332
    32  C   -0.017006
    33  C   -0.065485
    34  N   -0.527785
    35  C    0.148025
    36  C   -0.182224
    37  C   -0.120132
    38  C    0.224933
    39  C    0.069803
    40  C    0.197196
    41  O   -0.184274
    42  C   -0.145700
    43  C    0.294029
    44  O   -0.242704
    45  O   -0.387911
    46  C    0.119279
    47  C    0.242374
    48  C   -0.120834
    49  C   -0.243030
    50  C    0.025148
    51  C    0.000373
    52  C    0.019675
    53  C   -0.007455
    54  C   -0.215082
    55  C   -0.010108
    56  C    0.018370
    57  C   -0.084118
    58  C    0.011347
    59  C   -0.224975
    60  C   -0.006531
    61  C    0.037058
    62  C   -0.046736
    63  C   -0.004374
    64  C   -0.281097
    65  C    0.007348
    66  C    0.009065
    67  H    0.007208
    68  H   -0.013835
    69  H   -0.001371
    70  H    0.041026
    71  H    0.027853
    72  H    0.047697
    73  H    0.057834
    74  H    0.049877
    75  H    0.038332
    76  H    0.078429
    77  H    0.058449
    78  H    0.058504
    79  H    0.044578
    80  H    0.055823
    81  H    0.059222
    82  H    0.057493
    83  H    0.065818
    84  H    0.059124
    85  H    0.050323
    86  H    0.047032
    87  H    0.043663
    88  H    0.048781
    89  H    0.046942
    90  H    0.035767
    91  H    0.024778
    92  H    0.044181
    93  H    0.046988
    94  H    0.038331
    95  H    0.042667
    96  H    0.073964
    97  H    0.065525
    98  H    0.062922
    99  H    0.049666
   100  H    0.072625
   101  H    0.064922
   102  H    0.069307
   103  H    0.071221
   104  H    0.027729
   105  H    0.022895
   106  H    0.059027
   107  H    0.048943
   108  H    0.025709
   109  H    0.027908
   110  H    0.033065
   111  H    0.038756
   112  H    0.007137
   113  H    0.018241
   114  H    0.034586
   115  H    0.023092
   116  H    0.041025
   117  H    0.028047
   118  H    0.022217
   119  H    0.025102
   120  H    0.018125
   121  H    0.023467
   122  H    0.034138
   123  H    0.028513
   124  H    0.039146
   125  H    0.012769
   126  H    0.027849
   127  H    0.033774
   128  H    0.015254
   129  H    0.022613
   130  H    0.018545
   131  H    0.031145
   132  H   -0.000877
   133  H    0.008261
   134  H    0.033064
   135  H    0.043606
   136  H    0.035233
   137  H    0.037485
   138  H    0.041221
   139  H    0.012422
   140  H    0.038947
 Sum of Mulliken charges =  -0.00000

 Dipole moment (field-independent basis, Debye):
    X=             -1.1894    Y=              2.5145    Z=              1.6073  Tot=              3.2126
 Quadrupole moment (field-independent basis, Debye-Ang):
   XX=           -380.8243   YY=           -440.0252   ZZ=           -381.8531
   XY=             46.8938   XZ=              8.9341   YZ=             12.5811

 Normal termination of Gaussian 16 at Sun May  1 00:02:30 2022.
