 Gaussian 16, Revision A.03,
 Gaussian 16:  ES64L-G16RevA.03 25-Dec-2016

 --------------------------------
 #p wB97XD/Def2SVP td=(nstates=5)
 --------------------------------

 ----------------------------------------------------
 step_951_chromophore_20 TDDFT with wB97XD functional
 ----------------------------------------------------
 Symbolic Z-matrix:
 Charge =  0 Multiplicity = 1

                         Standard orientation:
 ---------------------------------------------------------------------
 Center     Atomic      Atomic             Coordinates (Angstroms)
 Number     Number       Type             X           Y           Z
 ---------------------------------------------------------------------
      1         12           0        4.424376    1.237106   -0.565083
      2          6           0        4.102074   -2.218458   -1.250488
      3          6           0        2.019748    1.831043   -2.849287
      4          6           0        4.105146    4.390946    0.761234
      5          6           0        6.665099    0.492260    1.914169
      6          7           0        3.124907   -0.081854   -1.726363
      7          6           0        3.124674   -1.440801   -1.942751
      8          6           0        2.044253   -1.846313   -2.945007
      9          6           0        1.924124   -0.533867   -3.695056
     10          6           0        2.418010    0.511831   -2.729395
     11          6           0        2.620675   -0.448667   -5.106451
     12          6           0        0.728958   -2.257382   -2.193916
     13          6           0       -0.129151   -3.313689   -2.972605
     14          6           0       -0.800548   -4.402378   -2.235261
     15          8           0       -0.623114   -5.602987   -2.418592
     16          8           0       -1.504998   -3.935521   -1.202981
     17          7           0        3.279213    2.895266   -0.987224
     18          6           0        2.367475    2.968861   -2.064873
     19          6           0        1.801702    4.273991   -2.146143
     20          6           0        2.428439    5.051418   -1.134181
     21          6           0        3.386239    4.138046   -0.426880
     22          6           0        0.818142    4.675071   -3.186007
     23          6           0        2.189246    6.545479   -0.971362
     24          8           0        1.508926    7.184291   -1.733973
     25          6           0        3.060713    7.332559    0.031720
     26          7           0        5.175133    2.286339    1.181104
     27          6           0        5.002314    3.545428    1.443705
     28          6           0        5.726533    3.953376    2.689639
     29          6           0        6.530836    2.701197    3.014789
     30          6           0        6.002622    1.731018    2.076340
     31          6           0        6.539524    5.279766    2.520927
     32          6           0        6.464861    2.237475    4.465109
     33          6           0        7.740470    1.835446    5.115896
     34          7           0        5.423919   -0.384271    0.009018
     35          6           0        6.375395   -0.546186    0.956689
     36          6           0        6.881990   -1.871823    1.005442
     37          6           0        6.004177   -2.536839    0.096293
     38          6           0        5.093648   -1.647679   -0.462684
     39          6           0        8.009348   -2.519918    1.880954
     40          6           0        5.742437   -3.911781   -0.403652
     41          8           0        6.254447   -4.970986   -0.159313
     42          6           0        4.419611   -3.707951   -1.253144
     43          6           0        3.280613   -4.323008   -0.472401
     44          8           0        2.856271   -3.896426    0.580285
     45          8           0        2.920659   -5.558751   -1.031094
     46          6           0        1.832026   -6.327698   -0.383289
     47          6           0       -2.523929   -4.825534   -0.601495
     48          6           0       -3.782388   -4.031588   -0.268731
     49          6           0       -4.832258   -4.395550    0.515036
     50          6           0       -5.030209   -5.748912    1.139323
     51          6           0       -5.824067   -3.291819    0.835352
     52          6           0       -5.432464   -2.493985    2.059647
     53          6           0       -6.324201   -2.909288    3.275889
     54          6           0       -7.095240   -1.786433    3.895278
     55          6           0       -7.565426   -2.062974    5.368358
     56          6           0       -8.242871   -1.273276    3.080378
     57          6           0       -8.168025    0.314682    2.914508
     58          6           0       -7.442201    0.758763    1.642859
     59          6           0       -8.527009    1.196727    0.537653
     60          6           0       -8.081834    0.804382   -0.870691
     61          6           0       -8.923194    2.698967    0.671222
     62          6           0      -10.423158    2.847021    0.666169
     63          6           0      -10.903056    3.897037   -0.205776
     64          6           0      -10.884806    3.512527   -1.728827
     65          6           0       -9.843401    4.255584   -2.538584
     66          6           0      -12.305786    3.433443   -2.322011
     67          1           0        1.223053    1.995711   -3.576894
     68          1           0        3.952573    5.324697    1.306754
     69          1           0        7.469291    0.325796    2.633139
     70          1           0        2.392019   -2.690697   -3.541391
     71          1           0        0.850266   -0.387570   -3.807510
     72          1           0        1.915990   -1.011947   -5.719255
     73          1           0        3.599359   -0.893520   -4.930560
     74          1           0        2.618900    0.557464   -5.526530
     75          1           0        0.030468   -1.420593   -2.183779
     76          1           0        0.769979   -2.510909   -1.134358
     77          1           0        0.472600   -3.865570   -3.694794
     78          1           0       -0.954327   -2.776706   -3.439351
     79          1           0        0.041310    3.914382   -3.261066
     80          1           0        1.260741    4.875633   -4.161418
     81          1           0        0.348484    5.635281   -2.972436
     82          1           0        4.107499    7.040476   -0.049335
     83          1           0        2.820983    7.013466    1.045548
     84          1           0        2.978949    8.398571   -0.177281
     85          1           0        4.865359    4.081155    3.345014
     86          1           0        7.589980    2.888126    2.841463
     87          1           0        7.622508    5.174710    2.593469
     88          1           0        6.150806    5.969905    3.269249
     89          1           0        6.359280    5.653927    1.513317
     90          1           0        5.773249    1.402063    4.576266
     91          1           0        5.972703    2.952997    5.124028
     92          1           0        7.601180    0.780655    5.357052
     93          1           0        7.881238    2.446537    6.006692
     94          1           0        8.644043    1.870147    4.507417
     95          1           0        8.847928   -1.826690    1.957527
     96          1           0        8.249475   -3.399023    1.283462
     97          1           0        7.663582   -2.729847    2.892581
     98          1           0        4.390871   -4.228725   -2.211036
     99          1           0        2.255475   -7.088753    0.273472
    100          1           0        1.395899   -6.896504   -1.205202
    101          1           0        1.110241   -5.752724    0.196080
    102          1           0       -2.174899   -5.262626    0.333784
    103          1           0       -2.722459   -5.589119   -1.354038
    104          1           0       -3.826206   -2.997128   -0.609495
    105          1           0       -4.087951   -6.259967    0.941048
    106          1           0       -5.812732   -6.420839    0.785289
    107          1           0       -5.186809   -5.672748    2.215241
    108          1           0       -6.796328   -3.779946    0.907165
    109          1           0       -6.066355   -2.700001   -0.047208
    110          1           0       -5.476984   -1.425877    1.849076
    111          1           0       -4.400734   -2.601096    2.395107
    112          1           0       -5.714986   -3.273828    4.102569
    113          1           0       -6.955395   -3.796349    3.222692
    114          1           0       -6.397302   -0.959172    4.018854
    115          1           0       -7.214595   -3.012185    5.773556
    116          1           0       -8.628112   -1.955968    5.585044
    117          1           0       -6.983381   -1.345613    5.946286
    118          1           0       -9.197118   -1.364084    3.599100
    119          1           0       -8.350721   -1.760862    2.111755
    120          1           0       -7.678724    0.789070    3.764820
    121          1           0       -9.172180    0.729583    2.998223
    122          1           0       -6.825723   -0.017169    1.189425
    123          1           0       -6.872932    1.637045    1.944624
    124          1           0       -9.444559    0.624828    0.675776
    125          1           0       -7.205323    0.156918   -0.851477
    126          1           0       -7.759770    1.644802   -1.484459
    127          1           0       -8.781714    0.185948   -1.432300
    128          1           0       -8.483310    3.262858   -0.151103
    129          1           0       -8.530734    3.228254    1.539528
    130          1           0      -10.672414    3.019099    1.713497
    131          1           0      -11.038701    1.989448    0.394965
    132          1           0      -10.317590    4.810567   -0.095646
    133          1           0      -11.823957    4.334655    0.180097
    134          1           0      -10.583837    2.467547   -1.795485
    135          1           0       -9.669210    3.633259   -3.416722
    136          1           0       -8.941140    4.364873   -1.937167
    137          1           0      -10.282369    5.242198   -2.685308
    138          1           0      -12.569456    2.416882   -2.613544
    139          1           0      -12.214260    3.999553   -3.249887
    140          1           0      -13.018645    3.981391   -1.705185
 ---------------------------------------------------------------------

 SCF Done:  E(RwB97XD) =  -3007.86395156     A.U. after   19 cycles

 Excitation energies and oscillator strengths:

 Excited State   1:      Singlet-A      1.6725 eV  741.29 nm  f=0.3468  <S**2>=0.000
     245 -> 248        0.19975
     246 -> 247        0.67962
     245 <- 248        0.11982
 This state for optimization and/or second-order correction.
 Total Energy, E(TD-HF/TD-DFT) =  -3007.80248677
 Copying the excited state density for this state as the 1-particle RhoCI density.

 Excited State   2:      Singlet-A      2.1617 eV  573.55 nm  f=0.0998  <S**2>=0.000
     245 -> 247        0.62989
     246 -> 248       -0.30676

 Excited State   3:      Singlet-A      3.3868 eV  366.08 nm  f=0.0327  <S**2>=0.000
     242 -> 247        0.54327
     244 -> 247       -0.37229
     246 -> 248       -0.17669

 Excited State   4:      Singlet-A      3.4661 eV  357.70 nm  f=0.2439  <S**2>=0.000
     242 -> 247        0.15877
     244 -> 247        0.47302
     245 -> 247       -0.16959
     246 -> 248       -0.44514

 Excited State   5:      Singlet-A      3.5824 eV  346.09 nm  f=0.2261  <S**2>=0.000
     240 -> 247        0.32789
     240 -> 249       -0.15506
     240 -> 250       -0.17230
     241 -> 247       -0.25061
     241 -> 249        0.16344
     241 -> 250        0.10608
     242 -> 247        0.23573
     244 -> 247        0.20854
     245 -> 247        0.16484
     246 -> 248        0.26688

 The electronic state is 1-A.
 Alpha  occ. eigenvalues --  -46.93937 -19.30422 -19.29088 -19.24528 -19.24361
 Alpha  occ. eigenvalues --  -19.24253 -19.24095 -14.46832 -14.45975 -14.44423
 Alpha  occ. eigenvalues --  -14.43355 -10.42803 -10.42605 -10.39254 -10.39161
 Alpha  occ. eigenvalues --  -10.36641 -10.35324 -10.35311 -10.34819 -10.34463
 Alpha  occ. eigenvalues --  -10.34282 -10.34017 -10.33722 -10.33170 -10.32917
 Alpha  occ. eigenvalues --  -10.32408 -10.32375 -10.32291 -10.32236 -10.31932
 Alpha  occ. eigenvalues --  -10.31728 -10.31582 -10.31476 -10.31422 -10.31385
 Alpha  occ. eigenvalues --  -10.31235 -10.31221 -10.30933 -10.30857 -10.30829
 Alpha  occ. eigenvalues --  -10.30672 -10.30543 -10.30177 -10.30108 -10.29938
 Alpha  occ. eigenvalues --  -10.29767 -10.29601 -10.29524 -10.29457 -10.29366
 Alpha  occ. eigenvalues --  -10.29342 -10.29060 -10.28897 -10.28870 -10.28861
 Alpha  occ. eigenvalues --  -10.28644 -10.28562 -10.28540 -10.28323 -10.28245
 Alpha  occ. eigenvalues --  -10.28240 -10.28171 -10.27975 -10.27948 -10.27543
 Alpha  occ. eigenvalues --  -10.27506  -3.20123  -1.93692  -1.93267  -1.93108
 Alpha  occ. eigenvalues --   -1.19491  -1.16723  -1.13360  -1.13226  -1.09607
 Alpha  occ. eigenvalues --   -1.09066  -1.08558  -1.06459  -1.05034  -1.04186
 Alpha  occ. eigenvalues --   -0.94616  -0.92820  -0.92289  -0.92093  -0.91930
 Alpha  occ. eigenvalues --   -0.91012  -0.90791  -0.89664  -0.89009  -0.88651
 Alpha  occ. eigenvalues --   -0.88080  -0.87114  -0.86239  -0.85936  -0.85409
 Alpha  occ. eigenvalues --   -0.84865  -0.83919  -0.83193  -0.82371  -0.82162
 Alpha  occ. eigenvalues --   -0.81914  -0.80391  -0.79712  -0.79160  -0.78283
 Alpha  occ. eigenvalues --   -0.77615  -0.77497  -0.77426  -0.76758  -0.76044
 Alpha  occ. eigenvalues --   -0.75447  -0.74708  -0.74071  -0.73327  -0.71381
 Alpha  occ. eigenvalues --   -0.70645  -0.70248  -0.69341  -0.68893  -0.68369
 Alpha  occ. eigenvalues --   -0.67573  -0.67547  -0.66777  -0.66119  -0.66059
 Alpha  occ. eigenvalues --   -0.65776  -0.64819  -0.64182  -0.63189  -0.62443
 Alpha  occ. eigenvalues --   -0.61970  -0.61634  -0.61278  -0.60842  -0.60078
 Alpha  occ. eigenvalues --   -0.59655  -0.59048  -0.58577  -0.57792  -0.57708
 Alpha  occ. eigenvalues --   -0.57427  -0.56910  -0.56261  -0.56041  -0.55755
 Alpha  occ. eigenvalues --   -0.55548  -0.55261  -0.55022  -0.54658  -0.54560
 Alpha  occ. eigenvalues --   -0.54251  -0.54194  -0.54152  -0.53791  -0.53472
 Alpha  occ. eigenvalues --   -0.53202  -0.52936  -0.52769  -0.52705  -0.52497
 Alpha  occ. eigenvalues --   -0.52239  -0.52017  -0.51770  -0.51608  -0.51580
 Alpha  occ. eigenvalues --   -0.51329  -0.51163  -0.51068  -0.50957  -0.50842
 Alpha  occ. eigenvalues --   -0.50612  -0.50267  -0.50183  -0.50051  -0.49697
 Alpha  occ. eigenvalues --   -0.49417  -0.49219  -0.48997  -0.48777  -0.48605
 Alpha  occ. eigenvalues --   -0.48438  -0.48418  -0.48141  -0.48059  -0.47934
 Alpha  occ. eigenvalues --   -0.47787  -0.47692  -0.47284  -0.47153  -0.46841
 Alpha  occ. eigenvalues --   -0.46636  -0.46552  -0.46465  -0.46354  -0.45949
 Alpha  occ. eigenvalues --   -0.45944  -0.45869  -0.45814  -0.45456  -0.45301
 Alpha  occ. eigenvalues --   -0.44943  -0.44884  -0.44660  -0.44534  -0.44472
 Alpha  occ. eigenvalues --   -0.44264  -0.44135  -0.43800  -0.43558  -0.43312
 Alpha  occ. eigenvalues --   -0.42914  -0.42772  -0.42728  -0.42457  -0.42239
 Alpha  occ. eigenvalues --   -0.42104  -0.42006  -0.41202  -0.40923  -0.40591
 Alpha  occ. eigenvalues --   -0.40537  -0.40074  -0.39778  -0.39048  -0.38937
 Alpha  occ. eigenvalues --   -0.38795  -0.38708  -0.38397  -0.38052  -0.37568
 Alpha  occ. eigenvalues --   -0.37405  -0.37353  -0.36609  -0.36592  -0.35823
 Alpha  occ. eigenvalues --   -0.35699  -0.35456  -0.35267  -0.33475  -0.32952
 Alpha  occ. eigenvalues --   -0.32748  -0.32161  -0.31824  -0.31576  -0.25836
 Alpha  occ. eigenvalues --   -0.23098
 Alpha virt. eigenvalues --   -0.06919  -0.00172   0.02530   0.04797   0.05719
 Alpha virt. eigenvalues --    0.06928   0.07331   0.07777   0.08056   0.09226
 Alpha virt. eigenvalues --    0.10864   0.11105   0.11875   0.12368   0.12789

 Mulliken charges:
               1
     1  Mg   0.987970
     2  C   -0.048769
     3  C   -0.106038
     4  C   -0.095149
     5  C   -0.095114
     6  N   -0.352330
     7  C   -0.011093
     8  C   -0.052867
     9  C   -0.125900
    10  C    0.101240
    11  C    0.055476
    12  C    0.028197
    13  C    0.015601
    14  C    0.174682
    15  O   -0.273535
    16  O   -0.356648
    17  N   -0.492266
    18  C    0.163338
    19  C   -0.139677
    20  C   -0.104941
    21  C    0.217667
    22  C    0.068514
    23  C    0.052145
    24  O   -0.214520
    25  C   -0.032538
    26  N   -0.299995
    27  C   -0.020763
    28  C   -0.063594
    29  C   -0.082709
    30  C    0.085269
    31  C    0.034203
    32  C   -0.008198
    33  C   -0.051574
    34  N   -0.490176
    35  C    0.140254
    36  C   -0.187859
    37  C   -0.114240
    38  C    0.206323
    39  C    0.085014
    40  C    0.179197
    41  O   -0.175636
    42  C   -0.109158
    43  C    0.267695
    44  O   -0.237952
    45  O   -0.386147
    46  C    0.132391
    47  C    0.254953
    48  C   -0.132393
    49  C   -0.226956
    50  C    0.039196
    51  C    0.021971
    52  C    0.033654
    53  C    0.007419
    54  C   -0.180692
    55  C   -0.000479
    56  C    0.030304
    57  C   -0.064378
    58  C    0.037378
    59  C   -0.193189
    60  C    0.005924
    61  C    0.049147
    62  C   -0.025861
    63  C    0.012176
    64  C   -0.250741
    65  C    0.022724
    66  C    0.020411
    67  H    0.001949
    68  H   -0.025885
    69  H   -0.010698
    70  H    0.030070
    71  H    0.015553
    72  H    0.041947
    73  H    0.052004
    74  H    0.044440
    75  H    0.029718
    76  H    0.072426
    77  H    0.052266
    78  H    0.052260
    79  H    0.040064
    80  H    0.052905
    81  H    0.056398
    82  H    0.049122
    83  H    0.060496
    84  H    0.058687
    85  H    0.040188
    86  H    0.032575
    87  H    0.039775
    88  H    0.043885
    89  H    0.038139
    90  H    0.027622
    91  H    0.016738
    92  H    0.038711
    93  H    0.042220
    94  H    0.032275
    95  H    0.036043
    96  H    0.068619
    97  H    0.060123
    98  H    0.058930
    99  H    0.046176
   100  H    0.069855
   101  H    0.061305
   102  H    0.064177
   103  H    0.066968
   104  H    0.024790
   105  H    0.015555
   106  H    0.055135
   107  H    0.042354
   108  H    0.015472
   109  H    0.020830
   110  H    0.024748
   111  H    0.031844
   112  H   -0.002341
   113  H    0.008331
   114  H    0.018628
   115  H    0.017358
   116  H    0.035964
   117  H    0.022371
   118  H    0.013444
   119  H    0.014329
   120  H    0.009312
   121  H    0.013523
   122  H    0.011008
   123  H    0.020553
   124  H    0.023264
   125  H    0.006949
   126  H    0.020666
   127  H    0.029094
   128  H   -0.001694
   129  H    0.015904
   130  H    0.011507
   131  H    0.020080
   132  H   -0.011713
   133  H    0.001272
   134  H    0.014644
   135  H    0.038789
   136  H    0.027654
   137  H    0.030748
   138  H    0.037041
   139  H    0.005162
   140  H    0.033020
 Sum of Mulliken charges =  -0.00000

 Dipole moment (field-independent basis, Debye):
    X=             -1.4760    Y=              2.9634    Z=              1.3748  Tot=              3.5847
 Quadrupole moment (field-independent basis, Debye-Ang):
   XX=           -382.7290   YY=           -437.6611   ZZ=           -381.5421
   XY=             48.2913   XZ=              7.8877   YZ=             11.8112

 Normal termination of Gaussian 16 at Sun May  1 00:31:19 2022.
