 Gaussian 16, Revision A.03,
 Gaussian 16:  ES64L-G16RevA.03 25-Dec-2016

 --------------------
 #p ZINDO=(nstates=5)
 --------------------

 -----------------------------
 step_951_chromophore_20 ZINDO
 -----------------------------
 Symbolic Z-matrix:
 Charge =  0 Multiplicity = 1

                         Standard orientation:
 ---------------------------------------------------------------------
 Center     Atomic      Atomic             Coordinates (Angstroms)
 Number     Number       Type             X           Y           Z
 ---------------------------------------------------------------------
      1         12           0        4.424376    1.237106   -0.565083
      2          6           0        4.102074   -2.218458   -1.250488
      3          6           0        2.019748    1.831043   -2.849287
      4          6           0        4.105146    4.390946    0.761234
      5          6           0        6.665099    0.492260    1.914169
      6          7           0        3.124907   -0.081854   -1.726363
      7          6           0        3.124674   -1.440801   -1.942751
      8          6           0        2.044253   -1.846313   -2.945007
      9          6           0        1.924124   -0.533867   -3.695056
     10          6           0        2.418010    0.511831   -2.729395
     11          6           0        2.620675   -0.448667   -5.106451
     12          6           0        0.728958   -2.257382   -2.193916
     13          6           0       -0.129151   -3.313689   -2.972605
     14          6           0       -0.800548   -4.402378   -2.235261
     15          8           0       -0.623114   -5.602987   -2.418592
     16          8           0       -1.504998   -3.935521   -1.202981
     17          7           0        3.279213    2.895266   -0.987224
     18          6           0        2.367475    2.968861   -2.064873
     19          6           0        1.801702    4.273991   -2.146143
     20          6           0        2.428439    5.051418   -1.134181
     21          6           0        3.386239    4.138046   -0.426880
     22          6           0        0.818142    4.675071   -3.186007
     23          6           0        2.189246    6.545479   -0.971362
     24          8           0        1.508926    7.184291   -1.733973
     25          6           0        3.060713    7.332559    0.031720
     26          7           0        5.175133    2.286339    1.181104
     27          6           0        5.002314    3.545428    1.443705
     28          6           0        5.726533    3.953376    2.689639
     29          6           0        6.530836    2.701197    3.014789
     30          6           0        6.002622    1.731018    2.076340
     31          6           0        6.539524    5.279766    2.520927
     32          6           0        6.464861    2.237475    4.465109
     33          6           0        7.740470    1.835446    5.115896
     34          7           0        5.423919   -0.384271    0.009018
     35          6           0        6.375395   -0.546186    0.956689
     36          6           0        6.881990   -1.871823    1.005442
     37          6           0        6.004177   -2.536839    0.096293
     38          6           0        5.093648   -1.647679   -0.462684
     39          6           0        8.009348   -2.519918    1.880954
     40          6           0        5.742437   -3.911781   -0.403652
     41          8           0        6.254447   -4.970986   -0.159313
     42          6           0        4.419611   -3.707951   -1.253144
     43          6           0        3.280613   -4.323008   -0.472401
     44          8           0        2.856271   -3.896426    0.580285
     45          8           0        2.920659   -5.558751   -1.031094
     46          6           0        1.832026   -6.327698   -0.383289
     47          6           0       -2.523929   -4.825534   -0.601495
     48          6           0       -3.782388   -4.031588   -0.268731
     49          6           0       -4.832258   -4.395550    0.515036
     50          6           0       -5.030209   -5.748912    1.139323
     51          6           0       -5.824067   -3.291819    0.835352
     52          6           0       -5.432464   -2.493985    2.059647
     53          6           0       -6.324201   -2.909288    3.275889
     54          6           0       -7.095240   -1.786433    3.895278
     55          6           0       -7.565426   -2.062974    5.368358
     56          6           0       -8.242871   -1.273276    3.080378
     57          6           0       -8.168025    0.314682    2.914508
     58          6           0       -7.442201    0.758763    1.642859
     59          6           0       -8.527009    1.196727    0.537653
     60          6           0       -8.081834    0.804382   -0.870691
     61          6           0       -8.923194    2.698967    0.671222
     62          6           0      -10.423158    2.847021    0.666169
     63          6           0      -10.903056    3.897037   -0.205776
     64          6           0      -10.884806    3.512527   -1.728827
     65          6           0       -9.843401    4.255584   -2.538584
     66          6           0      -12.305786    3.433443   -2.322011
     67          1           0        1.223053    1.995711   -3.576894
     68          1           0        3.952573    5.324697    1.306754
     69          1           0        7.469291    0.325796    2.633139
     70          1           0        2.392019   -2.690697   -3.541391
     71          1           0        0.850266   -0.387570   -3.807510
     72          1           0        1.915990   -1.011947   -5.719255
     73          1           0        3.599359   -0.893520   -4.930560
     74          1           0        2.618900    0.557464   -5.526530
     75          1           0        0.030468   -1.420593   -2.183779
     76          1           0        0.769979   -2.510909   -1.134358
     77          1           0        0.472600   -3.865570   -3.694794
     78          1           0       -0.954327   -2.776706   -3.439351
     79          1           0        0.041310    3.914382   -3.261066
     80          1           0        1.260741    4.875633   -4.161418
     81          1           0        0.348484    5.635281   -2.972436
     82          1           0        4.107499    7.040476   -0.049335
     83          1           0        2.820983    7.013466    1.045548
     84          1           0        2.978949    8.398571   -0.177281
     85          1           0        4.865359    4.081155    3.345014
     86          1           0        7.589980    2.888126    2.841463
     87          1           0        7.622508    5.174710    2.593469
     88          1           0        6.150806    5.969905    3.269249
     89          1           0        6.359280    5.653927    1.513317
     90          1           0        5.773249    1.402063    4.576266
     91          1           0        5.972703    2.952997    5.124028
     92          1           0        7.601180    0.780655    5.357052
     93          1           0        7.881238    2.446537    6.006692
     94          1           0        8.644043    1.870147    4.507417
     95          1           0        8.847928   -1.826690    1.957527
     96          1           0        8.249475   -3.399023    1.283462
     97          1           0        7.663582   -2.729847    2.892581
     98          1           0        4.390871   -4.228725   -2.211036
     99          1           0        2.255475   -7.088753    0.273472
    100          1           0        1.395899   -6.896504   -1.205202
    101          1           0        1.110241   -5.752724    0.196080
    102          1           0       -2.174899   -5.262626    0.333784
    103          1           0       -2.722459   -5.589119   -1.354038
    104          1           0       -3.826206   -2.997128   -0.609495
    105          1           0       -4.087951   -6.259967    0.941048
    106          1           0       -5.812732   -6.420839    0.785289
    107          1           0       -5.186809   -5.672748    2.215241
    108          1           0       -6.796328   -3.779946    0.907165
    109          1           0       -6.066355   -2.700001   -0.047208
    110          1           0       -5.476984   -1.425877    1.849076
    111          1           0       -4.400734   -2.601096    2.395107
    112          1           0       -5.714986   -3.273828    4.102569
    113          1           0       -6.955395   -3.796349    3.222692
    114          1           0       -6.397302   -0.959172    4.018854
    115          1           0       -7.214595   -3.012185    5.773556
    116          1           0       -8.628112   -1.955968    5.585044
    117          1           0       -6.983381   -1.345613    5.946286
    118          1           0       -9.197118   -1.364084    3.599100
    119          1           0       -8.350721   -1.760862    2.111755
    120          1           0       -7.678724    0.789070    3.764820
    121          1           0       -9.172180    0.729583    2.998223
    122          1           0       -6.825723   -0.017169    1.189425
    123          1           0       -6.872932    1.637045    1.944624
    124          1           0       -9.444559    0.624828    0.675776
    125          1           0       -7.205323    0.156918   -0.851477
    126          1           0       -7.759770    1.644802   -1.484459
    127          1           0       -8.781714    0.185948   -1.432300
    128          1           0       -8.483310    3.262858   -0.151103
    129          1           0       -8.530734    3.228254    1.539528
    130          1           0      -10.672414    3.019099    1.713497
    131          1           0      -11.038701    1.989448    0.394965
    132          1           0      -10.317590    4.810567   -0.095646
    133          1           0      -11.823957    4.334655    0.180097
    134          1           0      -10.583837    2.467547   -1.795485
    135          1           0       -9.669210    3.633259   -3.416722
    136          1           0       -8.941140    4.364873   -1.937167
    137          1           0      -10.282369    5.242198   -2.685308
    138          1           0      -12.569456    2.416882   -2.613544
    139          1           0      -12.214260    3.999553   -3.249887
    140          1           0      -13.018645    3.981391   -1.705185
 ---------------------------------------------------------------------

 SCF Done:  E(RZINDO/S) =  -474.710532387     A.U. after   20 cycles

 Excitation energies and oscillator strengths:

 Excited State   1:      Singlet-A      1.2833 eV  966.14 nm  f=0.5333  <S**2>=0.000
     175 ->178        -0.19958
     176 ->177         0.66137
 This state for optimization and/or second-order correction.
 Total Energy, E(CIS/TDA) =  -474.663372086
 Copying the excited state density for this state as the 1-particle RhoCI density.

 Excited State   2:      Singlet-A      1.8631 eV  665.48 nm  f=0.0407  <S**2>=0.000
     175 ->177         0.54059
     176 ->178         0.43017

 Excited State   3:      Singlet-A      2.9274 eV  423.53 nm  f=0.0002  <S**2>=0.000
     168 ->177         0.31512
     168 ->178        -0.10932
     168 ->179         0.35501
     168 ->180        -0.35694
     168 ->184         0.14061
     168 ->186         0.18482

 Excited State   4:      Singlet-A      2.9840 eV  415.50 nm  f=1.1504  <S**2>=0.000
     175 ->177        -0.39154
     176 ->178         0.50394
     176 ->179         0.15328

 Excited State   5:      Singlet-A      3.0744 eV  403.28 nm  f=0.2244  <S**2>=0.000
     169 ->177        -0.17222
     169 ->179         0.22334
     169 ->180         0.19574
     169 ->186         0.13358
     169 ->187         0.11679
     170 ->179         0.10539
     175 ->177         0.12806
     176 ->178        -0.17291
     176 ->179         0.44381

 The electronic state is 1-A.
 Alpha  occ. eigenvalues --   -1.87257  -1.84846  -1.81099  -1.74780  -1.72819
 Alpha  occ. eigenvalues --   -1.69730  -1.67480  -1.63849  -1.60184  -1.57398
 Alpha  occ. eigenvalues --   -1.54784  -1.51135  -1.50855  -1.49583  -1.47099
 Alpha  occ. eigenvalues --   -1.44882  -1.42780  -1.40648  -1.39234  -1.38207
 Alpha  occ. eigenvalues --   -1.36644  -1.33891  -1.32472  -1.30895  -1.28963
 Alpha  occ. eigenvalues --   -1.28708  -1.27153  -1.23605  -1.20252  -1.17659
 Alpha  occ. eigenvalues --   -1.17051  -1.16310  -1.16141  -1.14550  -1.13914
 Alpha  occ. eigenvalues --   -1.13304  -1.10430  -1.09700  -1.05480  -1.03404
 Alpha  occ. eigenvalues --   -1.01728  -1.00906  -0.98998  -0.98394  -0.96617
 Alpha  occ. eigenvalues --   -0.96145  -0.95496  -0.95344  -0.93435  -0.93004
 Alpha  occ. eigenvalues --   -0.92742  -0.91579  -0.90295  -0.88231  -0.87085
 Alpha  occ. eigenvalues --   -0.85988  -0.84676  -0.83471  -0.81999  -0.80236
 Alpha  occ. eigenvalues --   -0.79541  -0.79028  -0.76948  -0.76767  -0.76201
 Alpha  occ. eigenvalues --   -0.75122  -0.74592  -0.74147  -0.73828  -0.73507
 Alpha  occ. eigenvalues --   -0.72952  -0.72564  -0.71763  -0.71431  -0.71120
 Alpha  occ. eigenvalues --   -0.70548  -0.69677  -0.68858  -0.68740  -0.67849
 Alpha  occ. eigenvalues --   -0.67803  -0.66807  -0.66568  -0.65458  -0.64977
 Alpha  occ. eigenvalues --   -0.64641  -0.64343  -0.63971  -0.63711  -0.63231
 Alpha  occ. eigenvalues --   -0.62866  -0.62507  -0.62190  -0.61817  -0.61536
 Alpha  occ. eigenvalues --   -0.61410  -0.61061  -0.60865  -0.60184  -0.60058
 Alpha  occ. eigenvalues --   -0.59642  -0.59523  -0.59244  -0.58742  -0.58495
 Alpha  occ. eigenvalues --   -0.57906  -0.57592  -0.56966  -0.56597  -0.56380
 Alpha  occ. eigenvalues --   -0.56212  -0.55968  -0.55599  -0.55542  -0.55366
 Alpha  occ. eigenvalues --   -0.54821  -0.54311  -0.53288  -0.52988  -0.52883
 Alpha  occ. eigenvalues --   -0.52569  -0.52221  -0.52132  -0.51805  -0.51430
 Alpha  occ. eigenvalues --   -0.51123  -0.50912  -0.50581  -0.50411  -0.50304
 Alpha  occ. eigenvalues --   -0.49847  -0.49749  -0.49516  -0.49172  -0.48888
 Alpha  occ. eigenvalues --   -0.48763  -0.48473  -0.48198  -0.47647  -0.47587
 Alpha  occ. eigenvalues --   -0.47465  -0.47120  -0.46946  -0.46560  -0.46377
 Alpha  occ. eigenvalues --   -0.46140  -0.45949  -0.45769  -0.45626  -0.45086
 Alpha  occ. eigenvalues --   -0.44843  -0.44681  -0.43797  -0.43611  -0.43339
 Alpha  occ. eigenvalues --   -0.43129  -0.42426  -0.42317  -0.42010  -0.41890
 Alpha  occ. eigenvalues --   -0.41362  -0.40954  -0.40723  -0.38531  -0.38252
 Alpha  occ. eigenvalues --   -0.37936  -0.37233  -0.35593  -0.34571  -0.34543
 Alpha  occ. eigenvalues --   -0.33605  -0.32340  -0.31824  -0.31709  -0.26368
 Alpha  occ. eigenvalues --   -0.21964
 Alpha virt. eigenvalues --   -0.08352  -0.02416  -0.00416   0.01416   0.02161
 Alpha virt. eigenvalues --    0.02425   0.02705   0.03294   0.04652   0.04864
 Alpha virt. eigenvalues --    0.06240   0.07059   0.07443   0.07597   0.08281

 Mulliken charges:
               1
     1  Mg   0.418045
     2  C   -0.018901
     3  C   -0.081357
     4  C   -0.101630
     5  C   -0.071379
     6  N   -0.282124
     7  C    0.099261
     8  C    0.018540
     9  C    0.005097
    10  C    0.152187
    11  C   -0.052489
    12  C   -0.021265
    13  C   -0.000504
    14  C    0.479171
    15  O   -0.537686
    16  O   -0.272968
    17  N   -0.336722
    18  C    0.114561
    19  C    0.052896
    20  C   -0.052804
    21  C    0.138826
    22  C   -0.037315
    23  C    0.324840
    24  O   -0.505797
    25  C   -0.035148
    26  N   -0.251418
    27  C    0.165623
    28  C   -0.000217
    29  C    0.015362
    30  C    0.098347
    31  C   -0.054245
    32  C   -0.027473
    33  C   -0.054903
    34  N   -0.323729
    35  C    0.100916
    36  C   -0.004429
    37  C   -0.053767
    38  C    0.099004
    39  C   -0.039446
    40  C    0.333604
    41  O   -0.501193
    42  C    0.054063
    43  C    0.482250
    44  O   -0.516500
    45  O   -0.280841
    46  C    0.073881
    47  C    0.106564
    48  C   -0.096915
    49  C   -0.006252
    50  C   -0.041825
    51  C   -0.016059
    52  C   -0.018144
    53  C   -0.034129
    54  C   -0.000196
    55  C   -0.066939
    56  C   -0.032677
    57  C   -0.042677
    58  C   -0.039163
    59  C   -0.015824
    60  C   -0.059819
    61  C   -0.028093
    62  C   -0.021183
    63  C   -0.028208
    64  C   -0.016435
    65  C   -0.053074
    66  C   -0.061417
    67  H    0.024919
    68  H    0.025752
    69  H    0.027040
    70  H    0.029983
    71  H    0.019055
    72  H    0.021004
    73  H    0.037017
    74  H    0.029667
    75  H    0.017194
    76  H    0.049576
    77  H    0.035700
    78  H    0.040610
    79  H    0.025202
    80  H    0.036424
    81  H    0.038430
    82  H    0.029755
    83  H    0.037111
    84  H    0.041639
    85  H    0.038771
    86  H    0.031515
    87  H    0.027124
    88  H    0.022121
    89  H    0.021759
    90  H    0.017005
    91  H    0.010215
    92  H    0.018484
    93  H    0.019703
    94  H    0.020355
    95  H    0.022613
    96  H    0.040638
    97  H    0.039339
    98  H    0.052569
    99  H    0.035210
   100  H    0.039727
   101  H    0.054186
   102  H    0.053488
   103  H    0.057244
   104  H    0.030039
   105  H    0.016900
   106  H    0.035400
   107  H    0.027182
   108  H    0.010630
   109  H    0.018753
   110  H    0.023593
   111  H    0.024272
   112  H    0.003021
   113  H    0.024265
   114  H    0.016241
   115  H    0.015813
   116  H    0.027109
   117  H    0.011653
   118  H    0.013339
   119  H    0.021171
   120  H    0.013007
   121  H    0.014725
   122  H    0.029936
   123  H    0.020074
   124  H    0.021566
   125  H    0.007846
   126  H    0.018151
   127  H    0.017532
   128  H    0.017185
   129  H    0.019908
   130  H    0.004482
   131  H    0.019263
   132  H    0.002141
   133  H    0.010673
   134  H    0.007720
   135  H    0.024649
   136  H    0.019889
   137  H    0.024391
   138  H    0.026583
   139  H    0.008527
   140  H    0.026459
 Sum of Mulliken charges =  -0.00000

 Dipole moment (field-independent basis, Debye):
    X=             -1.6519    Y=              5.4327    Z=             -0.0548  Tot=              5.6786
 N-N= 4.447774680301D+03 E-N= 0.000000000000D+00  KE=-9.570396049082D+03
 Leave Link  601 at Sun May  1 00:43:49 2022, MaxMem=  6710886400 cpu:               0.8 elap:               0.1
 (Enter /sw/apps/gaussian-16.0/g16/l9999.exe)
 1\1\GINC-BP1-COMPUTE102\SP\RZINDO CIS\STO-3G\C55H74Mg1N4O6\OF15641\01-
 May-2022\0\\#p ZINDO=(nstates=5)\\step_951_chromophore_20 ZINDO\\0,1\M
 g,0,6.311,56.662,41.98\C,0,5.271,53.304,41.584\C,0,9.31,55.797,40.711\
 C,0,6.947,60.006,41.51\C,0,3.148,57.475,43.008\N,0,7.068,54.813,41.094
 \C,0,6.569,53.532,41.034\C,0,7.567,52.574,40.384\C,0,8.845,53.327,40.6
 99\C,0,8.415,54.758,40.892\C,0,9.724,52.781,41.888\C,0,7.281,52.448,38
 .846\C,0,7.699,51.061,38.246\C,0,6.844,50.411,37.233\O,0,6.329,49.302,

 Normal termination of Gaussian 16 at Sun May  1 00:43:49 2022.
