 Gaussian 16, Revision A.03,
 Gaussian 16:  ES64L-G16RevA.03 25-Dec-2016

 ------------------------------
 #p blyp/Def2SVP td=(nstates=5)
 ------------------------------

 --------------------------------------------------
 step_401_chromophore_20 TDDFT with blyp functional
 --------------------------------------------------
 Symbolic Z-matrix:
 Charge =  0 Multiplicity = 1

                         Standard orientation:
 ---------------------------------------------------------------------
 Center     Atomic      Atomic             Coordinates (Angstroms)
 Number     Number       Type             X           Y           Z
 ---------------------------------------------------------------------
      1         12           0       -3.854271   -1.225227   -0.736466
      2          6           0       -4.026151    2.083924   -0.947160
      3          6           0       -1.140743   -1.291138   -2.884165
      4          6           0       -3.169623   -4.497867    0.137914
      5          6           0       -6.498225   -1.184986    1.641175
      6          7           0       -2.836942    0.191965   -1.889093
      7          6           0       -3.024718    1.574158   -1.801501
      8          6           0       -2.055067    2.332014   -2.652369
      9          6           0       -1.517857    1.211363   -3.587245
     10          6           0       -1.810483   -0.054294   -2.746279
     11          6           0       -2.261272    1.046406   -5.055076
     12          6           0       -0.940679    2.998975   -1.726870
     13          6           0       -0.319422    4.187967   -2.457118
     14          6           0        1.182963    4.552717   -2.107932
     15          8           0        2.143415    4.594067   -2.818236
     16          8           0        1.250521    4.966443   -0.826458
     17          7           0       -2.375252   -2.685163   -1.299189
     18          6           0       -1.378099   -2.532867   -2.266309
     19          6           0       -0.570003   -3.686937   -2.338749
     20          6           0       -1.200602   -4.702223   -1.535783
     21          6           0       -2.279209   -3.959915   -0.826922
     22          6           0        0.591616   -3.847132   -3.257422
     23          6           0       -0.919065   -6.224951   -1.483222
     24          8           0        0.052010   -6.689506   -2.063491
     25          6           0       -1.739822   -7.176461   -0.727174
     26          7           0       -4.594475   -2.501229    0.870756
     27          6           0       -4.232252   -3.887890    0.865616
     28          6           0       -5.052171   -4.712923    1.848156
     29          6           0       -6.113179   -3.630134    2.345101
     30          6           0       -5.714106   -2.348671    1.596640
     31          6           0       -5.622505   -6.086499    1.342192
     32          6           0       -6.273706   -3.556771    3.862834
     33          6           0       -7.823536   -3.369531    4.306953
     34          7           0       -5.159429    0.179169    0.089324
     35          6           0       -6.137670    0.047961    1.015705
     36          6           0       -6.787137    1.289622    1.229292
     37          6           0       -6.035690    2.139392    0.383077
     38          6           0       -4.968405    1.434955   -0.128587
     39          6           0       -7.880236    1.565221    2.247000
     40          6           0       -5.814212    3.536104   -0.071420
     41          8           0       -6.425779    4.581473    0.224212
     42          6           0       -4.498705    3.561999   -0.895843
     43          6           0       -3.542796    4.407399   -0.217660
     44          8           0       -3.275122    4.277712    0.931806
     45          8           0       -3.091115    5.377247   -1.015960
     46          6           0       -2.160074    6.217402   -0.286914
     47          6           0        2.313636    5.938511   -0.427429
     48          6           0        3.534521    5.176518   -0.037066
     49          6           0        4.470852    5.419057    0.884956
     50          6           0        4.483045    6.613235    1.751026
     51          6           0        5.571575    4.369889    1.162245
     52          6           0        5.121853    3.060288    1.823803
     53          6           0        5.692272    2.797550    3.253392
     54          6           0        5.316146    1.346843    3.716520
     55          6           0        4.511684    1.462723    5.043141
     56          6           0        6.670404    0.476989    3.901569
     57          6           0        7.241942    0.054116    2.466453
     58          6           0        8.100359   -1.191926    2.676380
     59          6           0        7.520624   -2.418981    1.872590
     60          6           0        6.986088   -3.532184    2.829290
     61          6           0        8.374972   -3.043531    0.728318
     62          6           0        8.142356   -2.380768   -0.673794
     63          6           0        9.487759   -1.948574   -1.368943
     64          6           0       10.234648   -3.234959   -1.853961
     65          6           0       11.756081   -3.064037   -1.982976
     66          6           0        9.617575   -3.652141   -3.171702
     67          1           0       -0.331149   -1.163250   -3.606084
     68          1           0       -2.993117   -5.533912    0.436674
     69          1           0       -7.325567   -1.285445    2.346077
     70          1           0       -2.534024    3.184528   -3.133520
     71          1           0       -0.440188    1.329060   -3.706760
     72          1           0       -2.816569    1.964201   -5.249597
     73          1           0       -2.878417    0.149589   -5.094392
     74          1           0       -1.453256    0.823112   -5.751063
     75          1           0       -0.127381    2.311160   -1.493634
     76          1           0       -1.383741    3.355391   -0.797140
     77          1           0       -0.896942    5.080444   -2.214907
     78          1           0       -0.400139    4.118841   -3.541750
     79          1           0        0.543581   -4.711141   -3.920079
     80          1           0        1.447185   -4.100257   -2.631703
     81          1           0        0.874594   -2.914361   -3.742958
     82          1           0       -2.806870   -7.040265   -0.899448
     83          1           0       -1.499293   -7.042974    0.328238
     84          1           0       -1.477377   -8.189218   -1.034073
     85          1           0       -4.353781   -4.942122    2.652820
     86          1           0       -7.023299   -3.899498    1.809275
     87          1           0       -5.382388   -6.355898    0.314148
     88          1           0       -6.704512   -6.101672    1.481049
     89          1           0       -5.332706   -6.928248    1.970884
     90          1           0       -5.639620   -2.756824    4.244347
     91          1           0       -6.010579   -4.450509    4.429085
     92          1           0       -8.279054   -4.174181    4.883796
     93          1           0       -8.438985   -3.206219    3.421879
     94          1           0       -7.948910   -2.407531    4.804236
     95          1           0       -7.652879    1.078733    3.195950
     96          1           0       -8.845067    1.163595    1.938898
     97          1           0       -8.025183    2.637264    2.383576
     98          1           0       -4.527802    3.959112   -1.910289
     99          1           0       -1.706135    6.867819   -1.034905
    100          1           0       -1.367989    5.702519    0.256239
    101          1           0       -2.749506    6.819265    0.404731
    102          1           0        1.767834    6.381089    0.406690
    103          1           0        2.496213    6.561761   -1.302915
    104          1           0        3.485522    4.178154   -0.471082
    105          1           0        3.462547    6.988043    1.829012
    106          1           0        5.167171    7.441605    1.568545
    107          1           0        4.657559    6.347982    2.794015
    108          1           0        6.208314    4.913992    1.860042
    109          1           0        6.102474    4.267052    0.216968
    110          1           0        5.403322    2.257703    1.142122
    111          1           0        4.037429    3.127460    1.903989
    112          1           0        5.306961    3.545986    3.945880
    113          1           0        6.775510    2.778006    3.125634
    114          1           0        4.685132    0.776421    3.035324
    115          1           0        5.149703    1.363243    5.922298
    116          1           0        3.633554    0.817397    5.067736
    117          1           0        3.987735    2.397566    5.244348
    118          1           0        6.199273   -0.237754    4.575855
    119          1           0        7.417965    1.034904    4.466842
    120          1           0        7.933245    0.822807    2.121821
    121          1           0        6.501137   -0.159539    1.695442
    122          1           0        8.284589   -1.479911    3.711965
    123          1           0        9.078367   -0.926316    2.275567
    124          1           0        6.654974   -2.053751    1.318263
    125          1           0        7.464766   -4.511170    2.811175
    126          1           0        5.939627   -3.716916    2.584839
    127          1           0        7.094062   -3.330191    3.894392
    128          1           0        8.002758   -4.052013    0.549244
    129          1           0        9.407874   -3.216754    1.031191
    130          1           0        7.715219   -1.394466   -0.494087
    131          1           0        7.438799   -3.014990   -1.214863
    132          1           0       10.154336   -1.474455   -0.648477
    133          1           0        9.240276   -1.359814   -2.251639
    134          1           0       10.128454   -4.082623   -1.177055
    135          1           0       12.253531   -3.704799   -1.255077
    136          1           0       12.030103   -2.011557   -2.051903
    137          1           0       12.164447   -3.555489   -2.866701
    138          1           0        9.537318   -2.916652   -3.972391
    139          1           0        8.709961   -4.164085   -2.852762
    140          1           0       10.098161   -4.539035   -3.582292
 ---------------------------------------------------------------------

 SCF Done:  E(RB-LYP) =  -3007.35806911     A.U. after   21 cycles

 Excitation energies and oscillator strengths:

 Excited State   1:      Singlet-A      1.7603 eV  704.34 nm  f=0.1584  <S**2>=0.000
     243 -> 247       -0.10019
     244 -> 247        0.42010
     245 -> 247        0.12433
     245 -> 248       -0.13952
     246 -> 247        0.53472
     246 <- 247       -0.11825
 This state for optimization and/or second-order correction.
 Total Energy, E(TD-HF/TD-DFT) =  -3007.29337980
 Copying the excited state density for this state as the 1-particle RhoCI density.

 Excited State   2:      Singlet-A      1.7959 eV  690.38 nm  f=0.1094  <S**2>=0.000
     243 -> 247        0.27397
     244 -> 247        0.50814
     245 -> 247        0.14266
     245 -> 248        0.10053
     246 -> 247       -0.37150

 Excited State   3:      Singlet-A      1.8089 eV  685.39 nm  f=0.0499  <S**2>=0.000
     243 -> 247        0.64261
     244 -> 247       -0.14287
     246 -> 247        0.24023

 Excited State   4:      Singlet-A      1.9944 eV  621.67 nm  f=0.0848  <S**2>=0.000
     240 -> 247        0.10799
     244 -> 247       -0.20005
     245 -> 247        0.62114
     246 -> 248        0.22573

 Excited State   5:      Singlet-A      2.2228 eV  557.79 nm  f=0.0002  <S**2>=0.000
     241 -> 247       -0.33053
     242 -> 247        0.62494

 The electronic state is 1-A.
 Alpha  occ. eigenvalues --  -46.27326 -18.83116 -18.81057 -18.76815 -18.76115
 Alpha  occ. eigenvalues --  -18.75374 -18.75306 -14.03701 -14.03418 -14.01135
 Alpha  occ. eigenvalues --  -14.00226 -10.03962 -10.02948  -9.99860  -9.99640
 Alpha  occ. eigenvalues --   -9.98547  -9.97594  -9.97204  -9.97138  -9.96943
 Alpha  occ. eigenvalues --   -9.96498  -9.96107  -9.95530  -9.95339  -9.95195
 Alpha  occ. eigenvalues --   -9.95055  -9.94520  -9.94105  -9.93972  -9.93963
 Alpha  occ. eigenvalues --   -9.93885  -9.93721  -9.93709  -9.93690  -9.93605
 Alpha  occ. eigenvalues --   -9.93307  -9.93273  -9.93270  -9.93115  -9.93005
 Alpha  occ. eigenvalues --   -9.92866  -9.92823  -9.92546  -9.92499  -9.92427
 Alpha  occ. eigenvalues --   -9.92133  -9.91976  -9.91894  -9.91768  -9.91715
 Alpha  occ. eigenvalues --   -9.91709  -9.91690  -9.91311  -9.91287  -9.91230
 Alpha  occ. eigenvalues --   -9.91220  -9.91154  -9.91091  -9.91084  -9.91062
 Alpha  occ. eigenvalues --   -9.90748  -9.90716  -9.90553  -9.90318  -9.90026
 Alpha  occ. eigenvalues --   -9.90015  -2.91926  -1.72364  -1.71796  -1.71640
 Alpha  occ. eigenvalues --   -1.00458  -0.98521  -0.91639  -0.91568  -0.90150
 Alpha  occ. eigenvalues --   -0.89723  -0.88277  -0.86209  -0.85241  -0.84598
 Alpha  occ. eigenvalues --   -0.75600  -0.73515  -0.72950  -0.72410  -0.72035
 Alpha  occ. eigenvalues --   -0.71882  -0.71520  -0.70579  -0.70368  -0.70254
 Alpha  occ. eigenvalues --   -0.69451  -0.68954  -0.68082  -0.67664  -0.67214
 Alpha  occ. eigenvalues --   -0.66367  -0.66167  -0.65403  -0.65056  -0.64683
 Alpha  occ. eigenvalues --   -0.63909  -0.62590  -0.62119  -0.61624  -0.60950
 Alpha  occ. eigenvalues --   -0.60457  -0.60254  -0.59834  -0.58972  -0.58755
 Alpha  occ. eigenvalues --   -0.58342  -0.57982  -0.57122  -0.56029  -0.55422
 Alpha  occ. eigenvalues --   -0.54119  -0.53378  -0.52791  -0.52147  -0.51759
 Alpha  occ. eigenvalues --   -0.51482  -0.51312  -0.50909  -0.50357  -0.49881
 Alpha  occ. eigenvalues --   -0.49166  -0.49133  -0.48724  -0.47816  -0.46951
 Alpha  occ. eigenvalues --   -0.46422  -0.46185  -0.45485  -0.45249  -0.45103
 Alpha  occ. eigenvalues --   -0.44547  -0.43980  -0.43409  -0.43067  -0.42681
 Alpha  occ. eigenvalues --   -0.42189  -0.41925  -0.41733  -0.41570  -0.41298
 Alpha  occ. eigenvalues --   -0.40728  -0.40544  -0.40286  -0.40109  -0.39926
 Alpha  occ. eigenvalues --   -0.39749  -0.39474  -0.39261  -0.39129  -0.39066
 Alpha  occ. eigenvalues --   -0.38881  -0.38692  -0.38545  -0.38341  -0.38219
 Alpha  occ. eigenvalues --   -0.38153  -0.37873  -0.37793  -0.37504  -0.37108
 Alpha  occ. eigenvalues --   -0.36695  -0.36629  -0.36507  -0.36335  -0.36291
 Alpha  occ. eigenvalues --   -0.36096  -0.36029  -0.35752  -0.35694  -0.35371
 Alpha  occ. eigenvalues --   -0.35319  -0.35267  -0.34857  -0.34771  -0.34624
 Alpha  occ. eigenvalues --   -0.34569  -0.34401  -0.34148  -0.33933  -0.33810
 Alpha  occ. eigenvalues --   -0.33714  -0.33611  -0.33569  -0.33461  -0.33138
 Alpha  occ. eigenvalues --   -0.32994  -0.32754  -0.32742  -0.32579  -0.32372
 Alpha  occ. eigenvalues --   -0.32310  -0.32087  -0.32024  -0.31726  -0.31475
 Alpha  occ. eigenvalues --   -0.31384  -0.31291  -0.31186  -0.31062  -0.30921
 Alpha  occ. eigenvalues --   -0.30859  -0.30711  -0.30447  -0.30198  -0.30106
 Alpha  occ. eigenvalues --   -0.30071  -0.29951  -0.29664  -0.29495  -0.29313
 Alpha  occ. eigenvalues --   -0.29136  -0.28730  -0.28199  -0.27549  -0.27467
 Alpha  occ. eigenvalues --   -0.27110  -0.26966  -0.26666  -0.26658  -0.26626
 Alpha  occ. eigenvalues --   -0.26255  -0.26194  -0.26014  -0.25469  -0.25361
 Alpha  occ. eigenvalues --   -0.25076  -0.24760  -0.24239  -0.24068  -0.23699
 Alpha  occ. eigenvalues --   -0.22971  -0.22517  -0.21846  -0.21460  -0.20405
 Alpha  occ. eigenvalues --   -0.20159  -0.20140  -0.18531  -0.18397  -0.17492
 Alpha  occ. eigenvalues --   -0.16103
 Alpha virt. eigenvalues --   -0.11977  -0.07086  -0.06147  -0.04567  -0.02949
 Alpha virt. eigenvalues --   -0.02312  -0.01787  -0.01686  -0.01450  -0.00167
 Alpha virt. eigenvalues --    0.00980   0.01558   0.02339   0.02917   0.03065

 Mulliken charges:
               1
     1  Mg   0.694470
     2  C    0.011180
     3  C   -0.045774
     4  C   -0.054492
     5  C   -0.093853
     6  N   -0.258313
     7  C   -0.037758
     8  C    0.018766
     9  C    0.028319
    10  C   -0.030534
    11  C    0.124192
    12  C    0.113981
    13  C    0.113851
    14  C    0.043670
    15  O   -0.156492
    16  O   -0.298912
    17  N   -0.269368
    18  C    0.167628
    19  C   -0.145495
    20  C    0.025354
    21  C    0.113562
    22  C    0.205994
    23  C   -0.093451
    24  O   -0.169225
    25  C    0.161735
    26  N   -0.223475
    27  C   -0.002290
    28  C    0.005423
    29  C    0.063436
    30  C   -0.019583
    31  C    0.122644
    32  C    0.111673
    33  C    0.025978
    34  N   -0.208858
    35  C    0.139429
    36  C   -0.174754
    37  C    0.066847
    38  C    0.046218
    39  C    0.181578
    40  C   -0.004099
    41  O   -0.158250
    42  C    0.105158
    43  C    0.022442
    44  O   -0.160180
    45  O   -0.243385
    46  C    0.218243
    47  C    0.337231
    48  C   -0.096188
    49  C   -0.185659
    50  C    0.151392
    51  C    0.162171
    52  C    0.048477
    53  C    0.126690
    54  C   -0.084212
    55  C    0.089695
    56  C    0.063046
    57  C    0.065752
    58  C    0.144746
    59  C   -0.076790
    60  C    0.089614
    61  C    0.085769
    62  C    0.053609
    63  C    0.128844
    64  C   -0.108370
    65  C    0.132586
    66  C    0.110244
    67  H   -0.067530
    68  H   -0.086408
    69  H   -0.073300
    70  H   -0.032383
    71  H   -0.025362
    72  H    0.009694
    73  H    0.006405
    74  H    0.001858
    75  H   -0.013611
    76  H    0.005747
    77  H   -0.010846
    78  H   -0.017393
    79  H    0.009991
    80  H   -0.008356
    81  H   -0.026601
    82  H    0.006864
    83  H    0.025683
    84  H   -0.009828
    85  H   -0.011966
    86  H   -0.021696
    87  H    0.005567
    88  H   -0.016543
    89  H   -0.017808
    90  H   -0.008773
    91  H   -0.012428
    92  H    0.004132
    93  H   -0.008489
    94  H   -0.004982
    95  H   -0.002164
    96  H   -0.008430
    97  H    0.009847
    98  H   -0.029375
    99  H    0.009602
   100  H    0.026329
   101  H    0.016583
   102  H    0.004062
   103  H    0.009849
   104  H   -0.020733
   105  H   -0.036533
   106  H    0.009310
   107  H   -0.020646
   108  H   -0.052857
   109  H   -0.011583
   110  H   -0.023581
   111  H   -0.023777
   112  H   -0.022786
   113  H   -0.029297
   114  H   -0.028393
   115  H   -0.017536
   116  H   -0.021037
   117  H   -0.031981
   118  H   -0.021869
   119  H   -0.021895
   120  H   -0.024270
   121  H   -0.003552
   122  H   -0.024124
   123  H   -0.051744
   124  H   -0.039215
   125  H   -0.024680
   126  H   -0.016042
   127  H   -0.026100
   128  H   -0.043284
   129  H   -0.026788
   130  H   -0.029213
   131  H   -0.013999
   132  H   -0.027114
   133  H   -0.030719
   134  H   -0.040712
   135  H   -0.026062
   136  H   -0.014894
   137  H   -0.043424
   138  H   -0.002204
   139  H   -0.035805
   140  H   -0.040685
 Sum of Mulliken charges =  -0.00000

 Dipole moment (field-independent basis, Debye):
    X=             -0.8691    Y=             -1.8286    Z=              1.3150  Tot=              2.4142
 Quadrupole moment (field-independent basis, Debye-Ang):
   XX=           -404.4739   YY=           -406.8918   ZZ=           -398.5692
   XY=             48.1651   XZ=              7.1882   YZ=            -15.5938

 Normal termination of Gaussian 16 at Wed May  4 21:17:42 2022.
