 Gaussian 16, Revision A.03,
 Gaussian 16:  ES64L-G16RevA.03 25-Dec-2016

 -----------------------------------
 #p cam-b3lyp/Def2SVP td=(nstates=5)
 -----------------------------------

 -------------------------------------------------------
 step_401_chromophore_20 TDDFT with cam-b3lyp functional
 -------------------------------------------------------
 Symbolic Z-matrix:
 Charge =  0 Multiplicity = 1

                         Standard orientation:
 ---------------------------------------------------------------------
 Center     Atomic      Atomic             Coordinates (Angstroms)
 Number     Number       Type             X           Y           Z
 ---------------------------------------------------------------------
      1         12           0       -3.854271   -1.225227   -0.736466
      2          6           0       -4.026151    2.083924   -0.947160
      3          6           0       -1.140743   -1.291138   -2.884165
      4          6           0       -3.169623   -4.497867    0.137914
      5          6           0       -6.498225   -1.184986    1.641175
      6          7           0       -2.836942    0.191965   -1.889093
      7          6           0       -3.024718    1.574158   -1.801501
      8          6           0       -2.055067    2.332014   -2.652369
      9          6           0       -1.517857    1.211363   -3.587245
     10          6           0       -1.810483   -0.054294   -2.746279
     11          6           0       -2.261272    1.046406   -5.055076
     12          6           0       -0.940679    2.998975   -1.726870
     13          6           0       -0.319422    4.187967   -2.457118
     14          6           0        1.182963    4.552717   -2.107932
     15          8           0        2.143415    4.594067   -2.818236
     16          8           0        1.250521    4.966443   -0.826458
     17          7           0       -2.375252   -2.685163   -1.299189
     18          6           0       -1.378099   -2.532867   -2.266309
     19          6           0       -0.570003   -3.686937   -2.338749
     20          6           0       -1.200602   -4.702223   -1.535783
     21          6           0       -2.279209   -3.959915   -0.826922
     22          6           0        0.591616   -3.847132   -3.257422
     23          6           0       -0.919065   -6.224951   -1.483222
     24          8           0        0.052010   -6.689506   -2.063491
     25          6           0       -1.739822   -7.176461   -0.727174
     26          7           0       -4.594475   -2.501229    0.870756
     27          6           0       -4.232252   -3.887890    0.865616
     28          6           0       -5.052171   -4.712923    1.848156
     29          6           0       -6.113179   -3.630134    2.345101
     30          6           0       -5.714106   -2.348671    1.596640
     31          6           0       -5.622505   -6.086499    1.342192
     32          6           0       -6.273706   -3.556771    3.862834
     33          6           0       -7.823536   -3.369531    4.306953
     34          7           0       -5.159429    0.179169    0.089324
     35          6           0       -6.137670    0.047961    1.015705
     36          6           0       -6.787137    1.289622    1.229292
     37          6           0       -6.035690    2.139392    0.383077
     38          6           0       -4.968405    1.434955   -0.128587
     39          6           0       -7.880236    1.565221    2.247000
     40          6           0       -5.814212    3.536104   -0.071420
     41          8           0       -6.425779    4.581473    0.224212
     42          6           0       -4.498705    3.561999   -0.895843
     43          6           0       -3.542796    4.407399   -0.217660
     44          8           0       -3.275122    4.277712    0.931806
     45          8           0       -3.091115    5.377247   -1.015960
     46          6           0       -2.160074    6.217402   -0.286914
     47          6           0        2.313636    5.938511   -0.427429
     48          6           0        3.534521    5.176518   -0.037066
     49          6           0        4.470852    5.419057    0.884956
     50          6           0        4.483045    6.613235    1.751026
     51          6           0        5.571575    4.369889    1.162245
     52          6           0        5.121853    3.060288    1.823803
     53          6           0        5.692272    2.797550    3.253392
     54          6           0        5.316146    1.346843    3.716520
     55          6           0        4.511684    1.462723    5.043141
     56          6           0        6.670404    0.476989    3.901569
     57          6           0        7.241942    0.054116    2.466453
     58          6           0        8.100359   -1.191926    2.676380
     59          6           0        7.520624   -2.418981    1.872590
     60          6           0        6.986088   -3.532184    2.829290
     61          6           0        8.374972   -3.043531    0.728318
     62          6           0        8.142356   -2.380768   -0.673794
     63          6           0        9.487759   -1.948574   -1.368943
     64          6           0       10.234648   -3.234959   -1.853961
     65          6           0       11.756081   -3.064037   -1.982976
     66          6           0        9.617575   -3.652141   -3.171702
     67          1           0       -0.331149   -1.163250   -3.606084
     68          1           0       -2.993117   -5.533912    0.436674
     69          1           0       -7.325567   -1.285445    2.346077
     70          1           0       -2.534024    3.184528   -3.133520
     71          1           0       -0.440188    1.329060   -3.706760
     72          1           0       -2.816569    1.964201   -5.249597
     73          1           0       -2.878417    0.149589   -5.094392
     74          1           0       -1.453256    0.823112   -5.751063
     75          1           0       -0.127381    2.311160   -1.493634
     76          1           0       -1.383741    3.355391   -0.797140
     77          1           0       -0.896942    5.080444   -2.214907
     78          1           0       -0.400139    4.118841   -3.541750
     79          1           0        0.543581   -4.711141   -3.920079
     80          1           0        1.447185   -4.100257   -2.631703
     81          1           0        0.874594   -2.914361   -3.742958
     82          1           0       -2.806870   -7.040265   -0.899448
     83          1           0       -1.499293   -7.042974    0.328238
     84          1           0       -1.477377   -8.189218   -1.034073
     85          1           0       -4.353781   -4.942122    2.652820
     86          1           0       -7.023299   -3.899498    1.809275
     87          1           0       -5.382388   -6.355898    0.314148
     88          1           0       -6.704512   -6.101672    1.481049
     89          1           0       -5.332706   -6.928248    1.970884
     90          1           0       -5.639620   -2.756824    4.244347
     91          1           0       -6.010579   -4.450509    4.429085
     92          1           0       -8.279054   -4.174181    4.883796
     93          1           0       -8.438985   -3.206219    3.421879
     94          1           0       -7.948910   -2.407531    4.804236
     95          1           0       -7.652879    1.078733    3.195950
     96          1           0       -8.845067    1.163595    1.938898
     97          1           0       -8.025183    2.637264    2.383576
     98          1           0       -4.527802    3.959112   -1.910289
     99          1           0       -1.706135    6.867819   -1.034905
    100          1           0       -1.367989    5.702519    0.256239
    101          1           0       -2.749506    6.819265    0.404731
    102          1           0        1.767834    6.381089    0.406690
    103          1           0        2.496213    6.561761   -1.302915
    104          1           0        3.485522    4.178154   -0.471082
    105          1           0        3.462547    6.988043    1.829012
    106          1           0        5.167171    7.441605    1.568545
    107          1           0        4.657559    6.347982    2.794015
    108          1           0        6.208314    4.913992    1.860042
    109          1           0        6.102474    4.267052    0.216968
    110          1           0        5.403322    2.257703    1.142122
    111          1           0        4.037429    3.127460    1.903989
    112          1           0        5.306961    3.545986    3.945880
    113          1           0        6.775510    2.778006    3.125634
    114          1           0        4.685132    0.776421    3.035324
    115          1           0        5.149703    1.363243    5.922298
    116          1           0        3.633554    0.817397    5.067736
    117          1           0        3.987735    2.397566    5.244348
    118          1           0        6.199273   -0.237754    4.575855
    119          1           0        7.417965    1.034904    4.466842
    120          1           0        7.933245    0.822807    2.121821
    121          1           0        6.501137   -0.159539    1.695442
    122          1           0        8.284589   -1.479911    3.711965
    123          1           0        9.078367   -0.926316    2.275567
    124          1           0        6.654974   -2.053751    1.318263
    125          1           0        7.464766   -4.511170    2.811175
    126          1           0        5.939627   -3.716916    2.584839
    127          1           0        7.094062   -3.330191    3.894392
    128          1           0        8.002758   -4.052013    0.549244
    129          1           0        9.407874   -3.216754    1.031191
    130          1           0        7.715219   -1.394466   -0.494087
    131          1           0        7.438799   -3.014990   -1.214863
    132          1           0       10.154336   -1.474455   -0.648477
    133          1           0        9.240276   -1.359814   -2.251639
    134          1           0       10.128454   -4.082623   -1.177055
    135          1           0       12.253531   -3.704799   -1.255077
    136          1           0       12.030103   -2.011557   -2.051903
    137          1           0       12.164447   -3.555489   -2.866701
    138          1           0        9.537318   -2.916652   -3.972391
    139          1           0        8.709961   -4.164085   -2.852762
    140          1           0       10.098161   -4.539035   -3.582292
 ---------------------------------------------------------------------

 SCF Done:  E(RCAM-B3LYP) =  -3007.15467891     A.U. after   17 cycles

 Excitation energies and oscillator strengths:

 Excited State   1:      Singlet-A      1.6573 eV  748.10 nm  f=0.3737  <S**2>=0.000
     245 -> 248       -0.16947
     246 -> 247        0.68835
     245 <- 248       -0.10653
 This state for optimization and/or second-order correction.
 Total Energy, E(TD-HF/TD-DFT) =  -3007.09377356
 Copying the excited state density for this state as the 1-particle RhoCI density.

 Excited State   2:      Singlet-A      2.1932 eV  565.30 nm  f=0.1282  <S**2>=0.000
     245 -> 247        0.64470
     246 -> 248        0.27213

 Excited State   3:      Singlet-A      3.1725 eV  390.81 nm  f=0.0009  <S**2>=0.000
     243 -> 247       -0.42706
     244 -> 247        0.54267

 Excited State   4:      Singlet-A      3.2327 eV  383.53 nm  f=0.0072  <S**2>=0.000
     241 -> 249       -0.10137
     243 -> 247        0.53024
     244 -> 247        0.39857

 Excited State   5:      Singlet-A      3.4359 eV  360.85 nm  f=0.0361  <S**2>=0.000
     239 -> 247       -0.12143
     241 -> 247        0.53351
     241 -> 249        0.21422
     241 -> 250        0.13539
     246 -> 248       -0.24126

 The electronic state is 1-A.
 Alpha  occ. eigenvalues --  -46.88898 -19.26143 -19.23858 -19.19786 -19.19214
 Alpha  occ. eigenvalues --  -19.18646 -19.18495 -14.42781 -14.42241 -14.39729
 Alpha  occ. eigenvalues --  -14.38469 -10.39145 -10.38190 -10.35143 -10.34945
 Alpha  occ. eigenvalues --  -10.32654 -10.31966 -10.31621 -10.31611 -10.31582
 Alpha  occ. eigenvalues --  -10.30823 -10.30812 -10.30005 -10.29495 -10.29232
 Alpha  occ. eigenvalues --  -10.29144 -10.28536 -10.28372 -10.28362 -10.28035
 Alpha  occ. eigenvalues --  -10.27922 -10.27912 -10.27779 -10.27617 -10.27562
 Alpha  occ. eigenvalues --  -10.27524 -10.27499 -10.27475 -10.27438 -10.27151
 Alpha  occ. eigenvalues --  -10.26917 -10.26753 -10.26516 -10.26232 -10.26215
 Alpha  occ. eigenvalues --  -10.26096 -10.25647 -10.25602 -10.25597 -10.25498
 Alpha  occ. eigenvalues --  -10.25411 -10.25367 -10.25064 -10.25006 -10.25003
 Alpha  occ. eigenvalues --  -10.24964 -10.24904 -10.24854 -10.24843 -10.24745
 Alpha  occ. eigenvalues --  -10.24379 -10.24359 -10.24115 -10.23891 -10.23599
 Alpha  occ. eigenvalues --  -10.23587  -3.17400  -1.92315  -1.91849  -1.91700
 Alpha  occ. eigenvalues --   -1.19134  -1.17025  -1.10105  -1.09718  -1.07988
 Alpha  occ. eigenvalues --   -1.07957  -1.05899  -1.03993  -1.02925  -1.02200
 Alpha  occ. eigenvalues --   -0.92728  -0.90379  -0.89755  -0.89169  -0.88797
 Alpha  occ. eigenvalues --   -0.88530  -0.88183  -0.87151  -0.86896  -0.86766
 Alpha  occ. eigenvalues --   -0.86110  -0.85290  -0.84293  -0.83915  -0.83449
 Alpha  occ. eigenvalues --   -0.82463  -0.82192  -0.81330  -0.80920  -0.80527
 Alpha  occ. eigenvalues --   -0.79719  -0.78183  -0.77682  -0.77289  -0.76378
 Alpha  occ. eigenvalues --   -0.75809  -0.75583  -0.75199  -0.74187  -0.73962
 Alpha  occ. eigenvalues --   -0.73405  -0.72989  -0.72091  -0.70909  -0.70031
 Alpha  occ. eigenvalues --   -0.68766  -0.67896  -0.67231  -0.66497  -0.65854
 Alpha  occ. eigenvalues --   -0.65752  -0.65577  -0.64986  -0.64283  -0.63903
 Alpha  occ. eigenvalues --   -0.63026  -0.62933  -0.62566  -0.61610  -0.60684
 Alpha  occ. eigenvalues --   -0.60101  -0.59752  -0.59040  -0.58758  -0.58717
 Alpha  occ. eigenvalues --   -0.58065  -0.57487  -0.56829  -0.56261  -0.55908
 Alpha  occ. eigenvalues --   -0.55430  -0.54929  -0.54599  -0.54573  -0.54005
 Alpha  occ. eigenvalues --   -0.53709  -0.53243  -0.53141  -0.52811  -0.52738
 Alpha  occ. eigenvalues --   -0.52580  -0.52422  -0.51971  -0.51619  -0.51506
 Alpha  occ. eigenvalues --   -0.51378  -0.51309  -0.50805  -0.50697  -0.50633
 Alpha  occ. eigenvalues --   -0.50466  -0.50238  -0.50080  -0.49684  -0.49586
 Alpha  occ. eigenvalues --   -0.49405  -0.49121  -0.48895  -0.48809  -0.48479
 Alpha  occ. eigenvalues --   -0.48383  -0.48072  -0.48008  -0.47687  -0.47656
 Alpha  occ. eigenvalues --   -0.47307  -0.47135  -0.46762  -0.46646  -0.46594
 Alpha  occ. eigenvalues --   -0.46548  -0.46333  -0.46173  -0.45680  -0.45607
 Alpha  occ. eigenvalues --   -0.45550  -0.45435  -0.45242  -0.45124  -0.44725
 Alpha  occ. eigenvalues --   -0.44561  -0.44487  -0.44428  -0.44295  -0.44104
 Alpha  occ. eigenvalues --   -0.44002  -0.43912  -0.43673  -0.43534  -0.43142
 Alpha  occ. eigenvalues --   -0.43004  -0.42802  -0.42538  -0.42465  -0.42345
 Alpha  occ. eigenvalues --   -0.42104  -0.42016  -0.41982  -0.41732  -0.41650
 Alpha  occ. eigenvalues --   -0.41266  -0.41245  -0.40971  -0.40753  -0.40605
 Alpha  occ. eigenvalues --   -0.40405  -0.39773  -0.39214  -0.38629  -0.38447
 Alpha  occ. eigenvalues --   -0.38004  -0.37909  -0.37855  -0.37658  -0.37520
 Alpha  occ. eigenvalues --   -0.37401  -0.37003  -0.36841  -0.36274  -0.36232
 Alpha  occ. eigenvalues --   -0.35779  -0.35574  -0.34813  -0.34692  -0.34555
 Alpha  occ. eigenvalues --   -0.33829  -0.33207  -0.33155  -0.31275  -0.31137
 Alpha  occ. eigenvalues --   -0.30655  -0.29806  -0.29568  -0.29339  -0.24328
 Alpha  occ. eigenvalues --   -0.21426
 Alpha virt. eigenvalues --   -0.09242  -0.01873   0.00290   0.02281   0.02594
 Alpha virt. eigenvalues --    0.04825   0.05631   0.05786   0.06172   0.07062
 Alpha virt. eigenvalues --    0.07794   0.08275   0.08632   0.09159   0.09324

 Mulliken charges:
               1
     1  Mg   0.827064
     2  C   -0.016027
     3  C   -0.059126
     4  C   -0.083638
     5  C   -0.097090
     6  N   -0.327297
     7  C    0.003711
     8  C   -0.034318
     9  C   -0.026819
    10  C   -0.014027
    11  C    0.072153
    12  C    0.064775
    13  C    0.049804
    14  C    0.123189
    15  O   -0.198204
    16  O   -0.362038
    17  N   -0.354946
    18  C    0.172946
    19  C   -0.146381
    20  C   -0.042817
    21  C    0.148061
    22  C    0.145618
    23  C   -0.011629
    24  O   -0.208024
    25  C    0.070351
    26  N   -0.295524
    27  C    0.029056
    28  C   -0.047758
    29  C   -0.000466
    30  C    0.008123
    31  C    0.060953
    32  C    0.051365
    33  C   -0.033703
    34  N   -0.300404
    35  C    0.138805
    36  C   -0.171406
    37  C   -0.005379
    38  C    0.079826
    39  C    0.129382
    40  C    0.091748
    41  O   -0.197224
    42  C    0.020150
    43  C    0.115054
    44  O   -0.195058
    45  O   -0.304467
    46  C    0.168623
    47  C    0.299628
    48  C   -0.110371
    49  C   -0.207198
    50  C    0.084732
    51  C    0.104009
    52  C   -0.004522
    53  C    0.074804
    54  C   -0.138473
    55  C    0.028582
    56  C    0.014913
    57  C    0.011097
    58  C    0.090626
    59  C   -0.132885
    60  C    0.032206
    61  C    0.034280
    62  C   -0.000058
    63  C    0.070836
    64  C   -0.169659
    65  C    0.068668
    66  C    0.049789
    67  H   -0.031001
    68  H   -0.049269
    69  H   -0.038605
    70  H    0.003038
    71  H    0.009356
    72  H    0.032349
    73  H    0.031088
    74  H    0.025309
    75  H    0.017387
    76  H    0.032724
    77  H    0.018178
    78  H    0.015341
    79  H    0.039608
    80  H    0.021293
    81  H    0.000277
    82  H    0.033645
    83  H    0.052464
    84  H    0.027964
    85  H    0.022812
    86  H    0.013361
    87  H    0.028756
    88  H    0.009799
    89  H    0.008190
    90  H    0.021522
    91  H    0.016570
    92  H    0.028284
    93  H    0.012235
    94  H    0.017905
    95  H    0.021557
    96  H    0.017252
    97  H    0.037069
    98  H    0.017462
    99  H    0.032505
   100  H    0.051303
   101  H    0.044118
   102  H    0.032317
   103  H    0.040990
   104  H    0.010885
   105  H   -0.011475
   106  H    0.034652
   107  H    0.004145
   108  H   -0.020894
   109  H    0.018898
   110  H    0.002784
   111  H    0.005198
   112  H    0.003312
   113  H   -0.002791
   114  H    0.003346
   115  H    0.006530
   116  H    0.004330
   117  H   -0.006054
   118  H    0.005384
   119  H    0.005399
   120  H    0.003709
   121  H    0.018827
   122  H    0.004131
   123  H   -0.021613
   124  H   -0.006747
   125  H   -0.000015
   126  H    0.007830
   127  H   -0.002350
   128  H   -0.012972
   129  H   -0.000298
   130  H   -0.002208
   131  H    0.013490
   132  H    0.001269
   133  H   -0.001291
   134  H   -0.008356
   135  H   -0.000864
   136  H    0.009644
   137  H   -0.016260
   138  H    0.021504
   139  H   -0.010529
   140  H   -0.013698
 Sum of Mulliken charges =  -0.00000

 Dipole moment (field-independent basis, Debye):
    X=             -0.7265    Y=             -2.3058    Z=              1.1235  Tot=              2.6658
 Quadrupole moment (field-independent basis, Debye-Ang):
   XX=           -405.8929   YY=           -401.7216   ZZ=           -397.0969
   XY=             50.1710   XZ=              7.0358   YZ=            -15.9329

 Normal termination of Gaussian 16 at Wed May  4 19:34:21 2022.
