 Gaussian 16, Revision A.03,
 Gaussian 16:  ES64L-G16RevA.03 25-Dec-2016

 ---------------------------------
 #p PBE1PBE/Def2SVP td=(nstates=5)
 ---------------------------------

 -----------------------------------------------------
 step_401_chromophore_20 TDDFT with PBE1PBE functional
 -----------------------------------------------------
 Symbolic Z-matrix:
 Charge =  0 Multiplicity = 1

                         Standard orientation:
 ---------------------------------------------------------------------
 Center     Atomic      Atomic             Coordinates (Angstroms)
 Number     Number       Type             X           Y           Z
 ---------------------------------------------------------------------
      1         12           0       -3.854271   -1.225227   -0.736466
      2          6           0       -4.026151    2.083924   -0.947160
      3          6           0       -1.140743   -1.291138   -2.884165
      4          6           0       -3.169623   -4.497867    0.137914
      5          6           0       -6.498225   -1.184986    1.641175
      6          7           0       -2.836942    0.191965   -1.889093
      7          6           0       -3.024718    1.574158   -1.801501
      8          6           0       -2.055067    2.332014   -2.652369
      9          6           0       -1.517857    1.211363   -3.587245
     10          6           0       -1.810483   -0.054294   -2.746279
     11          6           0       -2.261272    1.046406   -5.055076
     12          6           0       -0.940679    2.998975   -1.726870
     13          6           0       -0.319422    4.187967   -2.457118
     14          6           0        1.182963    4.552717   -2.107932
     15          8           0        2.143415    4.594067   -2.818236
     16          8           0        1.250521    4.966443   -0.826458
     17          7           0       -2.375252   -2.685163   -1.299189
     18          6           0       -1.378099   -2.532867   -2.266309
     19          6           0       -0.570003   -3.686937   -2.338749
     20          6           0       -1.200602   -4.702223   -1.535783
     21          6           0       -2.279209   -3.959915   -0.826922
     22          6           0        0.591616   -3.847132   -3.257422
     23          6           0       -0.919065   -6.224951   -1.483222
     24          8           0        0.052010   -6.689506   -2.063491
     25          6           0       -1.739822   -7.176461   -0.727174
     26          7           0       -4.594475   -2.501229    0.870756
     27          6           0       -4.232252   -3.887890    0.865616
     28          6           0       -5.052171   -4.712923    1.848156
     29          6           0       -6.113179   -3.630134    2.345101
     30          6           0       -5.714106   -2.348671    1.596640
     31          6           0       -5.622505   -6.086499    1.342192
     32          6           0       -6.273706   -3.556771    3.862834
     33          6           0       -7.823536   -3.369531    4.306953
     34          7           0       -5.159429    0.179169    0.089324
     35          6           0       -6.137670    0.047961    1.015705
     36          6           0       -6.787137    1.289622    1.229292
     37          6           0       -6.035690    2.139392    0.383077
     38          6           0       -4.968405    1.434955   -0.128587
     39          6           0       -7.880236    1.565221    2.247000
     40          6           0       -5.814212    3.536104   -0.071420
     41          8           0       -6.425779    4.581473    0.224212
     42          6           0       -4.498705    3.561999   -0.895843
     43          6           0       -3.542796    4.407399   -0.217660
     44          8           0       -3.275122    4.277712    0.931806
     45          8           0       -3.091115    5.377247   -1.015960
     46          6           0       -2.160074    6.217402   -0.286914
     47          6           0        2.313636    5.938511   -0.427429
     48          6           0        3.534521    5.176518   -0.037066
     49          6           0        4.470852    5.419057    0.884956
     50          6           0        4.483045    6.613235    1.751026
     51          6           0        5.571575    4.369889    1.162245
     52          6           0        5.121853    3.060288    1.823803
     53          6           0        5.692272    2.797550    3.253392
     54          6           0        5.316146    1.346843    3.716520
     55          6           0        4.511684    1.462723    5.043141
     56          6           0        6.670404    0.476989    3.901569
     57          6           0        7.241942    0.054116    2.466453
     58          6           0        8.100359   -1.191926    2.676380
     59          6           0        7.520624   -2.418981    1.872590
     60          6           0        6.986088   -3.532184    2.829290
     61          6           0        8.374972   -3.043531    0.728318
     62          6           0        8.142356   -2.380768   -0.673794
     63          6           0        9.487759   -1.948574   -1.368943
     64          6           0       10.234648   -3.234959   -1.853961
     65          6           0       11.756081   -3.064037   -1.982976
     66          6           0        9.617575   -3.652141   -3.171702
     67          1           0       -0.331149   -1.163250   -3.606084
     68          1           0       -2.993117   -5.533912    0.436674
     69          1           0       -7.325567   -1.285445    2.346077
     70          1           0       -2.534024    3.184528   -3.133520
     71          1           0       -0.440188    1.329060   -3.706760
     72          1           0       -2.816569    1.964201   -5.249597
     73          1           0       -2.878417    0.149589   -5.094392
     74          1           0       -1.453256    0.823112   -5.751063
     75          1           0       -0.127381    2.311160   -1.493634
     76          1           0       -1.383741    3.355391   -0.797140
     77          1           0       -0.896942    5.080444   -2.214907
     78          1           0       -0.400139    4.118841   -3.541750
     79          1           0        0.543581   -4.711141   -3.920079
     80          1           0        1.447185   -4.100257   -2.631703
     81          1           0        0.874594   -2.914361   -3.742958
     82          1           0       -2.806870   -7.040265   -0.899448
     83          1           0       -1.499293   -7.042974    0.328238
     84          1           0       -1.477377   -8.189218   -1.034073
     85          1           0       -4.353781   -4.942122    2.652820
     86          1           0       -7.023299   -3.899498    1.809275
     87          1           0       -5.382388   -6.355898    0.314148
     88          1           0       -6.704512   -6.101672    1.481049
     89          1           0       -5.332706   -6.928248    1.970884
     90          1           0       -5.639620   -2.756824    4.244347
     91          1           0       -6.010579   -4.450509    4.429085
     92          1           0       -8.279054   -4.174181    4.883796
     93          1           0       -8.438985   -3.206219    3.421879
     94          1           0       -7.948910   -2.407531    4.804236
     95          1           0       -7.652879    1.078733    3.195950
     96          1           0       -8.845067    1.163595    1.938898
     97          1           0       -8.025183    2.637264    2.383576
     98          1           0       -4.527802    3.959112   -1.910289
     99          1           0       -1.706135    6.867819   -1.034905
    100          1           0       -1.367989    5.702519    0.256239
    101          1           0       -2.749506    6.819265    0.404731
    102          1           0        1.767834    6.381089    0.406690
    103          1           0        2.496213    6.561761   -1.302915
    104          1           0        3.485522    4.178154   -0.471082
    105          1           0        3.462547    6.988043    1.829012
    106          1           0        5.167171    7.441605    1.568545
    107          1           0        4.657559    6.347982    2.794015
    108          1           0        6.208314    4.913992    1.860042
    109          1           0        6.102474    4.267052    0.216968
    110          1           0        5.403322    2.257703    1.142122
    111          1           0        4.037429    3.127460    1.903989
    112          1           0        5.306961    3.545986    3.945880
    113          1           0        6.775510    2.778006    3.125634
    114          1           0        4.685132    0.776421    3.035324
    115          1           0        5.149703    1.363243    5.922298
    116          1           0        3.633554    0.817397    5.067736
    117          1           0        3.987735    2.397566    5.244348
    118          1           0        6.199273   -0.237754    4.575855
    119          1           0        7.417965    1.034904    4.466842
    120          1           0        7.933245    0.822807    2.121821
    121          1           0        6.501137   -0.159539    1.695442
    122          1           0        8.284589   -1.479911    3.711965
    123          1           0        9.078367   -0.926316    2.275567
    124          1           0        6.654974   -2.053751    1.318263
    125          1           0        7.464766   -4.511170    2.811175
    126          1           0        5.939627   -3.716916    2.584839
    127          1           0        7.094062   -3.330191    3.894392
    128          1           0        8.002758   -4.052013    0.549244
    129          1           0        9.407874   -3.216754    1.031191
    130          1           0        7.715219   -1.394466   -0.494087
    131          1           0        7.438799   -3.014990   -1.214863
    132          1           0       10.154336   -1.474455   -0.648477
    133          1           0        9.240276   -1.359814   -2.251639
    134          1           0       10.128454   -4.082623   -1.177055
    135          1           0       12.253531   -3.704799   -1.255077
    136          1           0       12.030103   -2.011557   -2.051903
    137          1           0       12.164447   -3.555489   -2.866701
    138          1           0        9.537318   -2.916652   -3.972391
    139          1           0        8.709961   -4.164085   -2.852762
    140          1           0       10.098161   -4.539035   -3.582292
 ---------------------------------------------------------------------

 SCF Done:  E(RPBE1PBE) =  -3005.34262977     A.U. after   15 cycles

 Excitation energies and oscillator strengths:

 Excited State   1:      Singlet-A      1.8157 eV  682.84 nm  f=0.3593  <S**2>=0.000
     245 -> 248       -0.16431
     246 -> 247        0.69588
     246 <- 247       -0.11424
 This state for optimization and/or second-order correction.
 Total Energy, E(TD-HF/TD-DFT) =  -3005.27590399
 Copying the excited state density for this state as the 1-particle RhoCI density.

 Excited State   2:      Singlet-A      2.2031 eV  562.77 nm  f=0.1222  <S**2>=0.000
     245 -> 247        0.65425
     246 -> 248        0.24748

 Excited State   3:      Singlet-A      2.7791 eV  446.13 nm  f=0.0038  <S**2>=0.000
     241 -> 247        0.12454
     244 -> 247        0.66947

 Excited State   4:      Singlet-A      2.8378 eV  436.90 nm  f=0.0069  <S**2>=0.000
     243 -> 247        0.68845

 Excited State   5:      Singlet-A      3.0007 eV  413.18 nm  f=0.0011  <S**2>=0.000
     241 -> 247        0.66143
     244 -> 247       -0.14198

 The electronic state is 1-A.
 Alpha  occ. eigenvalues --  -46.92284 -19.26761 -19.24569 -19.20071 -19.19418
 Alpha  occ. eigenvalues --  -19.18799 -19.18778 -14.42222 -14.41825 -14.39315
 Alpha  occ. eigenvalues --  -14.38153 -10.36220 -10.35180 -10.32208 -10.32180
 Alpha  occ. eigenvalues --  -10.30035 -10.29632 -10.29422 -10.29230 -10.28868
 Alpha  occ. eigenvalues --  -10.28602 -10.28346 -10.27560 -10.27292 -10.27057
 Alpha  occ. eigenvalues --  -10.26965 -10.26361 -10.26158 -10.25904 -10.25870
 Alpha  occ. eigenvalues --  -10.25667 -10.25560 -10.25338 -10.25291 -10.25201
 Alpha  occ. eigenvalues --  -10.25143 -10.25127 -10.25096 -10.24996 -10.24831
 Alpha  occ. eigenvalues --  -10.24506 -10.24399 -10.24143 -10.23743 -10.23615
 Alpha  occ. eigenvalues --  -10.23489 -10.23378 -10.23222 -10.23017 -10.22951
 Alpha  occ. eigenvalues --  -10.22943 -10.22925 -10.22877 -10.22555 -10.22517
 Alpha  occ. eigenvalues --  -10.22494 -10.22482 -10.22458 -10.22378 -10.22304
 Alpha  occ. eigenvalues --  -10.21938 -10.21916 -10.21521 -10.21283 -10.20973
 Alpha  occ. eigenvalues --  -10.20954  -3.14367  -1.87223  -1.86736  -1.86589
 Alpha  occ. eigenvalues --   -1.13914  -1.11869  -1.04770  -1.04522  -1.02895
 Alpha  occ. eigenvalues --   -1.02750  -1.00737  -0.98539  -0.97500  -0.96800
 Alpha  occ. eigenvalues --   -0.87099  -0.84520  -0.83949  -0.83228  -0.83081
 Alpha  occ. eigenvalues --   -0.82813  -0.82258  -0.81464  -0.81161  -0.80992
 Alpha  occ. eigenvalues --   -0.80364  -0.79519  -0.78575  -0.78143  -0.77594
 Alpha  occ. eigenvalues --   -0.76619  -0.76427  -0.75633  -0.75209  -0.74798
 Alpha  occ. eigenvalues --   -0.73826  -0.72478  -0.71986  -0.71544  -0.70690
 Alpha  occ. eigenvalues --   -0.70126  -0.69756  -0.69265  -0.68318  -0.68110
 Alpha  occ. eigenvalues --   -0.67842  -0.67294  -0.66503  -0.65177  -0.64400
 Alpha  occ. eigenvalues --   -0.63214  -0.62104  -0.61687  -0.60706  -0.60321
 Alpha  occ. eigenvalues --   -0.60008  -0.59930  -0.59532  -0.58878  -0.58001
 Alpha  occ. eigenvalues --   -0.57583  -0.57379  -0.56821  -0.55789  -0.55127
 Alpha  occ. eigenvalues --   -0.54567  -0.54164  -0.53611  -0.53359  -0.53223
 Alpha  occ. eigenvalues --   -0.52473  -0.52011  -0.51246  -0.50819  -0.50527
 Alpha  occ. eigenvalues --   -0.50005  -0.49416  -0.49190  -0.49058  -0.48344
 Alpha  occ. eigenvalues --   -0.48198  -0.47764  -0.47641  -0.47429  -0.47227
 Alpha  occ. eigenvalues --   -0.47109  -0.46893  -0.46593  -0.46153  -0.46097
 Alpha  occ. eigenvalues --   -0.45895  -0.45828  -0.45379  -0.45319  -0.45199
 Alpha  occ. eigenvalues --   -0.44984  -0.44770  -0.44670  -0.44180  -0.44073
 Alpha  occ. eigenvalues --   -0.43958  -0.43671  -0.43566  -0.43411  -0.43161
 Alpha  occ. eigenvalues --   -0.42948  -0.42750  -0.42704  -0.42273  -0.42241
 Alpha  occ. eigenvalues --   -0.41993  -0.41686  -0.41425  -0.41336  -0.41287
 Alpha  occ. eigenvalues --   -0.41194  -0.41048  -0.40911  -0.40357  -0.40247
 Alpha  occ. eigenvalues --   -0.40233  -0.40200  -0.39968  -0.39902  -0.39398
 Alpha  occ. eigenvalues --   -0.39372  -0.39240  -0.39217  -0.38952  -0.38864
 Alpha  occ. eigenvalues --   -0.38788  -0.38515  -0.38414  -0.38210  -0.37948
 Alpha  occ. eigenvalues --   -0.37805  -0.37607  -0.37353  -0.37284  -0.37207
 Alpha  occ. eigenvalues --   -0.36881  -0.36811  -0.36763  -0.36587  -0.36473
 Alpha  occ. eigenvalues --   -0.36133  -0.35966  -0.35863  -0.35653  -0.35330
 Alpha  occ. eigenvalues --   -0.35300  -0.34500  -0.34011  -0.33635  -0.33182
 Alpha  occ. eigenvalues --   -0.32891  -0.32761  -0.32632  -0.32620  -0.32546
 Alpha  occ. eigenvalues --   -0.32225  -0.31924  -0.31787  -0.31175  -0.31012
 Alpha  occ. eigenvalues --   -0.30697  -0.30458  -0.30023  -0.29622  -0.29452
 Alpha  occ. eigenvalues --   -0.28784  -0.28623  -0.28212  -0.26826  -0.25905
 Alpha  occ. eigenvalues --   -0.25764  -0.25073  -0.25006  -0.24868  -0.21239
 Alpha  occ. eigenvalues --   -0.19062
 Alpha virt. eigenvalues --   -0.11650  -0.05399  -0.03880  -0.02002  -0.00462
 Alpha virt. eigenvalues --    0.00560   0.01234   0.01348   0.01566   0.02872
 Alpha virt. eigenvalues --    0.04030   0.04217   0.05162   0.05885   0.06032

 Mulliken charges:
               1
     1  Mg   0.975508
     2  C   -0.037909
     3  C   -0.058828
     4  C   -0.080204
     5  C   -0.079789
     6  N   -0.430878
     7  C    0.078471
     8  C   -0.110497
     9  C   -0.100474
    10  C    0.023814
    11  C    0.016584
    12  C    0.013041
    13  C   -0.029612
    14  C    0.191346
    15  O   -0.233141
    16  O   -0.389078
    17  N   -0.466700
    18  C    0.194100
    19  C   -0.173367
    20  C   -0.086008
    21  C    0.177655
    22  C    0.088285
    23  C    0.039538
    24  O   -0.243370
    25  C   -0.012212
    26  N   -0.394536
    27  C    0.061073
    28  C   -0.117545
    29  C   -0.085595
    30  C    0.053413
    31  C    0.000400
    32  C   -0.008816
    33  C   -0.105064
    34  N   -0.429212
    35  C    0.151270
    36  C   -0.186584
    37  C   -0.052937
    38  C    0.140072
    39  C    0.073426
    40  C    0.188585
    41  O   -0.240822
    42  C   -0.097262
    43  C    0.216448
    44  O   -0.229544
    45  O   -0.338273
    46  C    0.105385
    47  C    0.253839
    48  C   -0.112301
    49  C   -0.255318
    50  C    0.020462
    51  C    0.042707
    52  C   -0.069701
    53  C    0.015970
    54  C   -0.218970
    55  C   -0.030236
    56  C   -0.042424
    57  C   -0.054175
    58  C    0.042401
    59  C   -0.221506
    60  C   -0.024005
    61  C   -0.014809
    62  C   -0.065189
    63  C    0.006107
    64  C   -0.260622
    65  C    0.009341
    66  C   -0.010258
    67  H    0.001050
    68  H   -0.013035
    69  H   -0.002551
    70  H    0.039673
    71  H    0.044444
    72  H    0.058849
    73  H    0.058311
    74  H    0.052370
    75  H    0.050355
    76  H    0.070899
    77  H    0.057750
    78  H    0.047666
    79  H    0.066039
    80  H    0.049676
    81  H    0.027412
    82  H    0.061274
    83  H    0.078906
    84  H    0.056241
    85  H    0.060420
    86  H    0.052610
    87  H    0.055760
    88  H    0.037258
    89  H    0.035795
    90  H    0.053452
    91  H    0.049397
    92  H    0.055613
    93  H    0.038197
    94  H    0.045206
    95  H    0.048737
    96  H    0.045915
    97  H    0.065170
    98  H    0.055146
    99  H    0.053488
   100  H    0.075209
   101  H    0.068220
   102  H    0.057367
   103  H    0.068079
   104  H    0.039583
   105  H    0.016717
   106  H    0.061551
   107  H    0.032538
   108  H    0.013221
   109  H    0.050781
   110  H    0.036252
   111  H    0.039426
   112  H    0.035269
   113  H    0.031483
   114  H    0.040080
   115  H    0.033700
   116  H    0.032186
   117  H    0.021356
   118  H    0.038710
   119  H    0.037824
   120  H    0.036014
   121  H    0.047255
   122  H    0.034777
   123  H    0.012476
   124  H    0.033027
   125  H    0.026579
   126  H    0.035334
   127  H    0.024014
   128  H    0.020978
   129  H    0.030699
   130  H    0.033844
   131  H    0.043956
   132  H    0.034476
   133  H    0.031721
   134  H    0.029813
   135  H    0.026576
   136  H    0.036431
   137  H    0.011470
   138  H    0.047531
   139  H    0.018833
   140  H    0.015677
 Sum of Mulliken charges =  -0.00000

 Dipole moment (field-independent basis, Debye):
    X=             -0.9129    Y=             -2.2758    Z=              1.3025  Tot=              2.7766
 Quadrupole moment (field-independent basis, Debye-Ang):
   XX=           -400.8523   YY=           -398.8025   ZZ=           -393.5065
   XY=             50.3626   XZ=              5.5939   YZ=            -16.5391

 Normal termination of Gaussian 16 at Wed May  4 20:05:56 2022.
