 Gaussian 16, Revision A.03,
 Gaussian 16:  ES64L-G16RevA.03 25-Dec-2016

 --------------------------------
 #p wB97XD/Def2SVP td=(nstates=5)
 --------------------------------

 ----------------------------------------------------
 step_401_chromophore_20 TDDFT with wB97XD functional
 ----------------------------------------------------
 Symbolic Z-matrix:
 Charge =  0 Multiplicity = 1

                         Standard orientation:
 ---------------------------------------------------------------------
 Center     Atomic      Atomic             Coordinates (Angstroms)
 Number     Number       Type             X           Y           Z
 ---------------------------------------------------------------------
      1         12           0       -3.854271   -1.225227   -0.736466
      2          6           0       -4.026151    2.083924   -0.947160
      3          6           0       -1.140743   -1.291138   -2.884165
      4          6           0       -3.169623   -4.497867    0.137914
      5          6           0       -6.498225   -1.184986    1.641175
      6          7           0       -2.836942    0.191965   -1.889093
      7          6           0       -3.024718    1.574158   -1.801501
      8          6           0       -2.055067    2.332014   -2.652369
      9          6           0       -1.517857    1.211363   -3.587245
     10          6           0       -1.810483   -0.054294   -2.746279
     11          6           0       -2.261272    1.046406   -5.055076
     12          6           0       -0.940679    2.998975   -1.726870
     13          6           0       -0.319422    4.187967   -2.457118
     14          6           0        1.182963    4.552717   -2.107932
     15          8           0        2.143415    4.594067   -2.818236
     16          8           0        1.250521    4.966443   -0.826458
     17          7           0       -2.375252   -2.685163   -1.299189
     18          6           0       -1.378099   -2.532867   -2.266309
     19          6           0       -0.570003   -3.686937   -2.338749
     20          6           0       -1.200602   -4.702223   -1.535783
     21          6           0       -2.279209   -3.959915   -0.826922
     22          6           0        0.591616   -3.847132   -3.257422
     23          6           0       -0.919065   -6.224951   -1.483222
     24          8           0        0.052010   -6.689506   -2.063491
     25          6           0       -1.739822   -7.176461   -0.727174
     26          7           0       -4.594475   -2.501229    0.870756
     27          6           0       -4.232252   -3.887890    0.865616
     28          6           0       -5.052171   -4.712923    1.848156
     29          6           0       -6.113179   -3.630134    2.345101
     30          6           0       -5.714106   -2.348671    1.596640
     31          6           0       -5.622505   -6.086499    1.342192
     32          6           0       -6.273706   -3.556771    3.862834
     33          6           0       -7.823536   -3.369531    4.306953
     34          7           0       -5.159429    0.179169    0.089324
     35          6           0       -6.137670    0.047961    1.015705
     36          6           0       -6.787137    1.289622    1.229292
     37          6           0       -6.035690    2.139392    0.383077
     38          6           0       -4.968405    1.434955   -0.128587
     39          6           0       -7.880236    1.565221    2.247000
     40          6           0       -5.814212    3.536104   -0.071420
     41          8           0       -6.425779    4.581473    0.224212
     42          6           0       -4.498705    3.561999   -0.895843
     43          6           0       -3.542796    4.407399   -0.217660
     44          8           0       -3.275122    4.277712    0.931806
     45          8           0       -3.091115    5.377247   -1.015960
     46          6           0       -2.160074    6.217402   -0.286914
     47          6           0        2.313636    5.938511   -0.427429
     48          6           0        3.534521    5.176518   -0.037066
     49          6           0        4.470852    5.419057    0.884956
     50          6           0        4.483045    6.613235    1.751026
     51          6           0        5.571575    4.369889    1.162245
     52          6           0        5.121853    3.060288    1.823803
     53          6           0        5.692272    2.797550    3.253392
     54          6           0        5.316146    1.346843    3.716520
     55          6           0        4.511684    1.462723    5.043141
     56          6           0        6.670404    0.476989    3.901569
     57          6           0        7.241942    0.054116    2.466453
     58          6           0        8.100359   -1.191926    2.676380
     59          6           0        7.520624   -2.418981    1.872590
     60          6           0        6.986088   -3.532184    2.829290
     61          6           0        8.374972   -3.043531    0.728318
     62          6           0        8.142356   -2.380768   -0.673794
     63          6           0        9.487759   -1.948574   -1.368943
     64          6           0       10.234648   -3.234959   -1.853961
     65          6           0       11.756081   -3.064037   -1.982976
     66          6           0        9.617575   -3.652141   -3.171702
     67          1           0       -0.331149   -1.163250   -3.606084
     68          1           0       -2.993117   -5.533912    0.436674
     69          1           0       -7.325567   -1.285445    2.346077
     70          1           0       -2.534024    3.184528   -3.133520
     71          1           0       -0.440188    1.329060   -3.706760
     72          1           0       -2.816569    1.964201   -5.249597
     73          1           0       -2.878417    0.149589   -5.094392
     74          1           0       -1.453256    0.823112   -5.751063
     75          1           0       -0.127381    2.311160   -1.493634
     76          1           0       -1.383741    3.355391   -0.797140
     77          1           0       -0.896942    5.080444   -2.214907
     78          1           0       -0.400139    4.118841   -3.541750
     79          1           0        0.543581   -4.711141   -3.920079
     80          1           0        1.447185   -4.100257   -2.631703
     81          1           0        0.874594   -2.914361   -3.742958
     82          1           0       -2.806870   -7.040265   -0.899448
     83          1           0       -1.499293   -7.042974    0.328238
     84          1           0       -1.477377   -8.189218   -1.034073
     85          1           0       -4.353781   -4.942122    2.652820
     86          1           0       -7.023299   -3.899498    1.809275
     87          1           0       -5.382388   -6.355898    0.314148
     88          1           0       -6.704512   -6.101672    1.481049
     89          1           0       -5.332706   -6.928248    1.970884
     90          1           0       -5.639620   -2.756824    4.244347
     91          1           0       -6.010579   -4.450509    4.429085
     92          1           0       -8.279054   -4.174181    4.883796
     93          1           0       -8.438985   -3.206219    3.421879
     94          1           0       -7.948910   -2.407531    4.804236
     95          1           0       -7.652879    1.078733    3.195950
     96          1           0       -8.845067    1.163595    1.938898
     97          1           0       -8.025183    2.637264    2.383576
     98          1           0       -4.527802    3.959112   -1.910289
     99          1           0       -1.706135    6.867819   -1.034905
    100          1           0       -1.367989    5.702519    0.256239
    101          1           0       -2.749506    6.819265    0.404731
    102          1           0        1.767834    6.381089    0.406690
    103          1           0        2.496213    6.561761   -1.302915
    104          1           0        3.485522    4.178154   -0.471082
    105          1           0        3.462547    6.988043    1.829012
    106          1           0        5.167171    7.441605    1.568545
    107          1           0        4.657559    6.347982    2.794015
    108          1           0        6.208314    4.913992    1.860042
    109          1           0        6.102474    4.267052    0.216968
    110          1           0        5.403322    2.257703    1.142122
    111          1           0        4.037429    3.127460    1.903989
    112          1           0        5.306961    3.545986    3.945880
    113          1           0        6.775510    2.778006    3.125634
    114          1           0        4.685132    0.776421    3.035324
    115          1           0        5.149703    1.363243    5.922298
    116          1           0        3.633554    0.817397    5.067736
    117          1           0        3.987735    2.397566    5.244348
    118          1           0        6.199273   -0.237754    4.575855
    119          1           0        7.417965    1.034904    4.466842
    120          1           0        7.933245    0.822807    2.121821
    121          1           0        6.501137   -0.159539    1.695442
    122          1           0        8.284589   -1.479911    3.711965
    123          1           0        9.078367   -0.926316    2.275567
    124          1           0        6.654974   -2.053751    1.318263
    125          1           0        7.464766   -4.511170    2.811175
    126          1           0        5.939627   -3.716916    2.584839
    127          1           0        7.094062   -3.330191    3.894392
    128          1           0        8.002758   -4.052013    0.549244
    129          1           0        9.407874   -3.216754    1.031191
    130          1           0        7.715219   -1.394466   -0.494087
    131          1           0        7.438799   -3.014990   -1.214863
    132          1           0       10.154336   -1.474455   -0.648477
    133          1           0        9.240276   -1.359814   -2.251639
    134          1           0       10.128454   -4.082623   -1.177055
    135          1           0       12.253531   -3.704799   -1.255077
    136          1           0       12.030103   -2.011557   -2.051903
    137          1           0       12.164447   -3.555489   -2.866701
    138          1           0        9.537318   -2.916652   -3.972391
    139          1           0        8.709961   -4.164085   -2.852762
    140          1           0       10.098161   -4.539035   -3.582292
 ---------------------------------------------------------------------

 SCF Done:  E(RwB97XD) =  -3007.85462086     A.U. after   18 cycles

 Excitation energies and oscillator strengths:

 Excited State   1:      Singlet-A      1.6012 eV  774.33 nm  f=0.3732  <S**2>=0.000
     245 -> 248       -0.17508
     246 -> 247        0.68609
     245 <- 248       -0.11584
 This state for optimization and/or second-order correction.
 Total Energy, E(TD-HF/TD-DFT) =  -3007.79577827
 Copying the excited state density for this state as the 1-particle RhoCI density.

 Excited State   2:      Singlet-A      2.1368 eV  580.23 nm  f=0.1244  <S**2>=0.000
     245 -> 247        0.64238
     246 -> 248        0.27518

 Excited State   3:      Singlet-A      3.1973 eV  387.78 nm  f=0.0010  <S**2>=0.000
     243 -> 247        0.47513
     244 -> 247        0.49052

 Excited State   4:      Singlet-A      3.2637 eV  379.89 nm  f=0.0040  <S**2>=0.000
     241 -> 249       -0.10501
     243 -> 247        0.47892
     244 -> 247       -0.44690
     244 -> 249       -0.11498
     246 -> 248       -0.12623

 Excited State   5:      Singlet-A      3.4753 eV  356.76 nm  f=0.0637  <S**2>=0.000
     241 -> 247        0.52278
     241 -> 249        0.23981
     241 -> 250       -0.16491
     246 -> 248       -0.27739

 The electronic state is 1-A.
 Alpha  occ. eigenvalues --  -46.95242 -19.31353 -19.29091 -19.24731 -19.24126
 Alpha  occ. eigenvalues --  -19.23691 -19.23550 -14.47428 -14.46835 -14.44364
 Alpha  occ. eigenvalues --  -14.43023 -10.42971 -10.41997 -10.39132 -10.38973
 Alpha  occ. eigenvalues --  -10.36537 -10.36054 -10.35652 -10.35636 -10.35407
 Alpha  occ. eigenvalues --  -10.34911 -10.34777 -10.34087 -10.33585 -10.33227
 Alpha  occ. eigenvalues --  -10.33203 -10.32590 -10.32554 -10.32522 -10.32072
 Alpha  occ. eigenvalues --  -10.31914 -10.31839 -10.31725 -10.31711 -10.31594
 Alpha  occ. eigenvalues --  -10.31592 -10.31579 -10.31416 -10.31412 -10.31221
 Alpha  occ. eigenvalues --  -10.30803 -10.30752 -10.30492 -10.30105 -10.30077
 Alpha  occ. eigenvalues --  -10.29949 -10.29640 -10.29547 -10.29498 -10.29415
 Alpha  occ. eigenvalues --  -10.29367 -10.29302 -10.29088 -10.28924 -10.28920
 Alpha  occ. eigenvalues --  -10.28881 -10.28832 -10.28776 -10.28770 -10.28677
 Alpha  occ. eigenvalues --  -10.28313 -10.28280 -10.27935 -10.27713 -10.27424
 Alpha  occ. eigenvalues --  -10.27387  -3.21184  -1.94789  -1.94302  -1.94152
 Alpha  occ. eigenvalues --   -1.21298  -1.19209  -1.12346  -1.11890  -1.10205
 Alpha  occ. eigenvalues --   -1.10173  -1.07937  -1.06018  -1.04950  -1.04239
 Alpha  occ. eigenvalues --   -0.94696  -0.92198  -0.91607  -0.90913  -0.90742
 Alpha  occ. eigenvalues --   -0.90386  -0.89939  -0.89087  -0.88718  -0.88660
 Alpha  occ. eigenvalues --   -0.88088  -0.87182  -0.86213  -0.85816  -0.85294
 Alpha  occ. eigenvalues --   -0.84338  -0.84074  -0.83249  -0.82852  -0.82437
 Alpha  occ. eigenvalues --   -0.81513  -0.80090  -0.79620  -0.79234  -0.78302
 Alpha  occ. eigenvalues --   -0.77743  -0.77433  -0.76973  -0.75999  -0.75785
 Alpha  occ. eigenvalues --   -0.75381  -0.74911  -0.74070  -0.72832  -0.71932
 Alpha  occ. eigenvalues --   -0.70761  -0.69751  -0.69235  -0.68353  -0.67796
 Alpha  occ. eigenvalues --   -0.67597  -0.67569  -0.66994  -0.66292  -0.65695
 Alpha  occ. eigenvalues --   -0.64995  -0.64868  -0.64443  -0.63435  -0.62630
 Alpha  occ. eigenvalues --   -0.62065  -0.61660  -0.61051  -0.60731  -0.60698
 Alpha  occ. eigenvalues --   -0.59987  -0.59467  -0.58739  -0.58242  -0.57887
 Alpha  occ. eigenvalues --   -0.57402  -0.56837  -0.56525  -0.56497  -0.55833
 Alpha  occ. eigenvalues --   -0.55639  -0.55160  -0.55075  -0.54791  -0.54629
 Alpha  occ. eigenvalues --   -0.54534  -0.54362  -0.53887  -0.53512  -0.53406
 Alpha  occ. eigenvalues --   -0.53279  -0.53212  -0.52680  -0.52611  -0.52542
 Alpha  occ. eigenvalues --   -0.52328  -0.52133  -0.51986  -0.51594  -0.51531
 Alpha  occ. eigenvalues --   -0.51383  -0.51021  -0.50861  -0.50721  -0.50395
 Alpha  occ. eigenvalues --   -0.50267  -0.49969  -0.49920  -0.49643  -0.49527
 Alpha  occ. eigenvalues --   -0.49213  -0.48982  -0.48670  -0.48527  -0.48489
 Alpha  occ. eigenvalues --   -0.48449  -0.48244  -0.48117  -0.47634  -0.47493
 Alpha  occ. eigenvalues --   -0.47457  -0.47334  -0.47126  -0.47039  -0.46592
 Alpha  occ. eigenvalues --   -0.46427  -0.46387  -0.46341  -0.46153  -0.46044
 Alpha  occ. eigenvalues --   -0.45961  -0.45767  -0.45605  -0.45410  -0.45084
 Alpha  occ. eigenvalues --   -0.44917  -0.44730  -0.44492  -0.44402  -0.44276
 Alpha  occ. eigenvalues --   -0.44004  -0.43950  -0.43906  -0.43710  -0.43576
 Alpha  occ. eigenvalues --   -0.43189  -0.43087  -0.42890  -0.42668  -0.42435
 Alpha  occ. eigenvalues --   -0.42320  -0.41611  -0.41092  -0.40542  -0.40270
 Alpha  occ. eigenvalues --   -0.39981  -0.39817  -0.39694  -0.39604  -0.39437
 Alpha  occ. eigenvalues --   -0.39246  -0.39003  -0.38839  -0.38185  -0.38061
 Alpha  occ. eigenvalues --   -0.37637  -0.37421  -0.36814  -0.36526  -0.36509
 Alpha  occ. eigenvalues --   -0.35777  -0.35380  -0.35065  -0.33448  -0.33110
 Alpha  occ. eigenvalues --   -0.32683  -0.31817  -0.31772  -0.31451  -0.26246
 Alpha  occ. eigenvalues --   -0.23229
 Alpha virt. eigenvalues --   -0.07598   0.00052   0.02375   0.04496   0.05542
 Alpha virt. eigenvalues --    0.07163   0.07989   0.08096   0.08332   0.09553
 Alpha virt. eigenvalues --    0.10355   0.11079   0.11879   0.12662   0.12797

 Mulliken charges:
               1
     1  Mg   0.965450
     2  C   -0.035093
     3  C   -0.071659
     4  C   -0.092820
     5  C   -0.098323
     6  N   -0.398995
     7  C    0.044731
     8  C   -0.080280
     9  C   -0.077893
    10  C    0.009495
    11  C    0.026332
    12  C    0.027023
    13  C   -0.006309
    14  C    0.179471
    15  O   -0.230136
    16  O   -0.388909
    17  N   -0.434915
    18  C    0.188047
    19  C   -0.162335
    20  C   -0.083428
    21  C    0.174547
    22  C    0.096789
    23  C    0.035463
    24  O   -0.238174
    25  C    0.004692
    26  N   -0.366619
    27  C    0.054782
    28  C   -0.095766
    29  C   -0.051775
    30  C    0.037970
    31  C    0.011895
    32  C    0.000354
    33  C   -0.087913
    34  N   -0.390234
    35  C    0.145946
    36  C   -0.183718
    37  C   -0.049141
    38  C    0.118461
    39  C    0.084459
    40  C    0.167304
    41  O   -0.232394
    42  C   -0.054085
    43  C    0.188798
    44  O   -0.224415
    45  O   -0.334799
    46  C    0.119220
    47  C    0.269866
    48  C   -0.126707
    49  C   -0.238266
    50  C    0.034428
    51  C    0.059883
    52  C   -0.050629
    53  C    0.034376
    54  C   -0.194102
    55  C   -0.019105
    56  C   -0.023685
    57  C   -0.034819
    58  C    0.051067
    59  C   -0.185865
    60  C   -0.013083
    61  C   -0.006505
    62  C   -0.046606
    63  C    0.025212
    64  C   -0.231466
    65  C    0.018897
    66  C    0.000846
    67  H   -0.004844
    68  H   -0.028452
    69  H   -0.013422
    70  H    0.026729
    71  H    0.035868
    72  H    0.054241
    73  H    0.052116
    74  H    0.047171
    75  H    0.043108
    76  H    0.055657
    77  H    0.042059
    78  H    0.041416
    79  H    0.063609
    80  H    0.045800
    81  H    0.023139
    82  H    0.053746
    83  H    0.074148
    84  H    0.055490
    85  H    0.050100
    86  H    0.037545
    87  H    0.049077
    88  H    0.031667
    89  H    0.030740
    90  H    0.046770
    91  H    0.041790
    92  H    0.051450
    93  H    0.030393
    94  H    0.039217
    95  H    0.042592
    96  H    0.040282
    97  H    0.061631
    98  H    0.048699
    99  H    0.051259
   100  H    0.070065
   101  H    0.065296
   102  H    0.053678
   103  H    0.064049
   104  H    0.035626
   105  H    0.009321
   106  H    0.057686
   107  H    0.025823
   108  H    0.002994
   109  H    0.044886
   110  H    0.027252
   111  H    0.028375
   112  H    0.026089
   113  H    0.018785
   114  H    0.028600
   115  H    0.027516
   116  H    0.027096
   117  H    0.014923
   118  H    0.028000
   119  H    0.029420
   120  H    0.028430
   121  H    0.035561
   122  H    0.026045
   123  H    0.004376
   124  H    0.016433
   125  H    0.020614
   126  H    0.030052
   127  H    0.017784
   128  H    0.011332
   129  H    0.021987
   130  H    0.021885
   131  H    0.037278
   132  H    0.024933
   133  H    0.023675
   134  H    0.018088
   135  H    0.021398
   136  H    0.031264
   137  H    0.005259
   138  H    0.042812
   139  H    0.010562
   140  H    0.009126
 Sum of Mulliken charges =  -0.00000

 Dipole moment (field-independent basis, Debye):
    X=             -0.6863    Y=             -2.4408    Z=              1.0998  Tot=              2.7637
 Quadrupole moment (field-independent basis, Debye-Ang):
   XX=           -402.4556   YY=           -396.9863   ZZ=           -393.1949
   XY=             50.4486   XZ=              6.4742   YZ=            -15.8436

 Normal termination of Gaussian 16 at Wed May  4 20:52:26 2022.
