 Gaussian 16, Revision A.03,
 Gaussian 16:  ES64L-G16RevA.03 25-Dec-2016

 --------------------
 #p ZINDO=(nstates=5)
 --------------------

 -----------------------------
 step_401_chromophore_20 ZINDO
 -----------------------------
 Symbolic Z-matrix:
 Charge =  0 Multiplicity = 1

                         Standard orientation:
 ---------------------------------------------------------------------
 Center     Atomic      Atomic             Coordinates (Angstroms)
 Number     Number       Type             X           Y           Z
 ---------------------------------------------------------------------
      1         12           0       -3.854271   -1.225227   -0.736466
      2          6           0       -4.026151    2.083924   -0.947160
      3          6           0       -1.140743   -1.291138   -2.884165
      4          6           0       -3.169623   -4.497867    0.137914
      5          6           0       -6.498225   -1.184986    1.641175
      6          7           0       -2.836942    0.191965   -1.889093
      7          6           0       -3.024718    1.574158   -1.801501
      8          6           0       -2.055067    2.332014   -2.652369
      9          6           0       -1.517857    1.211363   -3.587245
     10          6           0       -1.810483   -0.054294   -2.746279
     11          6           0       -2.261272    1.046406   -5.055076
     12          6           0       -0.940679    2.998975   -1.726870
     13          6           0       -0.319422    4.187967   -2.457118
     14          6           0        1.182963    4.552717   -2.107932
     15          8           0        2.143415    4.594067   -2.818236
     16          8           0        1.250521    4.966443   -0.826458
     17          7           0       -2.375252   -2.685163   -1.299189
     18          6           0       -1.378099   -2.532867   -2.266309
     19          6           0       -0.570003   -3.686937   -2.338749
     20          6           0       -1.200602   -4.702223   -1.535783
     21          6           0       -2.279209   -3.959915   -0.826922
     22          6           0        0.591616   -3.847132   -3.257422
     23          6           0       -0.919065   -6.224951   -1.483222
     24          8           0        0.052010   -6.689506   -2.063491
     25          6           0       -1.739822   -7.176461   -0.727174
     26          7           0       -4.594475   -2.501229    0.870756
     27          6           0       -4.232252   -3.887890    0.865616
     28          6           0       -5.052171   -4.712923    1.848156
     29          6           0       -6.113179   -3.630134    2.345101
     30          6           0       -5.714106   -2.348671    1.596640
     31          6           0       -5.622505   -6.086499    1.342192
     32          6           0       -6.273706   -3.556771    3.862834
     33          6           0       -7.823536   -3.369531    4.306953
     34          7           0       -5.159429    0.179169    0.089324
     35          6           0       -6.137670    0.047961    1.015705
     36          6           0       -6.787137    1.289622    1.229292
     37          6           0       -6.035690    2.139392    0.383077
     38          6           0       -4.968405    1.434955   -0.128587
     39          6           0       -7.880236    1.565221    2.247000
     40          6           0       -5.814212    3.536104   -0.071420
     41          8           0       -6.425779    4.581473    0.224212
     42          6           0       -4.498705    3.561999   -0.895843
     43          6           0       -3.542796    4.407399   -0.217660
     44          8           0       -3.275122    4.277712    0.931806
     45          8           0       -3.091115    5.377247   -1.015960
     46          6           0       -2.160074    6.217402   -0.286914
     47          6           0        2.313636    5.938511   -0.427429
     48          6           0        3.534521    5.176518   -0.037066
     49          6           0        4.470852    5.419057    0.884956
     50          6           0        4.483045    6.613235    1.751026
     51          6           0        5.571575    4.369889    1.162245
     52          6           0        5.121853    3.060288    1.823803
     53          6           0        5.692272    2.797550    3.253392
     54          6           0        5.316146    1.346843    3.716520
     55          6           0        4.511684    1.462723    5.043141
     56          6           0        6.670404    0.476989    3.901569
     57          6           0        7.241942    0.054116    2.466453
     58          6           0        8.100359   -1.191926    2.676380
     59          6           0        7.520624   -2.418981    1.872590
     60          6           0        6.986088   -3.532184    2.829290
     61          6           0        8.374972   -3.043531    0.728318
     62          6           0        8.142356   -2.380768   -0.673794
     63          6           0        9.487759   -1.948574   -1.368943
     64          6           0       10.234648   -3.234959   -1.853961
     65          6           0       11.756081   -3.064037   -1.982976
     66          6           0        9.617575   -3.652141   -3.171702
     67          1           0       -0.331149   -1.163250   -3.606084
     68          1           0       -2.993117   -5.533912    0.436674
     69          1           0       -7.325567   -1.285445    2.346077
     70          1           0       -2.534024    3.184528   -3.133520
     71          1           0       -0.440188    1.329060   -3.706760
     72          1           0       -2.816569    1.964201   -5.249597
     73          1           0       -2.878417    0.149589   -5.094392
     74          1           0       -1.453256    0.823112   -5.751063
     75          1           0       -0.127381    2.311160   -1.493634
     76          1           0       -1.383741    3.355391   -0.797140
     77          1           0       -0.896942    5.080444   -2.214907
     78          1           0       -0.400139    4.118841   -3.541750
     79          1           0        0.543581   -4.711141   -3.920079
     80          1           0        1.447185   -4.100257   -2.631703
     81          1           0        0.874594   -2.914361   -3.742958
     82          1           0       -2.806870   -7.040265   -0.899448
     83          1           0       -1.499293   -7.042974    0.328238
     84          1           0       -1.477377   -8.189218   -1.034073
     85          1           0       -4.353781   -4.942122    2.652820
     86          1           0       -7.023299   -3.899498    1.809275
     87          1           0       -5.382388   -6.355898    0.314148
     88          1           0       -6.704512   -6.101672    1.481049
     89          1           0       -5.332706   -6.928248    1.970884
     90          1           0       -5.639620   -2.756824    4.244347
     91          1           0       -6.010579   -4.450509    4.429085
     92          1           0       -8.279054   -4.174181    4.883796
     93          1           0       -8.438985   -3.206219    3.421879
     94          1           0       -7.948910   -2.407531    4.804236
     95          1           0       -7.652879    1.078733    3.195950
     96          1           0       -8.845067    1.163595    1.938898
     97          1           0       -8.025183    2.637264    2.383576
     98          1           0       -4.527802    3.959112   -1.910289
     99          1           0       -1.706135    6.867819   -1.034905
    100          1           0       -1.367989    5.702519    0.256239
    101          1           0       -2.749506    6.819265    0.404731
    102          1           0        1.767834    6.381089    0.406690
    103          1           0        2.496213    6.561761   -1.302915
    104          1           0        3.485522    4.178154   -0.471082
    105          1           0        3.462547    6.988043    1.829012
    106          1           0        5.167171    7.441605    1.568545
    107          1           0        4.657559    6.347982    2.794015
    108          1           0        6.208314    4.913992    1.860042
    109          1           0        6.102474    4.267052    0.216968
    110          1           0        5.403322    2.257703    1.142122
    111          1           0        4.037429    3.127460    1.903989
    112          1           0        5.306961    3.545986    3.945880
    113          1           0        6.775510    2.778006    3.125634
    114          1           0        4.685132    0.776421    3.035324
    115          1           0        5.149703    1.363243    5.922298
    116          1           0        3.633554    0.817397    5.067736
    117          1           0        3.987735    2.397566    5.244348
    118          1           0        6.199273   -0.237754    4.575855
    119          1           0        7.417965    1.034904    4.466842
    120          1           0        7.933245    0.822807    2.121821
    121          1           0        6.501137   -0.159539    1.695442
    122          1           0        8.284589   -1.479911    3.711965
    123          1           0        9.078367   -0.926316    2.275567
    124          1           0        6.654974   -2.053751    1.318263
    125          1           0        7.464766   -4.511170    2.811175
    126          1           0        5.939627   -3.716916    2.584839
    127          1           0        7.094062   -3.330191    3.894392
    128          1           0        8.002758   -4.052013    0.549244
    129          1           0        9.407874   -3.216754    1.031191
    130          1           0        7.715219   -1.394466   -0.494087
    131          1           0        7.438799   -3.014990   -1.214863
    132          1           0       10.154336   -1.474455   -0.648477
    133          1           0        9.240276   -1.359814   -2.251639
    134          1           0       10.128454   -4.082623   -1.177055
    135          1           0       12.253531   -3.704799   -1.255077
    136          1           0       12.030103   -2.011557   -2.051903
    137          1           0       12.164447   -3.555489   -2.866701
    138          1           0        9.537318   -2.916652   -3.972391
    139          1           0        8.709961   -4.164085   -2.852762
    140          1           0       10.098161   -4.539035   -3.582292
 ---------------------------------------------------------------------

 SCF Done:  E(RZINDO/S) =  -474.285597079     A.U. after   19 cycles

 Excitation energies and oscillator strengths:

 Excited State   1:      Singlet-A      1.1976 eV 1035.28 nm  f=0.6054  <S**2>=0.000
     175 ->178        -0.17749
     176 ->177         0.66599
 This state for optimization and/or second-order correction.
 Total Energy, E(CIS/TDA) =  -474.241586527
 Copying the excited state density for this state as the 1-particle RhoCI density.

 Excited State   2:      Singlet-A      1.8963 eV  653.82 nm  f=0.0583  <S**2>=0.000
     175 ->177         0.55563
     176 ->178         0.40841

 Excited State   3:      Singlet-A      2.9328 eV  422.75 nm  f=0.0235  <S**2>=0.000
     169 ->177         0.22921
     169 ->179         0.27247
     169 ->180         0.25632
     169 ->185         0.15145
     169 ->187         0.14529
     172 ->177         0.12308
     174 ->177         0.39349
     174 ->179         0.13199
     176 ->178        -0.11874

 Excited State   4:      Singlet-A      2.9719 eV  417.19 nm  f=0.0774  <S**2>=0.000
     168 ->177         0.26414
     168 ->178        -0.15954
     168 ->179        -0.31223
     168 ->180         0.28649
     168 ->184         0.10121
     168 ->185        -0.23333
     168 ->187         0.10854
     168 ->194         0.10815
     171 ->177         0.18071
     175 ->177        -0.10290
     176 ->178         0.16577

 Excited State   5:      Singlet-A      2.9890 eV  414.80 nm  f=0.8330  <S**2>=0.000
     168 ->179         0.12573
     169 ->177         0.11858
     169 ->179         0.11736
     169 ->180         0.11684
     174 ->177        -0.11028
     175 ->177        -0.33599
     176 ->178         0.48316

 The electronic state is 1-A.
 Alpha  occ. eigenvalues --   -1.88556  -1.81643  -1.79358  -1.77707  -1.74347
 Alpha  occ. eigenvalues --   -1.71039  -1.63556  -1.60361  -1.60140  -1.59313
 Alpha  occ. eigenvalues --   -1.54793  -1.50459  -1.47530  -1.47003  -1.45545
 Alpha  occ. eigenvalues --   -1.44932  -1.44285  -1.40900  -1.37682  -1.36886
 Alpha  occ. eigenvalues --   -1.34683  -1.32703  -1.32472  -1.31258  -1.27946
 Alpha  occ. eigenvalues --   -1.27704  -1.26696  -1.22892  -1.21061  -1.18316
 Alpha  occ. eigenvalues --   -1.17776  -1.15436  -1.14691  -1.13761  -1.12081
 Alpha  occ. eigenvalues --   -1.11819  -1.10923  -1.09954  -1.05991  -1.03872
 Alpha  occ. eigenvalues --   -1.02787  -1.01191  -0.98636  -0.97971  -0.97774
 Alpha  occ. eigenvalues --   -0.96425  -0.94547  -0.94114  -0.93821  -0.92097
 Alpha  occ. eigenvalues --   -0.91806  -0.90860  -0.88621  -0.87590  -0.85762
 Alpha  occ. eigenvalues --   -0.85478  -0.83633  -0.83291  -0.81226  -0.80952
 Alpha  occ. eigenvalues --   -0.79330  -0.78991  -0.76979  -0.76845  -0.76418
 Alpha  occ. eigenvalues --   -0.76146  -0.75515  -0.74272  -0.74077  -0.73712
 Alpha  occ. eigenvalues --   -0.73260  -0.72392  -0.71974  -0.71572  -0.70855
 Alpha  occ. eigenvalues --   -0.70430  -0.69537  -0.68933  -0.68609  -0.67755
 Alpha  occ. eigenvalues --   -0.67631  -0.67056  -0.66406  -0.65608  -0.65481
 Alpha  occ. eigenvalues --   -0.65254  -0.63946  -0.63702  -0.63538  -0.63194
 Alpha  occ. eigenvalues --   -0.62972  -0.62736  -0.62472  -0.62358  -0.61862
 Alpha  occ. eigenvalues --   -0.61535  -0.61292  -0.61103  -0.60492  -0.60102
 Alpha  occ. eigenvalues --   -0.59474  -0.59326  -0.58800  -0.58492  -0.58187
 Alpha  occ. eigenvalues --   -0.57419  -0.57232  -0.57003  -0.56942  -0.56820
 Alpha  occ. eigenvalues --   -0.56230  -0.55800  -0.55702  -0.55530  -0.55279
 Alpha  occ. eigenvalues --   -0.54867  -0.54503  -0.53574  -0.53315  -0.53011
 Alpha  occ. eigenvalues --   -0.52615  -0.52508  -0.52276  -0.52069  -0.51767
 Alpha  occ. eigenvalues --   -0.51269  -0.51125  -0.50837  -0.50679  -0.50535
 Alpha  occ. eigenvalues --   -0.50195  -0.49575  -0.49495  -0.49212  -0.48942
 Alpha  occ. eigenvalues --   -0.48459  -0.48430  -0.48146  -0.47948  -0.47608
 Alpha  occ. eigenvalues --   -0.47431  -0.47158  -0.46943  -0.46661  -0.46475
 Alpha  occ. eigenvalues --   -0.46272  -0.45829  -0.45433  -0.45360  -0.45170
 Alpha  occ. eigenvalues --   -0.44819  -0.44563  -0.44349  -0.44199  -0.44103
 Alpha  occ. eigenvalues --   -0.43916  -0.43577  -0.43352  -0.42910  -0.42655
 Alpha  occ. eigenvalues --   -0.41726  -0.41532  -0.40981  -0.39113  -0.38576
 Alpha  occ. eigenvalues --   -0.37722  -0.37391  -0.35822  -0.34993  -0.34802
 Alpha  occ. eigenvalues --   -0.33238  -0.32597  -0.31884  -0.31802  -0.27058
 Alpha  occ. eigenvalues --   -0.22043
 Alpha virt. eigenvalues --   -0.09134  -0.02351  -0.00656   0.01328   0.01939
 Alpha virt. eigenvalues --    0.02637   0.02903   0.03520   0.04395   0.05287
 Alpha virt. eigenvalues --    0.05803   0.06532   0.06917   0.07367   0.07796

 Mulliken charges:
               1
     1  Mg   0.429300
     2  C   -0.047183
     3  C   -0.071642
     4  C   -0.096377
     5  C   -0.085740
     6  N   -0.280636
     7  C    0.101517
     8  C    0.011245
     9  C    0.000766
    10  C    0.144403
    11  C   -0.052388
    12  C   -0.018222
    13  C   -0.000918
    14  C    0.465018
    15  O   -0.508821
    16  O   -0.297734
    17  N   -0.338229
    18  C    0.120760
    19  C    0.053507
    20  C   -0.063250
    21  C    0.142674
    22  C   -0.039433
    23  C    0.334340
    24  O   -0.522903
    25  C   -0.019754
    26  N   -0.283516
    27  C    0.135664
    28  C   -0.001200
    29  C    0.006477
    30  C    0.125551
    31  C   -0.052824
    32  C   -0.025280
    33  C   -0.070391
    34  N   -0.308761
    35  C    0.098778
    36  C    0.012330
    37  C   -0.049282
    38  C    0.125272
    39  C   -0.034005
    40  C    0.332440
    41  O   -0.528631
    42  C    0.048125
    43  C    0.504558
    44  O   -0.526055
    45  O   -0.267194
    46  C    0.076842
    47  C    0.111082
    48  C   -0.077308
    49  C   -0.004768
    50  C   -0.041936
    51  C   -0.028943
    52  C   -0.031308
    53  C   -0.036462
    54  C   -0.028046
    55  C   -0.066094
    56  C   -0.049090
    57  C   -0.032873
    58  C   -0.034214
    59  C   -0.015110
    60  C   -0.063631
    61  C   -0.037916
    62  C   -0.042249
    63  C   -0.032644
    64  C   -0.013370
    65  C   -0.067149
    66  C   -0.060851
    67  H    0.024807
    68  H    0.028586
    69  H    0.031498
    70  H    0.032019
    71  H    0.031561
    72  H    0.033618
    73  H    0.031782
    74  H    0.025472
    75  H    0.032107
    76  H    0.042166
    77  H    0.040107
    78  H    0.030614
    79  H    0.047670
    80  H    0.031894
    81  H    0.023478
    82  H    0.031726
    83  H    0.045116
    84  H    0.036442
    85  H    0.033633
    86  H    0.030958
    87  H    0.028595
    88  H    0.017888
    89  H    0.017590
    90  H    0.029647
    91  H    0.021365
    92  H    0.029828
    93  H    0.014518
    94  H    0.018726
    95  H    0.028008
    96  H    0.026446
    97  H    0.033057
    98  H    0.044104
    99  H    0.019713
   100  H    0.050603
   101  H    0.046769
   102  H    0.043795
   103  H    0.059802
   104  H    0.033663
   105  H    0.011793
   106  H    0.036148
   107  H    0.017493
   108  H    0.011441
   109  H    0.029240
   110  H    0.021689
   111  H    0.022108
   112  H    0.032671
   113  H    0.021703
   114  H    0.027540
   115  H    0.018688
   116  H    0.014620
   117  H    0.011230
   118  H    0.029197
   119  H    0.025828
   120  H    0.021182
   121  H    0.035704
   122  H    0.026670
   123  H    0.008737
   124  H    0.018551
   125  H    0.016039
   126  H    0.015718
   127  H    0.014798
   128  H    0.008016
   129  H    0.025245
   130  H    0.008550
   131  H    0.035908
   132  H    0.025832
   133  H    0.025951
   134  H    0.022365
   135  H    0.019717
   136  H    0.025796
   137  H    0.008702
   138  H    0.032890
   139  H    0.012665
   140  H    0.003888
 Sum of Mulliken charges =  -0.00000

 Dipole moment (field-independent basis, Debye):
    X=             -1.5264    Y=             -3.8777    Z=             -0.0382  Tot=              4.1674
 N-N= 4.500921138587D+03 E-N= 0.000000000000D+00  KE=-9.676080650460D+03
 Leave Link  601 at Wed May  4 21:17:52 2022, MaxMem=  6710886400 cpu:               0.7 elap:               0.0
 (Enter /sw/apps/gaussian-16.0/g16/l9999.exe)
 1\1\GINC-BP1-COMPUTE130\SP\RZINDO CIS\STO-3G\C55H74Mg1N4O6\OF15641\04-
 May-2022\0\\#p ZINDO=(nstates=5)\\step_401_chromophore_20 ZINDO\\0,1\M
 g,0,6.701,56.636,40.983\C,0,5.504,53.539,40.969\C,0,9.604,55.596,39.41
 1\C,0,7.546,59.907,40.255\C,0,3.647,57.782,42.399\N,0,7.509,54.79,40.4
 25\C,0,6.817,53.576,40.452\C,0,7.616,52.456,39.864\C,0,9.046,53.067,39
 .849\C,0,8.731,54.582,39.866\C,0,10.017,52.721,41.142\C,0,7.046,52.095
 ,38.419\C,0,7.434,50.661,38.064\C,0,7.616,50.315,36.528\O,0,8.577,49.9

 Normal termination of Gaussian 16 at Wed May  4 21:17:53 2022.
