 Gaussian 16, Revision A.03,
 Gaussian 16:  ES64L-G16RevA.03 25-Dec-2016

 ------------------------------
 #p blyp/Def2SVP td=(nstates=5)
 ------------------------------

 -------------------------------------------------
 step_301_chromophore_3 TDDFT with blyp functional
 -------------------------------------------------
 Symbolic Z-matrix:
 Charge =  0 Multiplicity = 1

                         Standard orientation:
 ---------------------------------------------------------------------
 Center     Atomic      Atomic             Coordinates (Angstroms)
 Number     Number       Type             X           Y           Z
 ---------------------------------------------------------------------
      1         12           0       -5.345429    0.723121   -0.134916
      2          6           0       -3.874278   -2.499251   -0.161522
      3          6           0       -2.207410    2.031345    0.065666
      4          6           0       -6.722792    3.735405    0.176633
      5          6           0       -8.439066   -0.872954    0.427764
      6          7           0       -3.296989   -0.182342   -0.134718
      7          6           0       -2.921360   -1.462822   -0.274227
      8          6           0       -1.371128   -1.626615   -0.401607
      9          6           0       -0.810285   -0.198427   -0.071454
     10          6           0       -2.203124    0.690600   -0.089139
     11          6           0       -0.105794   -0.220692    1.372482
     12          6           0       -0.882278   -2.253300   -1.776152
     13          6           0        0.186871   -3.249129   -1.675312
     14          6           0        1.430407   -3.059366   -0.769072
     15          8           0        1.895988   -3.872738   -0.020305
     16          8           0        2.004528   -1.843224   -0.998055
     17          7           0       -4.616977    2.656482    0.095678
     18          6           0       -3.298123    2.977481    0.232769
     19          6           0       -3.247039    4.433988    0.411969
     20          6           0       -4.511670    4.984339    0.313494
     21          6           0       -5.364750    3.814009    0.086564
     22          6           0       -1.949949    5.084734    0.527737
     23          6           0       -5.032016    6.429553    0.349830
     24          8           0       -6.154634    6.870649    0.080965
     25          6           0       -3.973617    7.416376    0.561371
     26          7           0       -7.277727    1.346125    0.215088
     27          6           0       -7.607491    2.657592    0.211219
     28          6           0       -9.098852    2.873637    0.517017
     29          6           0       -9.676325    1.391705    0.466523
     30          6           0       -8.406748    0.534150    0.414349
     31          6           0       -9.344974    3.519210    1.907360
     32          6           0      -10.702389    1.176469   -0.735998
     33          6           0      -12.093262    0.527498   -0.466305
     34          7           0       -6.078883   -1.297008    0.024417
     35          6           0       -7.402853   -1.807403    0.237034
     36          6           0       -7.343561   -3.237849    0.309302
     37          6           0       -5.951185   -3.568155    0.117751
     38          6           0       -5.277366   -2.372533   -0.026213
     39          6           0       -8.466236   -4.160558    0.429959
     40          6           0       -5.003163   -4.673773    0.231804
     41          8           0       -5.180731   -5.837412    0.542506
     42          6           0       -3.641470   -4.021803   -0.191012
     43          6           0       -2.708687   -4.466721    0.950636
     44          8           0       -2.456834   -3.833002    2.009562
     45          8           0       -2.148981   -5.640049    0.551296
     46          6           0       -0.971328   -5.991378    1.279227
     47          6           0        3.307536   -1.610928   -0.337224
     48          6           0        4.254805   -1.491431   -1.505946
     49          6           0        5.278470   -2.282432   -1.837684
     50          6           0        5.562838   -3.644989   -1.193208
     51          6           0        6.163431   -1.919454   -3.021365
     52          6           0        7.311124   -0.842486   -2.810962
     53          6           0        7.338580    0.315923   -3.812859
     54          6           0        8.731630    1.059040   -3.757284
     55          6           0        9.034723    1.771762   -5.034827
     56          6           0        8.803835    1.980973   -2.448275
     57          6           0        9.906408    1.617330   -1.485141
     58          6           0       10.246547    2.845710   -0.523482
     59          6           0       11.564988    2.726794    0.243625
     60          6           0       12.641894    3.089671   -0.685719
     61          6           0       11.890226    1.308528    0.862979
     62          6           0       12.502239    1.537292    2.259727
     63          6           0       12.918974    0.165508    2.811727
     64          6           0       12.919051    0.032514    4.363685
     65          6           0       14.284841   -0.530772    5.008665
     66          6           0       11.681561   -0.750809    4.865468
     67          1           0       -1.186584    2.397741    0.195858
     68          1           0       -7.127676    4.736006    0.342391
     69          1           0       -9.423203   -1.323952    0.575008
     70          1           0       -1.113481   -2.319954    0.399062
     71          1           0       -0.122500    0.290739   -0.762543
     72          1           0        0.279142   -1.205259    1.636616
     73          1           0       -0.614954    0.096965    2.282197
     74          1           0        0.737147    0.464536    1.291771
     75          1           0       -0.715206   -1.546886   -2.590248
     76          1           0       -1.752498   -2.754654   -2.198498
     77          1           0        0.620307   -3.450081   -2.655502
     78          1           0       -0.180345   -4.207317   -1.306748
     79          1           0       -1.273746    4.348960    0.961474
     80          1           0       -1.964161    5.789683    1.359795
     81          1           0       -1.722238    5.529679   -0.440546
     82          1           0       -3.708221    7.545534    1.611007
     83          1           0       -4.381232    8.421102    0.443331
     84          1           0       -3.054708    7.421799   -0.024378
     85          1           0       -9.290099    3.481470   -0.366957
     86          1           0      -10.237991    1.242524    1.388685
     87          1           0       -9.136195    4.563019    1.674809
     88          1           0       -8.604390    3.201204    2.641452
     89          1           0      -10.395117    3.515521    2.198577
     90          1           0      -10.144653    0.634753   -1.500035
     91          1           0      -10.988735    2.156998   -1.117390
     92          1           0      -11.933700    0.200997    0.561412
     93          1           0      -12.167040   -0.345966   -1.113784
     94          1           0      -12.790891    1.363238   -0.419166
     95          1           0       -8.267834   -5.089236   -0.105909
     96          1           0       -9.383376   -3.828873   -0.056647
     97          1           0       -8.654505   -4.399500    1.476682
     98          1           0       -3.312102   -4.216558   -1.211703
     99          1           0       -1.148736   -5.926121    2.352219
    100          1           0       -0.216964   -5.248916    1.022664
    101          1           0       -0.591602   -6.979417    1.015820
    102          1           0        3.713749   -2.347822    0.355180
    103          1           0        3.231534   -0.652167    0.177051
    104          1           0        4.095324   -0.547093   -2.026341
    105          1           0        5.453279   -4.414402   -1.957880
    106          1           0        4.882978   -3.875947   -0.372980
    107          1           0        6.597079   -3.588079   -0.855592
    108          1           0        5.506981   -1.882364   -3.891267
    109          1           0        6.880939   -2.700697   -3.272620
    110          1           0        8.268895   -1.359062   -2.880585
    111          1           0        7.242560   -0.434116   -1.802755
    112          1           0        6.513014    0.959543   -3.508037
    113          1           0        7.347924   -0.046700   -4.840487
    114          1           0        9.351482    0.186437   -3.552247
    115          1           0        9.488989    2.705182   -4.701734
    116          1           0        8.137175    1.999231   -5.609422
    117          1           0        9.841121    1.281344   -5.581365
    118          1           0        7.870890    1.896311   -1.891869
    119          1           0        8.887186    3.025951   -2.745482
    120          1           0       10.729399    1.220888   -2.080773
    121          1           0        9.524048    0.794950   -0.880914
    122          1           0        9.433405    2.935138    0.197512
    123          1           0       10.206899    3.781164   -1.081875
    124          1           0       11.451201    3.453530    1.047130
    125          1           0       13.576060    3.316204   -0.174412
    126          1           0       12.446418    4.004394   -1.245412
    127          1           0       12.807034    2.270396   -1.385960
    128          1           0       12.557723    0.670850    0.283125
    129          1           0       10.920517    0.835826    1.021482
    130          1           0       11.705811    1.948386    2.880651
    131          1           0       13.387359    2.144179    2.068523
    132          1           0       13.934101    0.017978    2.441823
    133          1           0       12.362172   -0.697275    2.446796
    134          1           0       12.909028    1.035585    4.790981
    135          1           0       15.001284   -0.667131    4.198722
    136          1           0       14.078933   -1.512327    5.436516
    137          1           0       14.704785    0.088025    5.801644
    138          1           0       11.438825   -0.600983    5.918307
    139          1           0       11.900179   -1.818582    4.872969
    140          1           0       10.843838   -0.559198    4.194727
 ---------------------------------------------------------------------

 SCF Done:  E(RB-LYP) =  -3007.37520036     A.U. after   21 cycles

 Excitation energies and oscillator strengths:

 Excited State   1:      Singlet-A      1.8189 eV  681.65 nm  f=0.3243  <S**2>=0.000
     245 -> 248       -0.15541
     245 -> 249        0.12336
     246 -> 247        0.68772
     246 <- 247       -0.15242
 This state for optimization and/or second-order correction.
 Total Energy, E(TD-HF/TD-DFT) =  -3007.30835776
 Copying the excited state density for this state as the 1-particle RhoCI density.

 Excited State   2:      Singlet-A      1.9590 eV  632.88 nm  f=0.0224  <S**2>=0.000
     244 -> 247        0.62350
     245 -> 247        0.30692

 Excited State   3:      Singlet-A      1.9815 eV  625.71 nm  f=0.0587  <S**2>=0.000
     242 -> 247        0.11695
     244 -> 247       -0.32501
     245 -> 247        0.57869
     246 -> 248        0.16149
     246 -> 249       -0.11681

 Excited State   4:      Singlet-A      2.1840 eV  567.68 nm  f=0.0007  <S**2>=0.000
     243 -> 247        0.70103

 Excited State   5:      Singlet-A      2.3847 eV  519.92 nm  f=0.0118  <S**2>=0.000
     242 -> 247        0.67756
     246 -> 248       -0.10829

 The electronic state is 1-A.
 Alpha  occ. eigenvalues --  -46.26798 -18.82423 -18.82014 -18.77552 -18.76813
 Alpha  occ. eigenvalues --  -18.76543 -18.75704 -14.03184 -14.03169 -14.01094
 Alpha  occ. eigenvalues --  -13.99973 -10.04401 -10.04082 -10.00693  -9.99557
 Alpha  occ. eigenvalues --   -9.97986  -9.96678  -9.96642  -9.96499  -9.96331
 Alpha  occ. eigenvalues --   -9.96135  -9.96060  -9.95138  -9.95104  -9.94850
 Alpha  occ. eigenvalues --   -9.94279  -9.93933  -9.93738  -9.93710  -9.93701
 Alpha  occ. eigenvalues --   -9.93592  -9.93564  -9.93480  -9.93458  -9.93453
 Alpha  occ. eigenvalues --   -9.93106  -9.92990  -9.92981  -9.92793  -9.92569
 Alpha  occ. eigenvalues --   -9.92385  -9.92302  -9.92291  -9.92239  -9.92238
 Alpha  occ. eigenvalues --   -9.92089  -9.92073  -9.91953  -9.91863  -9.91832
 Alpha  occ. eigenvalues --   -9.91589  -9.91567  -9.91458  -9.91450  -9.91448
 Alpha  occ. eigenvalues --   -9.91384  -9.91308  -9.91282  -9.91208  -9.91029
 Alpha  occ. eigenvalues --   -9.91020  -9.90942  -9.90914  -9.90894  -9.90574
 Alpha  occ. eigenvalues --   -9.90283  -2.91402  -1.71840  -1.71253  -1.71135
 Alpha  occ. eigenvalues --   -0.98859  -0.97778  -0.91688  -0.91411  -0.91008
 Alpha  occ. eigenvalues --   -0.88691  -0.85911  -0.85053  -0.84887  -0.83979
 Alpha  occ. eigenvalues --   -0.74836  -0.73793  -0.73426  -0.72930  -0.72207
 Alpha  occ. eigenvalues --   -0.72116  -0.71296  -0.71192  -0.70791  -0.70429
 Alpha  occ. eigenvalues --   -0.69852  -0.68784  -0.68074  -0.67353  -0.67271
 Alpha  occ. eigenvalues --   -0.66765  -0.66245  -0.65617  -0.65300  -0.64796
 Alpha  occ. eigenvalues --   -0.64335  -0.62910  -0.61892  -0.61655  -0.60729
 Alpha  occ. eigenvalues --   -0.59919  -0.59780  -0.59647  -0.59331  -0.58903
 Alpha  occ. eigenvalues --   -0.58544  -0.57499  -0.56471  -0.56052  -0.53748
 Alpha  occ. eigenvalues --   -0.53519  -0.53390  -0.52620  -0.52109  -0.52008
 Alpha  occ. eigenvalues --   -0.51486  -0.51169  -0.51044  -0.49969  -0.49814
 Alpha  occ. eigenvalues --   -0.49573  -0.49199  -0.47987  -0.47528  -0.46613
 Alpha  occ. eigenvalues --   -0.46272  -0.45904  -0.45611  -0.44764  -0.44550
 Alpha  occ. eigenvalues --   -0.44118  -0.43600  -0.43102  -0.42826  -0.42471
 Alpha  occ. eigenvalues --   -0.42219  -0.41937  -0.41636  -0.41430  -0.41309
 Alpha  occ. eigenvalues --   -0.41100  -0.40822  -0.40793  -0.40388  -0.40243
 Alpha  occ. eigenvalues --   -0.40179  -0.39894  -0.39688  -0.39411  -0.39367
 Alpha  occ. eigenvalues --   -0.39021  -0.38896  -0.38508  -0.38429  -0.38261
 Alpha  occ. eigenvalues --   -0.38054  -0.37963  -0.37761  -0.37711  -0.37439
 Alpha  occ. eigenvalues --   -0.37340  -0.37055  -0.36917  -0.36565  -0.36516
 Alpha  occ. eigenvalues --   -0.36331  -0.35960  -0.35908  -0.35726  -0.35493
 Alpha  occ. eigenvalues --   -0.35442  -0.35288  -0.34956  -0.34835  -0.34606
 Alpha  occ. eigenvalues --   -0.34378  -0.34208  -0.34130  -0.33989  -0.33876
 Alpha  occ. eigenvalues --   -0.33759  -0.33346  -0.33098  -0.33023  -0.32817
 Alpha  occ. eigenvalues --   -0.32794  -0.32583  -0.32443  -0.32185  -0.32086
 Alpha  occ. eigenvalues --   -0.31904  -0.31819  -0.31586  -0.31430  -0.31146
 Alpha  occ. eigenvalues --   -0.31039  -0.30896  -0.30846  -0.30624  -0.30512
 Alpha  occ. eigenvalues --   -0.30469  -0.30205  -0.30097  -0.29798  -0.29552
 Alpha  occ. eigenvalues --   -0.29458  -0.29269  -0.28907  -0.28871  -0.28583
 Alpha  occ. eigenvalues --   -0.28465  -0.28350  -0.28226  -0.28020  -0.27944
 Alpha  occ. eigenvalues --   -0.27824  -0.27415  -0.26768  -0.26717  -0.26299
 Alpha  occ. eigenvalues --   -0.26200  -0.26008  -0.25916  -0.25773  -0.25528
 Alpha  occ. eigenvalues --   -0.25087  -0.24440  -0.24376  -0.23948  -0.23636
 Alpha  occ. eigenvalues --   -0.23196  -0.22888  -0.22222  -0.21737  -0.21259
 Alpha  occ. eigenvalues --   -0.21030  -0.19730  -0.19537  -0.18713  -0.17161
 Alpha  occ. eigenvalues --   -0.15867
 Alpha virt. eigenvalues --   -0.11608  -0.07019  -0.05902  -0.04955  -0.03142
 Alpha virt. eigenvalues --   -0.02825  -0.01952  -0.01671  -0.01009   0.00235
 Alpha virt. eigenvalues --    0.01430   0.01731   0.02207   0.02422   0.02865

 Mulliken charges:
               1
     1  Mg   0.682332
     2  C   -0.008946
     3  C   -0.015006
     4  C   -0.047192
     5  C   -0.059952
     6  N   -0.212444
     7  C   -0.089882
     8  C    0.027517
     9  C   -0.002080
    10  C    0.013417
    11  C    0.081338
    12  C    0.183711
    13  C    0.114939
    14  C    0.058526
    15  O   -0.168185
    16  O   -0.277767
    17  N   -0.300286
    18  C    0.130478
    19  C   -0.171951
    20  C    0.025315
    21  C    0.069156
    22  C    0.199180
    23  C   -0.020926
    24  O   -0.157409
    25  C    0.118313
    26  N   -0.253526
    27  C    0.037407
    28  C   -0.015755
    29  C    0.042615
    30  C    0.054686
    31  C    0.141261
    32  C    0.037741
    33  C    0.093288
    34  N   -0.264258
    35  C    0.114975
    36  C   -0.145123
    37  C    0.064672
    38  C    0.091538
    39  C    0.167635
    40  C   -0.037997
    41  O   -0.122618
    42  C    0.024567
    43  C    0.138349
    44  O   -0.217989
    45  O   -0.238282
    46  C    0.219135
    47  C    0.327663
    48  C   -0.119179
    49  C   -0.139899
    50  C    0.147328
    51  C    0.145341
    52  C    0.029359
    53  C    0.091570
    54  C   -0.111662
    55  C    0.179615
    56  C    0.097511
    57  C    0.052711
    58  C    0.073162
    59  C   -0.003408
    60  C    0.129095
    61  C    0.058965
    62  C    0.085033
    63  C    0.097787
    64  C   -0.079999
    65  C    0.079338
    66  C    0.099291
    67  H   -0.067985
    68  H   -0.050404
    69  H   -0.069576
    70  H    0.002379
    71  H   -0.014864
    72  H    0.009017
    73  H    0.001229
    74  H   -0.018645
    75  H   -0.031179
    76  H   -0.039316
    77  H    0.000949
    78  H   -0.012493
    79  H   -0.017946
    80  H   -0.014732
    81  H    0.025932
    82  H    0.001842
    83  H   -0.030350
    84  H    0.010500
    85  H   -0.011343
    86  H   -0.031531
    87  H   -0.006381
    88  H    0.009558
    89  H   -0.001140
    90  H   -0.018716
    91  H   -0.022475
    92  H   -0.022789
    93  H    0.009932
    94  H    0.002978
    95  H   -0.000830
    96  H   -0.014585
    97  H    0.009595
    98  H    0.021638
    99  H    0.011648
   100  H    0.005148
   101  H    0.011059
   102  H    0.005096
   103  H   -0.012305
   104  H   -0.044497
   105  H    0.005067
   106  H   -0.001107
   107  H   -0.003678
   108  H   -0.007199
   109  H   -0.049365
   110  H   -0.028761
   111  H   -0.020266
   112  H   -0.020073
   113  H   -0.034745
   114  H   -0.042635
   115  H   -0.035048
   116  H   -0.007236
   117  H   -0.015823
   118  H   -0.042597
   119  H   -0.040883
   120  H   -0.023212
   121  H   -0.028321
   122  H   -0.045416
   123  H   -0.036918
   124  H   -0.049606
   125  H   -0.033323
   126  H   -0.032927
   127  H   -0.018447
   128  H   -0.025013
   129  H   -0.037158
   130  H   -0.018518
   131  H   -0.022162
   132  H   -0.045873
   133  H   -0.034526
   134  H   -0.034501
   135  H   -0.020047
   136  H   -0.024724
   137  H   -0.006420
   138  H   -0.016888
   139  H   -0.019725
   140  H   -0.010485
 Sum of Mulliken charges =  -0.00000

 Dipole moment (field-independent basis, Debye):
    X=              3.6250    Y=              3.0866    Z=             -2.5119  Tot=              5.3830
 Quadrupole moment (field-independent basis, Debye-Ang):
   XX=           -378.3042   YY=           -438.9351   ZZ=           -403.4285
   XY=             -5.6879   XZ=             -0.4123   YZ=             17.4723

 Normal termination of Gaussian 16 at Fri Apr 29 13:50:58 2022.
