 Gaussian 16, Revision A.03,
 Gaussian 16:  ES64L-G16RevA.03 25-Dec-2016

 -----------------------------------
 #p cam-b3lyp/Def2SVP td=(nstates=5)
 -----------------------------------

 ------------------------------------------------------
 step_301_chromophore_3 TDDFT with cam-b3lyp functional
 ------------------------------------------------------
 Symbolic Z-matrix:
 Charge =  0 Multiplicity = 1

                         Standard orientation:
 ---------------------------------------------------------------------
 Center     Atomic      Atomic             Coordinates (Angstroms)
 Number     Number       Type             X           Y           Z
 ---------------------------------------------------------------------
      1         12           0       -5.345429    0.723121   -0.134916
      2          6           0       -3.874278   -2.499251   -0.161522
      3          6           0       -2.207410    2.031345    0.065666
      4          6           0       -6.722792    3.735405    0.176633
      5          6           0       -8.439066   -0.872954    0.427764
      6          7           0       -3.296989   -0.182342   -0.134718
      7          6           0       -2.921360   -1.462822   -0.274227
      8          6           0       -1.371128   -1.626615   -0.401607
      9          6           0       -0.810285   -0.198427   -0.071454
     10          6           0       -2.203124    0.690600   -0.089139
     11          6           0       -0.105794   -0.220692    1.372482
     12          6           0       -0.882278   -2.253300   -1.776152
     13          6           0        0.186871   -3.249129   -1.675312
     14          6           0        1.430407   -3.059366   -0.769072
     15          8           0        1.895988   -3.872738   -0.020305
     16          8           0        2.004528   -1.843224   -0.998055
     17          7           0       -4.616977    2.656482    0.095678
     18          6           0       -3.298123    2.977481    0.232769
     19          6           0       -3.247039    4.433988    0.411969
     20          6           0       -4.511670    4.984339    0.313494
     21          6           0       -5.364750    3.814009    0.086564
     22          6           0       -1.949949    5.084734    0.527737
     23          6           0       -5.032016    6.429553    0.349830
     24          8           0       -6.154634    6.870649    0.080965
     25          6           0       -3.973617    7.416376    0.561371
     26          7           0       -7.277727    1.346125    0.215088
     27          6           0       -7.607491    2.657592    0.211219
     28          6           0       -9.098852    2.873637    0.517017
     29          6           0       -9.676325    1.391705    0.466523
     30          6           0       -8.406748    0.534150    0.414349
     31          6           0       -9.344974    3.519210    1.907360
     32          6           0      -10.702389    1.176469   -0.735998
     33          6           0      -12.093262    0.527498   -0.466305
     34          7           0       -6.078883   -1.297008    0.024417
     35          6           0       -7.402853   -1.807403    0.237034
     36          6           0       -7.343561   -3.237849    0.309302
     37          6           0       -5.951185   -3.568155    0.117751
     38          6           0       -5.277366   -2.372533   -0.026213
     39          6           0       -8.466236   -4.160558    0.429959
     40          6           0       -5.003163   -4.673773    0.231804
     41          8           0       -5.180731   -5.837412    0.542506
     42          6           0       -3.641470   -4.021803   -0.191012
     43          6           0       -2.708687   -4.466721    0.950636
     44          8           0       -2.456834   -3.833002    2.009562
     45          8           0       -2.148981   -5.640049    0.551296
     46          6           0       -0.971328   -5.991378    1.279227
     47          6           0        3.307536   -1.610928   -0.337224
     48          6           0        4.254805   -1.491431   -1.505946
     49          6           0        5.278470   -2.282432   -1.837684
     50          6           0        5.562838   -3.644989   -1.193208
     51          6           0        6.163431   -1.919454   -3.021365
     52          6           0        7.311124   -0.842486   -2.810962
     53          6           0        7.338580    0.315923   -3.812859
     54          6           0        8.731630    1.059040   -3.757284
     55          6           0        9.034723    1.771762   -5.034827
     56          6           0        8.803835    1.980973   -2.448275
     57          6           0        9.906408    1.617330   -1.485141
     58          6           0       10.246547    2.845710   -0.523482
     59          6           0       11.564988    2.726794    0.243625
     60          6           0       12.641894    3.089671   -0.685719
     61          6           0       11.890226    1.308528    0.862979
     62          6           0       12.502239    1.537292    2.259727
     63          6           0       12.918974    0.165508    2.811727
     64          6           0       12.919051    0.032514    4.363685
     65          6           0       14.284841   -0.530772    5.008665
     66          6           0       11.681561   -0.750809    4.865468
     67          1           0       -1.186584    2.397741    0.195858
     68          1           0       -7.127676    4.736006    0.342391
     69          1           0       -9.423203   -1.323952    0.575008
     70          1           0       -1.113481   -2.319954    0.399062
     71          1           0       -0.122500    0.290739   -0.762543
     72          1           0        0.279142   -1.205259    1.636616
     73          1           0       -0.614954    0.096965    2.282197
     74          1           0        0.737147    0.464536    1.291771
     75          1           0       -0.715206   -1.546886   -2.590248
     76          1           0       -1.752498   -2.754654   -2.198498
     77          1           0        0.620307   -3.450081   -2.655502
     78          1           0       -0.180345   -4.207317   -1.306748
     79          1           0       -1.273746    4.348960    0.961474
     80          1           0       -1.964161    5.789683    1.359795
     81          1           0       -1.722238    5.529679   -0.440546
     82          1           0       -3.708221    7.545534    1.611007
     83          1           0       -4.381232    8.421102    0.443331
     84          1           0       -3.054708    7.421799   -0.024378
     85          1           0       -9.290099    3.481470   -0.366957
     86          1           0      -10.237991    1.242524    1.388685
     87          1           0       -9.136195    4.563019    1.674809
     88          1           0       -8.604390    3.201204    2.641452
     89          1           0      -10.395117    3.515521    2.198577
     90          1           0      -10.144653    0.634753   -1.500035
     91          1           0      -10.988735    2.156998   -1.117390
     92          1           0      -11.933700    0.200997    0.561412
     93          1           0      -12.167040   -0.345966   -1.113784
     94          1           0      -12.790891    1.363238   -0.419166
     95          1           0       -8.267834   -5.089236   -0.105909
     96          1           0       -9.383376   -3.828873   -0.056647
     97          1           0       -8.654505   -4.399500    1.476682
     98          1           0       -3.312102   -4.216558   -1.211703
     99          1           0       -1.148736   -5.926121    2.352219
    100          1           0       -0.216964   -5.248916    1.022664
    101          1           0       -0.591602   -6.979417    1.015820
    102          1           0        3.713749   -2.347822    0.355180
    103          1           0        3.231534   -0.652167    0.177051
    104          1           0        4.095324   -0.547093   -2.026341
    105          1           0        5.453279   -4.414402   -1.957880
    106          1           0        4.882978   -3.875947   -0.372980
    107          1           0        6.597079   -3.588079   -0.855592
    108          1           0        5.506981   -1.882364   -3.891267
    109          1           0        6.880939   -2.700697   -3.272620
    110          1           0        8.268895   -1.359062   -2.880585
    111          1           0        7.242560   -0.434116   -1.802755
    112          1           0        6.513014    0.959543   -3.508037
    113          1           0        7.347924   -0.046700   -4.840487
    114          1           0        9.351482    0.186437   -3.552247
    115          1           0        9.488989    2.705182   -4.701734
    116          1           0        8.137175    1.999231   -5.609422
    117          1           0        9.841121    1.281344   -5.581365
    118          1           0        7.870890    1.896311   -1.891869
    119          1           0        8.887186    3.025951   -2.745482
    120          1           0       10.729399    1.220888   -2.080773
    121          1           0        9.524048    0.794950   -0.880914
    122          1           0        9.433405    2.935138    0.197512
    123          1           0       10.206899    3.781164   -1.081875
    124          1           0       11.451201    3.453530    1.047130
    125          1           0       13.576060    3.316204   -0.174412
    126          1           0       12.446418    4.004394   -1.245412
    127          1           0       12.807034    2.270396   -1.385960
    128          1           0       12.557723    0.670850    0.283125
    129          1           0       10.920517    0.835826    1.021482
    130          1           0       11.705811    1.948386    2.880651
    131          1           0       13.387359    2.144179    2.068523
    132          1           0       13.934101    0.017978    2.441823
    133          1           0       12.362172   -0.697275    2.446796
    134          1           0       12.909028    1.035585    4.790981
    135          1           0       15.001284   -0.667131    4.198722
    136          1           0       14.078933   -1.512327    5.436516
    137          1           0       14.704785    0.088025    5.801644
    138          1           0       11.438825   -0.600983    5.918307
    139          1           0       11.900179   -1.818582    4.872969
    140          1           0       10.843838   -0.559198    4.194727
 ---------------------------------------------------------------------

 SCF Done:  E(RCAM-B3LYP) =  -3007.16550743     A.U. after   18 cycles

 Excitation energies and oscillator strengths:

 Excited State   1:      Singlet-A      1.7289 eV  717.13 nm  f=0.4120  <S**2>=0.000
     245 -> 248       -0.16706
     246 -> 247        0.68525
     245 <- 248       -0.10004
 This state for optimization and/or second-order correction.
 Total Energy, E(TD-HF/TD-DFT) =  -3007.10197144
 Copying the excited state density for this state as the 1-particle RhoCI density.

 Excited State   2:      Singlet-A      2.1867 eV  566.99 nm  f=0.1256  <S**2>=0.000
     245 -> 247        0.64929
     246 -> 248        0.25236

 Excited State   3:      Singlet-A      3.1835 eV  389.46 nm  f=0.0035  <S**2>=0.000
     244 -> 247        0.68071
     246 -> 248       -0.10907

 Excited State   4:      Singlet-A      3.5227 eV  351.96 nm  f=0.0050  <S**2>=0.000
     242 -> 247        0.16657
     243 -> 247        0.57406
     243 -> 249       -0.19999
     243 -> 250       -0.22686

 Excited State   5:      Singlet-A      3.5596 eV  348.31 nm  f=0.5483  <S**2>=0.000
     240 -> 247       -0.13852
     241 -> 247        0.10372
     242 -> 247       -0.14771
     245 -> 247       -0.23499
     246 -> 248        0.61108
     245 <- 247        0.10036

 The electronic state is 1-A.
 Alpha  occ. eigenvalues --  -46.88325 -19.25253 -19.24848 -19.20534 -19.20072
 Alpha  occ. eigenvalues --  -19.19799 -19.18745 -14.42233 -14.41854 -14.39792
 Alpha  occ. eigenvalues --  -14.38186 -10.39660 -10.39567 -10.36233 -10.34745
 Alpha  occ. eigenvalues --  -10.32097 -10.31133 -10.31070 -10.30898 -10.30748
 Alpha  occ. eigenvalues --  -10.30732 -10.30195 -10.29714 -10.29045 -10.28998
 Alpha  occ. eigenvalues --  -10.28541 -10.28366 -10.28240 -10.27801 -10.27720
 Alpha  occ. eigenvalues --  -10.27690 -10.27552 -10.27513 -10.27486 -10.27471
 Alpha  occ. eigenvalues --  -10.27424 -10.27138 -10.27108 -10.27050 -10.26624
 Alpha  occ. eigenvalues --  -10.26015 -10.26004 -10.26000 -10.25970 -10.25924
 Alpha  occ. eigenvalues --  -10.25864 -10.25846 -10.25814 -10.25659 -10.25639
 Alpha  occ. eigenvalues --  -10.25534 -10.25453 -10.25358 -10.25135 -10.25090
 Alpha  occ. eigenvalues --  -10.25062 -10.25016 -10.25011 -10.24904 -10.24630
 Alpha  occ. eigenvalues --  -10.24615 -10.24609 -10.24587 -10.24539 -10.24388
 Alpha  occ. eigenvalues --  -10.23848  -3.16833  -1.91748  -1.91265  -1.91150
 Alpha  occ. eigenvalues --   -1.17347  -1.16181  -1.10368  -1.09672  -1.08859
 Alpha  occ. eigenvalues --   -1.06544  -1.03767  -1.02619  -1.02515  -1.01341
 Alpha  occ. eigenvalues --   -0.91799  -0.90660  -0.90253  -0.89696  -0.89188
 Alpha  occ. eigenvalues --   -0.88820  -0.88153  -0.87773  -0.87382  -0.86973
 Alpha  occ. eigenvalues --   -0.86221  -0.85082  -0.84348  -0.83586  -0.83377
 Alpha  occ. eigenvalues --   -0.82862  -0.82646  -0.81530  -0.81156  -0.80590
 Alpha  occ. eigenvalues --   -0.80173  -0.78738  -0.77434  -0.77141  -0.76078
 Alpha  occ. eigenvalues --   -0.75231  -0.75110  -0.74927  -0.74611  -0.74126
 Alpha  occ. eigenvalues --   -0.73592  -0.72440  -0.71364  -0.70893  -0.68421
 Alpha  occ. eigenvalues --   -0.68085  -0.67970  -0.67097  -0.66416  -0.66375
 Alpha  occ. eigenvalues --   -0.65687  -0.65255  -0.65086  -0.63855  -0.63642
 Alpha  occ. eigenvalues --   -0.63549  -0.63175  -0.61673  -0.61274  -0.60416
 Alpha  occ. eigenvalues --   -0.59748  -0.59425  -0.59164  -0.58165  -0.58055
 Alpha  occ. eigenvalues --   -0.57558  -0.56840  -0.56370  -0.55973  -0.55350
 Alpha  occ. eigenvalues --   -0.55282  -0.55134  -0.54807  -0.54471  -0.54277
 Alpha  occ. eigenvalues --   -0.54049  -0.53835  -0.53627  -0.53351  -0.53126
 Alpha  occ. eigenvalues --   -0.52986  -0.52477  -0.52390  -0.52057  -0.51880
 Alpha  occ. eigenvalues --   -0.51459  -0.51370  -0.51112  -0.50886  -0.50702
 Alpha  occ. eigenvalues --   -0.50307  -0.50275  -0.50167  -0.50044  -0.49922
 Alpha  occ. eigenvalues --   -0.49641  -0.49511  -0.49397  -0.49166  -0.48802
 Alpha  occ. eigenvalues --   -0.48654  -0.48520  -0.48388  -0.48001  -0.47585
 Alpha  occ. eigenvalues --   -0.47449  -0.47277  -0.47132  -0.46745  -0.46539
 Alpha  occ. eigenvalues --   -0.46252  -0.46071  -0.45868  -0.45799  -0.45574
 Alpha  occ. eigenvalues --   -0.45531  -0.45076  -0.44877  -0.44704  -0.44609
 Alpha  occ. eigenvalues --   -0.44517  -0.44160  -0.44069  -0.43720  -0.43663
 Alpha  occ. eigenvalues --   -0.43403  -0.43339  -0.43244  -0.43132  -0.42666
 Alpha  occ. eigenvalues --   -0.42558  -0.42512  -0.42446  -0.42060  -0.41944
 Alpha  occ. eigenvalues --   -0.41785  -0.41627  -0.41294  -0.41263  -0.40872
 Alpha  occ. eigenvalues --   -0.40729  -0.40647  -0.40344  -0.39883  -0.39786
 Alpha  occ. eigenvalues --   -0.39506  -0.39448  -0.39314  -0.38957  -0.38872
 Alpha  occ. eigenvalues --   -0.38811  -0.38250  -0.37686  -0.37472  -0.37312
 Alpha  occ. eigenvalues --   -0.36946  -0.36868  -0.36766  -0.36599  -0.36323
 Alpha  occ. eigenvalues --   -0.36015  -0.35719  -0.34841  -0.34787  -0.34239
 Alpha  occ. eigenvalues --   -0.33912  -0.33867  -0.33295  -0.32158  -0.31608
 Alpha  occ. eigenvalues --   -0.30766  -0.30665  -0.30437  -0.28733  -0.23878
 Alpha  occ. eigenvalues --   -0.21223
 Alpha virt. eigenvalues --   -0.08789  -0.01585   0.00354   0.02012   0.03027
 Alpha virt. eigenvalues --    0.04444   0.04999   0.05641   0.06441   0.06947
 Alpha virt. eigenvalues --    0.08159   0.08302   0.08510   0.09068   0.09099

 Mulliken charges:
               1
     1  Mg   0.813874
     2  C   -0.036678
     3  C   -0.041324
     4  C   -0.068795
     5  C   -0.062576
     6  N   -0.286581
     7  C   -0.039882
     8  C   -0.028852
     9  C   -0.045126
    10  C    0.036171
    11  C    0.029565
    12  C    0.128935
    13  C    0.051017
    14  C    0.134946
    15  O   -0.210541
    16  O   -0.339619
    17  N   -0.385905
    18  C    0.145455
    19  C   -0.176200
    20  C   -0.040947
    21  C    0.100060
    22  C    0.130036
    23  C    0.065620
    24  O   -0.195484
    25  C    0.022800
    26  N   -0.324374
    27  C    0.061882
    28  C   -0.070357
    29  C   -0.013709
    30  C    0.068054
    31  C    0.080136
    32  C   -0.012636
    33  C    0.029309
    34  N   -0.349691
    35  C    0.110745
    36  C   -0.138678
    37  C   -0.012202
    38  C    0.129646
    39  C    0.109064
    40  C    0.059788
    41  O   -0.161604
    42  C   -0.047231
    43  C    0.221494
    44  O   -0.255624
    45  O   -0.299242
    46  C    0.176897
    47  C    0.287408
    48  C   -0.132430
    49  C   -0.166975
    50  C    0.087832
    51  C    0.082709
    52  C   -0.016375
    53  C    0.040938
    54  C   -0.163788
    55  C    0.112363
    56  C    0.045181
    57  C    0.001432
    58  C    0.024209
    59  C   -0.065011
    60  C    0.069025
    61  C    0.003232
    62  C    0.032714
    63  C    0.041758
    64  C   -0.141579
    65  C    0.025216
    66  C    0.041075
    67  H   -0.033419
    68  H   -0.009837
    69  H   -0.033427
    70  H    0.033586
    71  H    0.019308
    72  H    0.029881
    73  H    0.027729
    74  H    0.002524
    75  H    0.001873
    76  H   -0.006711
    77  H    0.034343
    78  H    0.016709
    79  H    0.011816
    80  H    0.014861
    81  H    0.053342
    82  H    0.033510
    83  H    0.008835
    84  H    0.040852
    85  H    0.022504
    86  H    0.003253
    87  H    0.016944
    88  H    0.035061
    89  H    0.024275
    90  H    0.010457
    91  H    0.005295
    92  H   -0.001467
    93  H    0.033463
    94  H    0.026075
    95  H    0.026450
    96  H    0.010348
    97  H    0.036276
    98  H    0.060211
    99  H    0.038240
   100  H    0.023514
   101  H    0.035740
   102  H    0.037359
   103  H    0.015440
   104  H   -0.011285
   105  H    0.028976
   106  H    0.022360
   107  H    0.018864
   108  H    0.023033
   109  H   -0.015528
   110  H   -0.002805
   111  H    0.005302
   112  H    0.005082
   113  H   -0.005594
   114  H   -0.010967
   115  H   -0.009101
   116  H    0.017740
   117  H    0.009955
   118  H   -0.014476
   119  H   -0.012870
   120  H    0.002284
   121  H   -0.003554
   122  H   -0.015459
   123  H   -0.008317
   124  H   -0.014605
   125  H   -0.007283
   126  H   -0.006494
   127  H    0.004604
   128  H    0.003103
   129  H   -0.008791
   130  H    0.007557
   131  H    0.004393
   132  H   -0.015964
   133  H   -0.005153
   134  H   -0.002333
   135  H    0.003428
   136  H   -0.001757
   137  H    0.016949
   138  H    0.008239
   139  H    0.002830
   140  H    0.011854
 Sum of Mulliken charges =  -0.00000

 Dipole moment (field-independent basis, Debye):
    X=              3.9126    Y=              4.0811    Z=             -2.5442  Tot=              6.1997
 Quadrupole moment (field-independent basis, Debye-Ang):
   XX=           -379.2132   YY=           -434.1794   ZZ=           -403.4774
   XY=             -9.4808   XZ=             -0.3807   YZ=             18.8099

 Normal termination of Gaussian 16 at Fri Apr 29 12:47:16 2022.
