 Gaussian 16, Revision A.03,
 Gaussian 16:  ES64L-G16RevA.03 25-Dec-2016

 ---------------------------------
 #p PBE1PBE/Def2SVP td=(nstates=5)
 ---------------------------------

 ----------------------------------------------------
 step_301_chromophore_3 TDDFT with PBE1PBE functional
 ----------------------------------------------------
 Symbolic Z-matrix:
 Charge =  0 Multiplicity = 1

                         Standard orientation:
 ---------------------------------------------------------------------
 Center     Atomic      Atomic             Coordinates (Angstroms)
 Number     Number       Type             X           Y           Z
 ---------------------------------------------------------------------
      1         12           0       -5.345429    0.723121   -0.134916
      2          6           0       -3.874278   -2.499251   -0.161522
      3          6           0       -2.207410    2.031345    0.065666
      4          6           0       -6.722792    3.735405    0.176633
      5          6           0       -8.439066   -0.872954    0.427764
      6          7           0       -3.296989   -0.182342   -0.134718
      7          6           0       -2.921360   -1.462822   -0.274227
      8          6           0       -1.371128   -1.626615   -0.401607
      9          6           0       -0.810285   -0.198427   -0.071454
     10          6           0       -2.203124    0.690600   -0.089139
     11          6           0       -0.105794   -0.220692    1.372482
     12          6           0       -0.882278   -2.253300   -1.776152
     13          6           0        0.186871   -3.249129   -1.675312
     14          6           0        1.430407   -3.059366   -0.769072
     15          8           0        1.895988   -3.872738   -0.020305
     16          8           0        2.004528   -1.843224   -0.998055
     17          7           0       -4.616977    2.656482    0.095678
     18          6           0       -3.298123    2.977481    0.232769
     19          6           0       -3.247039    4.433988    0.411969
     20          6           0       -4.511670    4.984339    0.313494
     21          6           0       -5.364750    3.814009    0.086564
     22          6           0       -1.949949    5.084734    0.527737
     23          6           0       -5.032016    6.429553    0.349830
     24          8           0       -6.154634    6.870649    0.080965
     25          6           0       -3.973617    7.416376    0.561371
     26          7           0       -7.277727    1.346125    0.215088
     27          6           0       -7.607491    2.657592    0.211219
     28          6           0       -9.098852    2.873637    0.517017
     29          6           0       -9.676325    1.391705    0.466523
     30          6           0       -8.406748    0.534150    0.414349
     31          6           0       -9.344974    3.519210    1.907360
     32          6           0      -10.702389    1.176469   -0.735998
     33          6           0      -12.093262    0.527498   -0.466305
     34          7           0       -6.078883   -1.297008    0.024417
     35          6           0       -7.402853   -1.807403    0.237034
     36          6           0       -7.343561   -3.237849    0.309302
     37          6           0       -5.951185   -3.568155    0.117751
     38          6           0       -5.277366   -2.372533   -0.026213
     39          6           0       -8.466236   -4.160558    0.429959
     40          6           0       -5.003163   -4.673773    0.231804
     41          8           0       -5.180731   -5.837412    0.542506
     42          6           0       -3.641470   -4.021803   -0.191012
     43          6           0       -2.708687   -4.466721    0.950636
     44          8           0       -2.456834   -3.833002    2.009562
     45          8           0       -2.148981   -5.640049    0.551296
     46          6           0       -0.971328   -5.991378    1.279227
     47          6           0        3.307536   -1.610928   -0.337224
     48          6           0        4.254805   -1.491431   -1.505946
     49          6           0        5.278470   -2.282432   -1.837684
     50          6           0        5.562838   -3.644989   -1.193208
     51          6           0        6.163431   -1.919454   -3.021365
     52          6           0        7.311124   -0.842486   -2.810962
     53          6           0        7.338580    0.315923   -3.812859
     54          6           0        8.731630    1.059040   -3.757284
     55          6           0        9.034723    1.771762   -5.034827
     56          6           0        8.803835    1.980973   -2.448275
     57          6           0        9.906408    1.617330   -1.485141
     58          6           0       10.246547    2.845710   -0.523482
     59          6           0       11.564988    2.726794    0.243625
     60          6           0       12.641894    3.089671   -0.685719
     61          6           0       11.890226    1.308528    0.862979
     62          6           0       12.502239    1.537292    2.259727
     63          6           0       12.918974    0.165508    2.811727
     64          6           0       12.919051    0.032514    4.363685
     65          6           0       14.284841   -0.530772    5.008665
     66          6           0       11.681561   -0.750809    4.865468
     67          1           0       -1.186584    2.397741    0.195858
     68          1           0       -7.127676    4.736006    0.342391
     69          1           0       -9.423203   -1.323952    0.575008
     70          1           0       -1.113481   -2.319954    0.399062
     71          1           0       -0.122500    0.290739   -0.762543
     72          1           0        0.279142   -1.205259    1.636616
     73          1           0       -0.614954    0.096965    2.282197
     74          1           0        0.737147    0.464536    1.291771
     75          1           0       -0.715206   -1.546886   -2.590248
     76          1           0       -1.752498   -2.754654   -2.198498
     77          1           0        0.620307   -3.450081   -2.655502
     78          1           0       -0.180345   -4.207317   -1.306748
     79          1           0       -1.273746    4.348960    0.961474
     80          1           0       -1.964161    5.789683    1.359795
     81          1           0       -1.722238    5.529679   -0.440546
     82          1           0       -3.708221    7.545534    1.611007
     83          1           0       -4.381232    8.421102    0.443331
     84          1           0       -3.054708    7.421799   -0.024378
     85          1           0       -9.290099    3.481470   -0.366957
     86          1           0      -10.237991    1.242524    1.388685
     87          1           0       -9.136195    4.563019    1.674809
     88          1           0       -8.604390    3.201204    2.641452
     89          1           0      -10.395117    3.515521    2.198577
     90          1           0      -10.144653    0.634753   -1.500035
     91          1           0      -10.988735    2.156998   -1.117390
     92          1           0      -11.933700    0.200997    0.561412
     93          1           0      -12.167040   -0.345966   -1.113784
     94          1           0      -12.790891    1.363238   -0.419166
     95          1           0       -8.267834   -5.089236   -0.105909
     96          1           0       -9.383376   -3.828873   -0.056647
     97          1           0       -8.654505   -4.399500    1.476682
     98          1           0       -3.312102   -4.216558   -1.211703
     99          1           0       -1.148736   -5.926121    2.352219
    100          1           0       -0.216964   -5.248916    1.022664
    101          1           0       -0.591602   -6.979417    1.015820
    102          1           0        3.713749   -2.347822    0.355180
    103          1           0        3.231534   -0.652167    0.177051
    104          1           0        4.095324   -0.547093   -2.026341
    105          1           0        5.453279   -4.414402   -1.957880
    106          1           0        4.882978   -3.875947   -0.372980
    107          1           0        6.597079   -3.588079   -0.855592
    108          1           0        5.506981   -1.882364   -3.891267
    109          1           0        6.880939   -2.700697   -3.272620
    110          1           0        8.268895   -1.359062   -2.880585
    111          1           0        7.242560   -0.434116   -1.802755
    112          1           0        6.513014    0.959543   -3.508037
    113          1           0        7.347924   -0.046700   -4.840487
    114          1           0        9.351482    0.186437   -3.552247
    115          1           0        9.488989    2.705182   -4.701734
    116          1           0        8.137175    1.999231   -5.609422
    117          1           0        9.841121    1.281344   -5.581365
    118          1           0        7.870890    1.896311   -1.891869
    119          1           0        8.887186    3.025951   -2.745482
    120          1           0       10.729399    1.220888   -2.080773
    121          1           0        9.524048    0.794950   -0.880914
    122          1           0        9.433405    2.935138    0.197512
    123          1           0       10.206899    3.781164   -1.081875
    124          1           0       11.451201    3.453530    1.047130
    125          1           0       13.576060    3.316204   -0.174412
    126          1           0       12.446418    4.004394   -1.245412
    127          1           0       12.807034    2.270396   -1.385960
    128          1           0       12.557723    0.670850    0.283125
    129          1           0       10.920517    0.835826    1.021482
    130          1           0       11.705811    1.948386    2.880651
    131          1           0       13.387359    2.144179    2.068523
    132          1           0       13.934101    0.017978    2.441823
    133          1           0       12.362172   -0.697275    2.446796
    134          1           0       12.909028    1.035585    4.790981
    135          1           0       15.001284   -0.667131    4.198722
    136          1           0       14.078933   -1.512327    5.436516
    137          1           0       14.704785    0.088025    5.801644
    138          1           0       11.438825   -0.600983    5.918307
    139          1           0       11.900179   -1.818582    4.872969
    140          1           0       10.843838   -0.559198    4.194727
 ---------------------------------------------------------------------

 SCF Done:  E(RPBE1PBE) =  -3005.35417536     A.U. after   15 cycles

 Excitation energies and oscillator strengths:

 Excited State   1:      Singlet-A      1.8747 eV  661.34 nm  f=0.3980  <S**2>=0.000
     245 -> 248       -0.15599
     246 -> 247        0.69287
     246 <- 247       -0.11067
 This state for optimization and/or second-order correction.
 Total Energy, E(TD-HF/TD-DFT) =  -3005.28527960
 Copying the excited state density for this state as the 1-particle RhoCI density.

 Excited State   2:      Singlet-A      2.1907 eV  565.96 nm  f=0.1172  <S**2>=0.000
     245 -> 247        0.65979
     246 -> 248        0.21700

 Excited State   3:      Singlet-A      2.8659 eV  432.62 nm  f=0.0089  <S**2>=0.000
     244 -> 247        0.69154

 Excited State   4:      Singlet-A      2.9837 eV  415.54 nm  f=0.0004  <S**2>=0.000
     243 -> 247        0.68112
     243 -> 249        0.11585
     243 -> 250       -0.11527

 Excited State   5:      Singlet-A      3.2777 eV  378.27 nm  f=0.0466  <S**2>=0.000
     239 -> 247        0.12516
     240 -> 247       -0.32108
     240 -> 248       -0.10561
     240 -> 249        0.10473
     241 -> 247        0.46435
     242 -> 247        0.12123
     246 -> 248       -0.32308

 The electronic state is 1-A.
 Alpha  occ. eigenvalues --  -46.91725 -19.25930 -19.25550 -19.20778 -19.20143
 Alpha  occ. eigenvalues --  -19.20129 -19.19102 -14.41666 -14.41479 -14.39322
 Alpha  occ. eigenvalues --  -14.37984 -10.36690 -10.36673 -10.33188 -10.32015
 Alpha  occ. eigenvalues --  -10.29492 -10.28894 -10.28798 -10.28795 -10.28352
 Alpha  occ. eigenvalues --  -10.28256 -10.27460 -10.27232 -10.26993 -10.26825
 Alpha  occ. eigenvalues --  -10.26217 -10.25989 -10.25977 -10.25569 -10.25523
 Alpha  occ. eigenvalues --  -10.25405 -10.25278 -10.25229 -10.25151 -10.25102
 Alpha  occ. eigenvalues --  -10.25027 -10.24990 -10.24719 -10.24704 -10.23917
 Alpha  occ. eigenvalues --  -10.23611 -10.23593 -10.23549 -10.23533 -10.23463
 Alpha  occ. eigenvalues --  -10.23412 -10.23371 -10.23331 -10.23290 -10.23010
 Alpha  occ. eigenvalues --  -10.23008 -10.22857 -10.22835 -10.22730 -10.22717
 Alpha  occ. eigenvalues --  -10.22619 -10.22586 -10.22545 -10.22477 -10.22320
 Alpha  occ. eigenvalues --  -10.22202 -10.22166 -10.21995 -10.21972 -10.21947
 Alpha  occ. eigenvalues --  -10.21203  -3.13814  -1.86670  -1.86165  -1.86053
 Alpha  occ. eigenvalues --   -1.12138  -1.11032  -1.04931  -1.04543  -1.03723
 Alpha  occ. eigenvalues --   -1.01401  -0.98285  -0.97286  -0.97097  -0.96078
 Alpha  occ. eigenvalues --   -0.86255  -0.84778  -0.84368  -0.83858  -0.83355
 Alpha  occ. eigenvalues --   -0.82958  -0.82384  -0.82046  -0.81474  -0.81306
 Alpha  occ. eigenvalues --   -0.80649  -0.79320  -0.78537  -0.77843  -0.77685
 Alpha  occ. eigenvalues --   -0.77026  -0.76742  -0.75725  -0.75478  -0.74793
 Alpha  occ. eigenvalues --   -0.74491  -0.73028  -0.71720  -0.71485  -0.70249
 Alpha  occ. eigenvalues --   -0.69618  -0.69263  -0.69189  -0.68743  -0.68302
 Alpha  occ. eigenvalues --   -0.67892  -0.66923  -0.65764  -0.65226  -0.62745
 Alpha  occ. eigenvalues --   -0.62487  -0.62205  -0.61585  -0.60656  -0.60527
 Alpha  occ. eigenvalues --   -0.60085  -0.59741  -0.59580  -0.58450  -0.58099
 Alpha  occ. eigenvalues --   -0.57699  -0.57337  -0.56288  -0.55532  -0.54854
 Alpha  occ. eigenvalues --   -0.54176  -0.53954  -0.53692  -0.52708  -0.52630
 Alpha  occ. eigenvalues --   -0.52052  -0.51329  -0.50898  -0.50483  -0.49931
 Alpha  occ. eigenvalues --   -0.49724  -0.49578  -0.49295  -0.48948  -0.48687
 Alpha  occ. eigenvalues --   -0.48574  -0.48215  -0.48062  -0.47898  -0.47697
 Alpha  occ. eigenvalues --   -0.47463  -0.47088  -0.46977  -0.46641  -0.46431
 Alpha  occ. eigenvalues --   -0.46008  -0.45891  -0.45528  -0.45444  -0.45273
 Alpha  occ. eigenvalues --   -0.44934  -0.44840  -0.44799  -0.44568  -0.44426
 Alpha  occ. eigenvalues --   -0.44290  -0.44106  -0.43981  -0.43788  -0.43449
 Alpha  occ. eigenvalues --   -0.43214  -0.43107  -0.42906  -0.42653  -0.42233
 Alpha  occ. eigenvalues --   -0.42087  -0.41848  -0.41770  -0.41448  -0.41230
 Alpha  occ. eigenvalues --   -0.40954  -0.40826  -0.40598  -0.40476  -0.40280
 Alpha  occ. eigenvalues --   -0.40216  -0.39781  -0.39645  -0.39387  -0.39357
 Alpha  occ. eigenvalues --   -0.39306  -0.38801  -0.38739  -0.38489  -0.38440
 Alpha  occ. eigenvalues --   -0.38250  -0.38093  -0.37976  -0.37911  -0.37447
 Alpha  occ. eigenvalues --   -0.37354  -0.37295  -0.37184  -0.36937  -0.36865
 Alpha  occ. eigenvalues --   -0.36508  -0.36362  -0.36128  -0.36020  -0.35719
 Alpha  occ. eigenvalues --   -0.35538  -0.35518  -0.35094  -0.34697  -0.34665
 Alpha  occ. eigenvalues --   -0.34497  -0.34222  -0.34117  -0.33840  -0.33745
 Alpha  occ. eigenvalues --   -0.33675  -0.33002  -0.32667  -0.32331  -0.32247
 Alpha  occ. eigenvalues --   -0.31946  -0.31776  -0.31647  -0.31403  -0.31255
 Alpha  occ. eigenvalues --   -0.31064  -0.30724  -0.29838  -0.29669  -0.29429
 Alpha  occ. eigenvalues --   -0.28991  -0.28937  -0.28696  -0.27199  -0.26794
 Alpha  occ. eigenvalues --   -0.26215  -0.26042  -0.25477  -0.24541  -0.20820
 Alpha  occ. eigenvalues --   -0.18833
 Alpha virt. eigenvalues --   -0.11233  -0.05192  -0.03770  -0.02403  -0.00067
 Alpha virt. eigenvalues --    0.00131   0.00562   0.01271   0.02042   0.03125
 Alpha virt. eigenvalues --    0.04278   0.04607   0.05140   0.05333   0.05812

 Mulliken charges:
               1
     1  Mg   0.962859
     2  C   -0.042105
     3  C   -0.044356
     4  C   -0.073807
     5  C   -0.062872
     6  N   -0.387786
     7  C    0.039533
     8  C   -0.103005
     9  C   -0.113960
    10  C    0.069680
    11  C   -0.024461
    12  C    0.077945
    13  C   -0.031737
    14  C    0.206874
    15  O   -0.247186
    16  O   -0.366515
    17  N   -0.499407
    18  C    0.180510
    19  C   -0.217004
    20  C   -0.077880
    21  C    0.141462
    22  C    0.066635
    23  C    0.113181
    24  O   -0.235840
    25  C   -0.048342
    26  N   -0.432918
    27  C    0.103375
    28  C   -0.149165
    29  C   -0.088211
    30  C    0.105637
    31  C    0.017721
    32  C   -0.066136
    33  C   -0.047817
    34  N   -0.469361
    35  C    0.133863
    36  C   -0.162774
    37  C   -0.049123
    38  C    0.177857
    39  C    0.056927
    40  C    0.151213
    41  O   -0.205333
    42  C   -0.154639
    43  C    0.300529
    44  O   -0.286901
    45  O   -0.329928
    46  C    0.118098
    47  C    0.234719
    48  C   -0.134579
    49  C   -0.213974
    50  C    0.021020
    51  C    0.024821
    52  C   -0.075727
    53  C   -0.020377
    54  C   -0.245697
    55  C    0.047852
    56  C   -0.003473
    57  C   -0.064597
    58  C   -0.029614
    59  C   -0.156076
    60  C    0.011314
    61  C   -0.051023
    62  C   -0.037829
    63  C   -0.010928
    64  C   -0.229899
    65  C   -0.034190
    66  C   -0.023673
    67  H   -0.001293
    68  H    0.022163
    69  H    0.000156
    70  H    0.077405
    71  H    0.053127
    72  H    0.056372
    73  H    0.053979
    74  H    0.029602
    75  H    0.033231
    76  H    0.028030
    77  H    0.066834
    78  H    0.052495
    79  H    0.038691
    80  H    0.043487
    81  H    0.080421
    82  H    0.060124
    83  H    0.036986
    84  H    0.065952
    85  H    0.058426
    86  H    0.040656
    87  H    0.046160
    88  H    0.062927
    89  H    0.052325
    90  H    0.043377
    91  H    0.038740
    92  H    0.027421
    93  H    0.060686
    94  H    0.053776
    95  H    0.054210
    96  H    0.037188
    97  H    0.064614
    98  H    0.095791
    99  H    0.060773
   100  H    0.049641
   101  H    0.058124
   102  H    0.063695
   103  H    0.043253
   104  H    0.019189
   105  H    0.056986
   106  H    0.049212
   107  H    0.047753
   108  H    0.053579
   109  H    0.017915
   110  H    0.027422
   111  H    0.038294
   112  H    0.038643
   113  H    0.029031
   114  H    0.027582
   115  H    0.019676
   116  H    0.044602
   117  H    0.038180
   118  H    0.018341
   119  H    0.018624
   120  H    0.034261
   121  H    0.030476
   122  H    0.018269
   123  H    0.023519
   124  H    0.023233
   125  H    0.021643
   126  H    0.021708
   127  H    0.032202
   128  H    0.034014
   129  H    0.026498
   130  H    0.040566
   131  H    0.038855
   132  H    0.017432
   133  H    0.026472
   134  H    0.036333
   135  H    0.030574
   136  H    0.025494
   137  H    0.043577
   138  H    0.036274
   139  H    0.030487
   140  H    0.040134
 Sum of Mulliken charges =  -0.00000

 Dipole moment (field-independent basis, Debye):
    X=              3.8331    Y=              3.7057    Z=             -2.5517  Tot=              5.9106
 Quadrupole moment (field-independent basis, Debye-Ang):
   XX=           -372.5750   YY=           -432.0497   ZZ=           -400.9074
   XY=             -7.9659   XZ=             -0.6705   YZ=             18.7429

 Normal termination of Gaussian 16 at Fri Apr 29 13:09:04 2022.
