 Gaussian 16, Revision A.03,
 Gaussian 16:  ES64L-G16RevA.03 25-Dec-2016

 --------------------------------
 #p wB97XD/Def2SVP td=(nstates=5)
 --------------------------------

 ---------------------------------------------------
 step_301_chromophore_3 TDDFT with wB97XD functional
 ---------------------------------------------------
 Symbolic Z-matrix:
 Charge =  0 Multiplicity = 1

                         Standard orientation:
 ---------------------------------------------------------------------
 Center     Atomic      Atomic             Coordinates (Angstroms)
 Number     Number       Type             X           Y           Z
 ---------------------------------------------------------------------
      1         12           0       -5.345429    0.723121   -0.134916
      2          6           0       -3.874278   -2.499251   -0.161522
      3          6           0       -2.207410    2.031345    0.065666
      4          6           0       -6.722792    3.735405    0.176633
      5          6           0       -8.439066   -0.872954    0.427764
      6          7           0       -3.296989   -0.182342   -0.134718
      7          6           0       -2.921360   -1.462822   -0.274227
      8          6           0       -1.371128   -1.626615   -0.401607
      9          6           0       -0.810285   -0.198427   -0.071454
     10          6           0       -2.203124    0.690600   -0.089139
     11          6           0       -0.105794   -0.220692    1.372482
     12          6           0       -0.882278   -2.253300   -1.776152
     13          6           0        0.186871   -3.249129   -1.675312
     14          6           0        1.430407   -3.059366   -0.769072
     15          8           0        1.895988   -3.872738   -0.020305
     16          8           0        2.004528   -1.843224   -0.998055
     17          7           0       -4.616977    2.656482    0.095678
     18          6           0       -3.298123    2.977481    0.232769
     19          6           0       -3.247039    4.433988    0.411969
     20          6           0       -4.511670    4.984339    0.313494
     21          6           0       -5.364750    3.814009    0.086564
     22          6           0       -1.949949    5.084734    0.527737
     23          6           0       -5.032016    6.429553    0.349830
     24          8           0       -6.154634    6.870649    0.080965
     25          6           0       -3.973617    7.416376    0.561371
     26          7           0       -7.277727    1.346125    0.215088
     27          6           0       -7.607491    2.657592    0.211219
     28          6           0       -9.098852    2.873637    0.517017
     29          6           0       -9.676325    1.391705    0.466523
     30          6           0       -8.406748    0.534150    0.414349
     31          6           0       -9.344974    3.519210    1.907360
     32          6           0      -10.702389    1.176469   -0.735998
     33          6           0      -12.093262    0.527498   -0.466305
     34          7           0       -6.078883   -1.297008    0.024417
     35          6           0       -7.402853   -1.807403    0.237034
     36          6           0       -7.343561   -3.237849    0.309302
     37          6           0       -5.951185   -3.568155    0.117751
     38          6           0       -5.277366   -2.372533   -0.026213
     39          6           0       -8.466236   -4.160558    0.429959
     40          6           0       -5.003163   -4.673773    0.231804
     41          8           0       -5.180731   -5.837412    0.542506
     42          6           0       -3.641470   -4.021803   -0.191012
     43          6           0       -2.708687   -4.466721    0.950636
     44          8           0       -2.456834   -3.833002    2.009562
     45          8           0       -2.148981   -5.640049    0.551296
     46          6           0       -0.971328   -5.991378    1.279227
     47          6           0        3.307536   -1.610928   -0.337224
     48          6           0        4.254805   -1.491431   -1.505946
     49          6           0        5.278470   -2.282432   -1.837684
     50          6           0        5.562838   -3.644989   -1.193208
     51          6           0        6.163431   -1.919454   -3.021365
     52          6           0        7.311124   -0.842486   -2.810962
     53          6           0        7.338580    0.315923   -3.812859
     54          6           0        8.731630    1.059040   -3.757284
     55          6           0        9.034723    1.771762   -5.034827
     56          6           0        8.803835    1.980973   -2.448275
     57          6           0        9.906408    1.617330   -1.485141
     58          6           0       10.246547    2.845710   -0.523482
     59          6           0       11.564988    2.726794    0.243625
     60          6           0       12.641894    3.089671   -0.685719
     61          6           0       11.890226    1.308528    0.862979
     62          6           0       12.502239    1.537292    2.259727
     63          6           0       12.918974    0.165508    2.811727
     64          6           0       12.919051    0.032514    4.363685
     65          6           0       14.284841   -0.530772    5.008665
     66          6           0       11.681561   -0.750809    4.865468
     67          1           0       -1.186584    2.397741    0.195858
     68          1           0       -7.127676    4.736006    0.342391
     69          1           0       -9.423203   -1.323952    0.575008
     70          1           0       -1.113481   -2.319954    0.399062
     71          1           0       -0.122500    0.290739   -0.762543
     72          1           0        0.279142   -1.205259    1.636616
     73          1           0       -0.614954    0.096965    2.282197
     74          1           0        0.737147    0.464536    1.291771
     75          1           0       -0.715206   -1.546886   -2.590248
     76          1           0       -1.752498   -2.754654   -2.198498
     77          1           0        0.620307   -3.450081   -2.655502
     78          1           0       -0.180345   -4.207317   -1.306748
     79          1           0       -1.273746    4.348960    0.961474
     80          1           0       -1.964161    5.789683    1.359795
     81          1           0       -1.722238    5.529679   -0.440546
     82          1           0       -3.708221    7.545534    1.611007
     83          1           0       -4.381232    8.421102    0.443331
     84          1           0       -3.054708    7.421799   -0.024378
     85          1           0       -9.290099    3.481470   -0.366957
     86          1           0      -10.237991    1.242524    1.388685
     87          1           0       -9.136195    4.563019    1.674809
     88          1           0       -8.604390    3.201204    2.641452
     89          1           0      -10.395117    3.515521    2.198577
     90          1           0      -10.144653    0.634753   -1.500035
     91          1           0      -10.988735    2.156998   -1.117390
     92          1           0      -11.933700    0.200997    0.561412
     93          1           0      -12.167040   -0.345966   -1.113784
     94          1           0      -12.790891    1.363238   -0.419166
     95          1           0       -8.267834   -5.089236   -0.105909
     96          1           0       -9.383376   -3.828873   -0.056647
     97          1           0       -8.654505   -4.399500    1.476682
     98          1           0       -3.312102   -4.216558   -1.211703
     99          1           0       -1.148736   -5.926121    2.352219
    100          1           0       -0.216964   -5.248916    1.022664
    101          1           0       -0.591602   -6.979417    1.015820
    102          1           0        3.713749   -2.347822    0.355180
    103          1           0        3.231534   -0.652167    0.177051
    104          1           0        4.095324   -0.547093   -2.026341
    105          1           0        5.453279   -4.414402   -1.957880
    106          1           0        4.882978   -3.875947   -0.372980
    107          1           0        6.597079   -3.588079   -0.855592
    108          1           0        5.506981   -1.882364   -3.891267
    109          1           0        6.880939   -2.700697   -3.272620
    110          1           0        8.268895   -1.359062   -2.880585
    111          1           0        7.242560   -0.434116   -1.802755
    112          1           0        6.513014    0.959543   -3.508037
    113          1           0        7.347924   -0.046700   -4.840487
    114          1           0        9.351482    0.186437   -3.552247
    115          1           0        9.488989    2.705182   -4.701734
    116          1           0        8.137175    1.999231   -5.609422
    117          1           0        9.841121    1.281344   -5.581365
    118          1           0        7.870890    1.896311   -1.891869
    119          1           0        8.887186    3.025951   -2.745482
    120          1           0       10.729399    1.220888   -2.080773
    121          1           0        9.524048    0.794950   -0.880914
    122          1           0        9.433405    2.935138    0.197512
    123          1           0       10.206899    3.781164   -1.081875
    124          1           0       11.451201    3.453530    1.047130
    125          1           0       13.576060    3.316204   -0.174412
    126          1           0       12.446418    4.004394   -1.245412
    127          1           0       12.807034    2.270396   -1.385960
    128          1           0       12.557723    0.670850    0.283125
    129          1           0       10.920517    0.835826    1.021482
    130          1           0       11.705811    1.948386    2.880651
    131          1           0       13.387359    2.144179    2.068523
    132          1           0       13.934101    0.017978    2.441823
    133          1           0       12.362172   -0.697275    2.446796
    134          1           0       12.909028    1.035585    4.790981
    135          1           0       15.001284   -0.667131    4.198722
    136          1           0       14.078933   -1.512327    5.436516
    137          1           0       14.704785    0.088025    5.801644
    138          1           0       11.438825   -0.600983    5.918307
    139          1           0       11.900179   -1.818582    4.872969
    140          1           0       10.843838   -0.559198    4.194727
 ---------------------------------------------------------------------

 SCF Done:  E(RwB97XD) =  -3007.86410417     A.U. after   19 cycles

 Excitation energies and oscillator strengths:

 Excited State   1:      Singlet-A      1.6731 eV  741.03 nm  f=0.4103  <S**2>=0.000
     245 -> 248       -0.17254
     246 -> 247        0.68320
     245 <- 248       -0.10915
 This state for optimization and/or second-order correction.
 Total Energy, E(TD-HF/TD-DFT) =  -3007.80261757
 Copying the excited state density for this state as the 1-particle RhoCI density.

 Excited State   2:      Singlet-A      2.1326 eV  581.37 nm  f=0.1213  <S**2>=0.000
     245 -> 247        0.64678
     246 -> 248        0.25655

 Excited State   3:      Singlet-A      3.2111 eV  386.11 nm  f=0.0030  <S**2>=0.000
     241 -> 247       -0.10370
     244 -> 247        0.67043
     246 -> 248       -0.12509

 Excited State   4:      Singlet-A      3.5672 eV  347.57 nm  f=0.0002  <S**2>=0.000
     243 -> 247        0.58188
     243 -> 249       -0.22902
     243 -> 250       -0.26101

 Excited State   5:      Singlet-A      3.5828 eV  346.05 nm  f=0.5568  <S**2>=0.000
     240 -> 247       -0.13773
     241 -> 247       -0.23453
     245 -> 247       -0.23274
     246 -> 248        0.59290
     245 <- 247        0.10546

 The electronic state is 1-A.
 Alpha  occ. eigenvalues --  -46.94675 -19.30454 -19.30053 -19.25414 -19.25146
 Alpha  occ. eigenvalues --  -19.24755 -19.23768 -14.46871 -14.46428 -14.44424
 Alpha  occ. eigenvalues --  -14.42793 -10.43435 -10.43434 -10.40248 -10.38741
 Alpha  occ. eigenvalues --  -10.35977 -10.35214 -10.35069 -10.34902 -10.34850
 Alpha  occ. eigenvalues --  -10.34766 -10.33922 -10.33776 -10.33078 -10.33037
 Alpha  occ. eigenvalues --  -10.32701 -10.32435 -10.32272 -10.31816 -10.31761
 Alpha  occ. eigenvalues --  -10.31620 -10.31572 -10.31563 -10.31543 -10.31524
 Alpha  occ. eigenvalues --  -10.31363 -10.31196 -10.31172 -10.31090 -10.30586
 Alpha  occ. eigenvalues --  -10.29948 -10.29941 -10.29915 -10.29885 -10.29850
 Alpha  occ. eigenvalues --  -10.29840 -10.29802 -10.29680 -10.29628 -10.29559
 Alpha  occ. eigenvalues --  -10.29366 -10.29350 -10.29193 -10.29066 -10.29018
 Alpha  occ. eigenvalues --  -10.29001 -10.28956 -10.28941 -10.28841 -10.28568
 Alpha  occ. eigenvalues --  -10.28528 -10.28427 -10.28404 -10.28399 -10.28355
 Alpha  occ. eigenvalues --  -10.27663  -3.20622  -1.94226  -1.93722  -1.93609
 Alpha  occ. eigenvalues --   -1.19478  -1.18358  -1.12625  -1.11886  -1.11028
 Alpha  occ. eigenvalues --   -1.08713  -1.05816  -1.04638  -1.04510  -1.03359
 Alpha  occ. eigenvalues --   -0.93757  -0.92440  -0.92029  -0.91496  -0.91155
 Alpha  occ. eigenvalues --   -0.90612  -0.90137  -0.89634  -0.89143  -0.88909
 Alpha  occ. eigenvalues --   -0.88146  -0.86944  -0.86197  -0.85501  -0.85270
 Alpha  occ. eigenvalues --   -0.84696  -0.84584  -0.83376  -0.83079  -0.82444
 Alpha  occ. eigenvalues --   -0.82122  -0.80713  -0.79313  -0.79065  -0.77912
 Alpha  occ. eigenvalues --   -0.77189  -0.76893  -0.76857  -0.76427  -0.75961
 Alpha  occ. eigenvalues --   -0.75488  -0.74412  -0.73327  -0.72817  -0.70419
 Alpha  occ. eigenvalues --   -0.70024  -0.69845  -0.69118  -0.68281  -0.68209
 Alpha  occ. eigenvalues --   -0.67632  -0.67184  -0.67076  -0.65857  -0.65568
 Alpha  occ. eigenvalues --   -0.65378  -0.64995  -0.63658  -0.63134  -0.62435
 Alpha  occ. eigenvalues --   -0.61655  -0.61381  -0.61103  -0.60093  -0.60050
 Alpha  occ. eigenvalues --   -0.59500  -0.58758  -0.58362  -0.57894  -0.57278
 Alpha  occ. eigenvalues --   -0.57110  -0.57052  -0.56710  -0.56365  -0.56124
 Alpha  occ. eigenvalues --   -0.55979  -0.55806  -0.55544  -0.55277  -0.55045
 Alpha  occ. eigenvalues --   -0.54869  -0.54387  -0.54302  -0.53978  -0.53764
 Alpha  occ. eigenvalues --   -0.53354  -0.53264  -0.53075  -0.52801  -0.52620
 Alpha  occ. eigenvalues --   -0.52200  -0.52160  -0.52110  -0.52012  -0.51792
 Alpha  occ. eigenvalues --   -0.51571  -0.51399  -0.51300  -0.51082  -0.50743
 Alpha  occ. eigenvalues --   -0.50548  -0.50411  -0.50325  -0.49921  -0.49496
 Alpha  occ. eigenvalues --   -0.49354  -0.49254  -0.49000  -0.48647  -0.48425
 Alpha  occ. eigenvalues --   -0.48163  -0.47976  -0.47761  -0.47681  -0.47482
 Alpha  occ. eigenvalues --   -0.47417  -0.46949  -0.46803  -0.46565  -0.46525
 Alpha  occ. eigenvalues --   -0.46450  -0.45991  -0.45950  -0.45611  -0.45605
 Alpha  occ. eigenvalues --   -0.45321  -0.45281  -0.45118  -0.45048  -0.44644
 Alpha  occ. eigenvalues --   -0.44473  -0.44439  -0.44309  -0.44027  -0.43892
 Alpha  occ. eigenvalues --   -0.43646  -0.43585  -0.43259  -0.43118  -0.42783
 Alpha  occ. eigenvalues --   -0.42595  -0.42546  -0.42189  -0.41734  -0.41684
 Alpha  occ. eigenvalues --   -0.41410  -0.41293  -0.41199  -0.40870  -0.40753
 Alpha  occ. eigenvalues --   -0.40689  -0.40068  -0.39608  -0.39305  -0.39249
 Alpha  occ. eigenvalues --   -0.38965  -0.38789  -0.38679  -0.38430  -0.38179
 Alpha  occ. eigenvalues --   -0.37958  -0.37690  -0.36708  -0.36645  -0.36240
 Alpha  occ. eigenvalues --   -0.35823  -0.35747  -0.35513  -0.34140  -0.33837
 Alpha  occ. eigenvalues --   -0.32912  -0.32741  -0.32411  -0.30887  -0.25806
 Alpha  occ. eigenvalues --   -0.23029
 Alpha virt. eigenvalues --   -0.07142   0.00338   0.02361   0.04114   0.06096
 Alpha virt. eigenvalues --    0.06726   0.07195   0.07999   0.08888   0.09531
 Alpha virt. eigenvalues --    0.10754   0.11410   0.11887   0.12078   0.12649

 Mulliken charges:
               1
     1  Mg   0.951970
     2  C   -0.045763
     3  C   -0.059267
     4  C   -0.080361
     5  C   -0.071640
     6  N   -0.357177
     7  C    0.006009
     8  C   -0.068881
     9  C   -0.093138
    10  C    0.058673
    11  C   -0.014841
    12  C    0.086007
    13  C   -0.005206
    14  C    0.186564
    15  O   -0.241949
    16  O   -0.364539
    17  N   -0.467121
    18  C    0.169589
    19  C   -0.198966
    20  C   -0.076691
    21  C    0.127909
    22  C    0.078615
    23  C    0.112189
    24  O   -0.227341
    25  C   -0.041644
    26  N   -0.398553
    27  C    0.086484
    28  C   -0.120323
    29  C   -0.061477
    30  C    0.088809
    31  C    0.028326
    32  C   -0.054757
    33  C   -0.029066
    34  N   -0.433268
    35  C    0.121118
    36  C   -0.153746
    37  C   -0.050958
    38  C    0.162267
    39  C    0.064423
    40  C    0.133149
    41  O   -0.197515
    42  C   -0.115502
    43  C    0.281179
    44  O   -0.281819
    45  O   -0.329357
    46  C    0.139435
    47  C    0.251999
    48  C   -0.148911
    49  C   -0.197843
    50  C    0.037509
    51  C    0.037000
    52  C   -0.056462
    53  C   -0.002449
    54  C   -0.213891
    55  C    0.059767
    56  C    0.008802
    57  C   -0.043620
    58  C   -0.013327
    59  C   -0.124395
    60  C    0.021616
    61  C   -0.037072
    62  C   -0.017316
    63  C    0.003459
    64  C   -0.205188
    65  C   -0.019889
    66  C   -0.008944
    67  H   -0.008371
    68  H    0.014250
    69  H   -0.005487
    70  H    0.052840
    71  H    0.045962
    72  H    0.050556
    73  H    0.049841
    74  H    0.023182
    75  H    0.028234
    76  H    0.018087
    77  H    0.062258
    78  H    0.041085
    79  H    0.034289
    80  H    0.037977
    81  H    0.077255
    82  H    0.056711
    83  H    0.035748
    84  H    0.062229
    85  H    0.047806
    86  H    0.027884
    87  H    0.038841
    88  H    0.057772
    89  H    0.047644
    90  H    0.034694
    91  H    0.029215
    92  H    0.018186
    93  H    0.056098
    94  H    0.048744
    95  H    0.049786
    96  H    0.031643
    97  H    0.060035
    98  H    0.088061
    99  H    0.056491
   100  H    0.038152
   101  H    0.055261
   102  H    0.057249
   103  H    0.039714
   104  H    0.016121
   105  H    0.051290
   106  H    0.043688
   107  H    0.040960
   108  H    0.047735
   109  H    0.010398
   110  H    0.018649
   111  H    0.026238
   112  H    0.028603
   113  H    0.019538
   114  H    0.010863
   115  H    0.012292
   116  H    0.039559
   117  H    0.033518
   118  H    0.008237
   119  H    0.008174
   120  H    0.023203
   121  H    0.018651
   122  H    0.010460
   123  H    0.013421
   124  H    0.013113
   125  H    0.015577
   126  H    0.015775
   127  H    0.023934
   128  H    0.025731
   129  H    0.014052
   130  H    0.030765
   131  H    0.028945
   132  H    0.008067
   133  H    0.017089
   134  H    0.024790
   135  H    0.023749
   136  H    0.018429
   137  H    0.038761
   138  H    0.031183
   139  H    0.022734
   140  H    0.033097
 Sum of Mulliken charges =  -0.00000

 Dipole moment (field-independent basis, Debye):
    X=              3.9543    Y=              4.2440    Z=             -2.5448  Tot=              6.3343
 Quadrupole moment (field-independent basis, Debye-Ang):
   XX=           -374.4082   YY=           -429.5969   ZZ=           -400.5309
   XY=             -9.9969   XZ=             -0.5024   YZ=             19.0145

 Normal termination of Gaussian 16 at Fri Apr 29 13:37:30 2022.
