 Gaussian 16, Revision A.03,
 Gaussian 16:  ES64L-G16RevA.03 25-Dec-2016

 --------------------
 #p ZINDO=(nstates=5)
 --------------------

 ----------------------------
 step_301_chromophore_3 ZINDO
 ----------------------------
 Symbolic Z-matrix:
 Charge =  0 Multiplicity = 1

                         Standard orientation:
 ---------------------------------------------------------------------
 Center     Atomic      Atomic             Coordinates (Angstroms)
 Number     Number       Type             X           Y           Z
 ---------------------------------------------------------------------
      1         12           0       -5.345429    0.723121   -0.134916
      2          6           0       -3.874278   -2.499251   -0.161522
      3          6           0       -2.207410    2.031345    0.065666
      4          6           0       -6.722792    3.735405    0.176633
      5          6           0       -8.439066   -0.872954    0.427764
      6          7           0       -3.296989   -0.182342   -0.134718
      7          6           0       -2.921360   -1.462822   -0.274227
      8          6           0       -1.371128   -1.626615   -0.401607
      9          6           0       -0.810285   -0.198427   -0.071454
     10          6           0       -2.203124    0.690600   -0.089139
     11          6           0       -0.105794   -0.220692    1.372482
     12          6           0       -0.882278   -2.253300   -1.776152
     13          6           0        0.186871   -3.249129   -1.675312
     14          6           0        1.430407   -3.059366   -0.769072
     15          8           0        1.895988   -3.872738   -0.020305
     16          8           0        2.004528   -1.843224   -0.998055
     17          7           0       -4.616977    2.656482    0.095678
     18          6           0       -3.298123    2.977481    0.232769
     19          6           0       -3.247039    4.433988    0.411969
     20          6           0       -4.511670    4.984339    0.313494
     21          6           0       -5.364750    3.814009    0.086564
     22          6           0       -1.949949    5.084734    0.527737
     23          6           0       -5.032016    6.429553    0.349830
     24          8           0       -6.154634    6.870649    0.080965
     25          6           0       -3.973617    7.416376    0.561371
     26          7           0       -7.277727    1.346125    0.215088
     27          6           0       -7.607491    2.657592    0.211219
     28          6           0       -9.098852    2.873637    0.517017
     29          6           0       -9.676325    1.391705    0.466523
     30          6           0       -8.406748    0.534150    0.414349
     31          6           0       -9.344974    3.519210    1.907360
     32          6           0      -10.702389    1.176469   -0.735998
     33          6           0      -12.093262    0.527498   -0.466305
     34          7           0       -6.078883   -1.297008    0.024417
     35          6           0       -7.402853   -1.807403    0.237034
     36          6           0       -7.343561   -3.237849    0.309302
     37          6           0       -5.951185   -3.568155    0.117751
     38          6           0       -5.277366   -2.372533   -0.026213
     39          6           0       -8.466236   -4.160558    0.429959
     40          6           0       -5.003163   -4.673773    0.231804
     41          8           0       -5.180731   -5.837412    0.542506
     42          6           0       -3.641470   -4.021803   -0.191012
     43          6           0       -2.708687   -4.466721    0.950636
     44          8           0       -2.456834   -3.833002    2.009562
     45          8           0       -2.148981   -5.640049    0.551296
     46          6           0       -0.971328   -5.991378    1.279227
     47          6           0        3.307536   -1.610928   -0.337224
     48          6           0        4.254805   -1.491431   -1.505946
     49          6           0        5.278470   -2.282432   -1.837684
     50          6           0        5.562838   -3.644989   -1.193208
     51          6           0        6.163431   -1.919454   -3.021365
     52          6           0        7.311124   -0.842486   -2.810962
     53          6           0        7.338580    0.315923   -3.812859
     54          6           0        8.731630    1.059040   -3.757284
     55          6           0        9.034723    1.771762   -5.034827
     56          6           0        8.803835    1.980973   -2.448275
     57          6           0        9.906408    1.617330   -1.485141
     58          6           0       10.246547    2.845710   -0.523482
     59          6           0       11.564988    2.726794    0.243625
     60          6           0       12.641894    3.089671   -0.685719
     61          6           0       11.890226    1.308528    0.862979
     62          6           0       12.502239    1.537292    2.259727
     63          6           0       12.918974    0.165508    2.811727
     64          6           0       12.919051    0.032514    4.363685
     65          6           0       14.284841   -0.530772    5.008665
     66          6           0       11.681561   -0.750809    4.865468
     67          1           0       -1.186584    2.397741    0.195858
     68          1           0       -7.127676    4.736006    0.342391
     69          1           0       -9.423203   -1.323952    0.575008
     70          1           0       -1.113481   -2.319954    0.399062
     71          1           0       -0.122500    0.290739   -0.762543
     72          1           0        0.279142   -1.205259    1.636616
     73          1           0       -0.614954    0.096965    2.282197
     74          1           0        0.737147    0.464536    1.291771
     75          1           0       -0.715206   -1.546886   -2.590248
     76          1           0       -1.752498   -2.754654   -2.198498
     77          1           0        0.620307   -3.450081   -2.655502
     78          1           0       -0.180345   -4.207317   -1.306748
     79          1           0       -1.273746    4.348960    0.961474
     80          1           0       -1.964161    5.789683    1.359795
     81          1           0       -1.722238    5.529679   -0.440546
     82          1           0       -3.708221    7.545534    1.611007
     83          1           0       -4.381232    8.421102    0.443331
     84          1           0       -3.054708    7.421799   -0.024378
     85          1           0       -9.290099    3.481470   -0.366957
     86          1           0      -10.237991    1.242524    1.388685
     87          1           0       -9.136195    4.563019    1.674809
     88          1           0       -8.604390    3.201204    2.641452
     89          1           0      -10.395117    3.515521    2.198577
     90          1           0      -10.144653    0.634753   -1.500035
     91          1           0      -10.988735    2.156998   -1.117390
     92          1           0      -11.933700    0.200997    0.561412
     93          1           0      -12.167040   -0.345966   -1.113784
     94          1           0      -12.790891    1.363238   -0.419166
     95          1           0       -8.267834   -5.089236   -0.105909
     96          1           0       -9.383376   -3.828873   -0.056647
     97          1           0       -8.654505   -4.399500    1.476682
     98          1           0       -3.312102   -4.216558   -1.211703
     99          1           0       -1.148736   -5.926121    2.352219
    100          1           0       -0.216964   -5.248916    1.022664
    101          1           0       -0.591602   -6.979417    1.015820
    102          1           0        3.713749   -2.347822    0.355180
    103          1           0        3.231534   -0.652167    0.177051
    104          1           0        4.095324   -0.547093   -2.026341
    105          1           0        5.453279   -4.414402   -1.957880
    106          1           0        4.882978   -3.875947   -0.372980
    107          1           0        6.597079   -3.588079   -0.855592
    108          1           0        5.506981   -1.882364   -3.891267
    109          1           0        6.880939   -2.700697   -3.272620
    110          1           0        8.268895   -1.359062   -2.880585
    111          1           0        7.242560   -0.434116   -1.802755
    112          1           0        6.513014    0.959543   -3.508037
    113          1           0        7.347924   -0.046700   -4.840487
    114          1           0        9.351482    0.186437   -3.552247
    115          1           0        9.488989    2.705182   -4.701734
    116          1           0        8.137175    1.999231   -5.609422
    117          1           0        9.841121    1.281344   -5.581365
    118          1           0        7.870890    1.896311   -1.891869
    119          1           0        8.887186    3.025951   -2.745482
    120          1           0       10.729399    1.220888   -2.080773
    121          1           0        9.524048    0.794950   -0.880914
    122          1           0        9.433405    2.935138    0.197512
    123          1           0       10.206899    3.781164   -1.081875
    124          1           0       11.451201    3.453530    1.047130
    125          1           0       13.576060    3.316204   -0.174412
    126          1           0       12.446418    4.004394   -1.245412
    127          1           0       12.807034    2.270396   -1.385960
    128          1           0       12.557723    0.670850    0.283125
    129          1           0       10.920517    0.835826    1.021482
    130          1           0       11.705811    1.948386    2.880651
    131          1           0       13.387359    2.144179    2.068523
    132          1           0       13.934101    0.017978    2.441823
    133          1           0       12.362172   -0.697275    2.446796
    134          1           0       12.909028    1.035585    4.790981
    135          1           0       15.001284   -0.667131    4.198722
    136          1           0       14.078933   -1.512327    5.436516
    137          1           0       14.704785    0.088025    5.801644
    138          1           0       11.438825   -0.600983    5.918307
    139          1           0       11.900179   -1.818582    4.872969
    140          1           0       10.843838   -0.559198    4.194727
 ---------------------------------------------------------------------

 SCF Done:  E(RZINDO/S) =  -474.223184453     A.U. after   19 cycles

 Excitation energies and oscillator strengths:

 Excited State   1:      Singlet-A      1.2909 eV  960.45 nm  f=0.6260  <S**2>=0.000
     175 ->178        -0.17329
     176 ->177         0.66408
 This state for optimization and/or second-order correction.
 Total Energy, E(CIS/TDA) =  -474.175744838
 Copying the excited state density for this state as the 1-particle RhoCI density.

 Excited State   2:      Singlet-A      1.9245 eV  644.25 nm  f=0.0813  <S**2>=0.000
     175 ->177         0.57288
     176 ->178         0.37439

 Excited State   3:      Singlet-A      2.9750 eV  416.75 nm  f=0.0178  <S**2>=0.000
     167 ->177         0.13727
     167 ->178        -0.11681
     167 ->179        -0.21935
     167 ->180         0.14912
     168 ->177         0.25523
     168 ->178        -0.19669
     168 ->179        -0.35978
     168 ->180         0.23967
     168 ->185         0.15963

 Excited State   4:      Singlet-A      3.0401 eV  407.83 nm  f=0.9359  <S**2>=0.000
     175 ->177        -0.33898
     176 ->178         0.56017
     176 ->179         0.13763

 Excited State   5:      Singlet-A      3.0815 eV  402.35 nm  f=0.0104  <S**2>=0.000
     170 ->177         0.30002
     170 ->179         0.29216
     170 ->180         0.35109
     170 ->185        -0.14422
     170 ->187         0.19842
     171 ->180         0.11016
     174 ->177         0.12373
     176 ->179        -0.10528

 The electronic state is 1-A.
 Alpha  occ. eigenvalues --   -1.82094  -1.81555  -1.77754  -1.74281  -1.72266
 Alpha  occ. eigenvalues --   -1.68657  -1.66193  -1.61370  -1.59504  -1.57698
 Alpha  occ. eigenvalues --   -1.54164  -1.51836  -1.48248  -1.47203  -1.46721
 Alpha  occ. eigenvalues --   -1.45831  -1.42471  -1.41510  -1.38860  -1.38697
 Alpha  occ. eigenvalues --   -1.35600  -1.33757  -1.32928  -1.32775  -1.29301
 Alpha  occ. eigenvalues --   -1.28733  -1.25179  -1.22990  -1.20976  -1.18151
 Alpha  occ. eigenvalues --   -1.16297  -1.14698  -1.14631  -1.14452  -1.12403
 Alpha  occ. eigenvalues --   -1.12158  -1.11385  -1.10468  -1.05029  -1.03487
 Alpha  occ. eigenvalues --   -1.01852  -1.01241  -0.99082  -0.97890  -0.97285
 Alpha  occ. eigenvalues --   -0.94581  -0.94141  -0.93155  -0.92414  -0.92142
 Alpha  occ. eigenvalues --   -0.91297  -0.90479  -0.88955  -0.88443  -0.86754
 Alpha  occ. eigenvalues --   -0.84213  -0.83631  -0.82911  -0.81602  -0.79853
 Alpha  occ. eigenvalues --   -0.79162  -0.78789  -0.77790  -0.77377  -0.76463
 Alpha  occ. eigenvalues --   -0.76218  -0.76040  -0.74563  -0.73783  -0.73219
 Alpha  occ. eigenvalues --   -0.73025  -0.72527  -0.71931  -0.71369  -0.70830
 Alpha  occ. eigenvalues --   -0.70087  -0.69810  -0.68956  -0.68632  -0.68127
 Alpha  occ. eigenvalues --   -0.67634  -0.67301  -0.66605  -0.66289  -0.66086
 Alpha  occ. eigenvalues --   -0.65521  -0.65170  -0.64111  -0.63936  -0.63680
 Alpha  occ. eigenvalues --   -0.63365  -0.63112  -0.62778  -0.62426  -0.62033
 Alpha  occ. eigenvalues --   -0.61578  -0.61364  -0.60523  -0.60336  -0.59809
 Alpha  occ. eigenvalues --   -0.59499  -0.59164  -0.58888  -0.58679  -0.58574
 Alpha  occ. eigenvalues --   -0.57566  -0.57101  -0.56892  -0.56732  -0.56134
 Alpha  occ. eigenvalues --   -0.56022  -0.55536  -0.55362  -0.54829  -0.54654
 Alpha  occ. eigenvalues --   -0.54368  -0.53833  -0.52945  -0.52757  -0.52440
 Alpha  occ. eigenvalues --   -0.52132  -0.52003  -0.51855  -0.51127  -0.50962
 Alpha  occ. eigenvalues --   -0.50742  -0.50483  -0.50405  -0.49892  -0.49825
 Alpha  occ. eigenvalues --   -0.49730  -0.49331  -0.49277  -0.49200  -0.48562
 Alpha  occ. eigenvalues --   -0.48383  -0.48308  -0.48045  -0.47769  -0.47529
 Alpha  occ. eigenvalues --   -0.47203  -0.46894  -0.46401  -0.46205  -0.45981
 Alpha  occ. eigenvalues --   -0.45812  -0.45677  -0.45450  -0.45313  -0.45088
 Alpha  occ. eigenvalues --   -0.44940  -0.44847  -0.44478  -0.44425  -0.44189
 Alpha  occ. eigenvalues --   -0.43734  -0.43502  -0.42891  -0.42400  -0.42101
 Alpha  occ. eigenvalues --   -0.41916  -0.41655  -0.40441  -0.39235  -0.38882
 Alpha  occ. eigenvalues --   -0.38065  -0.37102  -0.36384  -0.35205  -0.34499
 Alpha  occ. eigenvalues --   -0.34174  -0.32666  -0.32568  -0.31600  -0.26450
 Alpha  occ. eigenvalues --   -0.22021
 Alpha virt. eigenvalues --   -0.08639  -0.01900  -0.00598   0.00801   0.02356
 Alpha virt. eigenvalues --    0.02504   0.02802   0.03030   0.04607   0.05203
 Alpha virt. eigenvalues --    0.06205   0.06929   0.07331   0.07646   0.08156

 Mulliken charges:
               1
     1  Mg   0.422124
     2  C   -0.062345
     3  C   -0.079136
     4  C   -0.046614
     5  C   -0.033731
     6  N   -0.290004
     7  C    0.130292
     8  C    0.006293
     9  C   -0.000638
    10  C    0.126324
    11  C   -0.056560
    12  C   -0.015112
    13  C    0.013546
    14  C    0.466777
    15  O   -0.509021
    16  O   -0.270265
    17  N   -0.317631
    18  C    0.122501
    19  C    0.034270
    20  C   -0.040786
    21  C    0.122917
    22  C   -0.048528
    23  C    0.346002
    24  O   -0.509117
    25  C   -0.038880
    26  N   -0.251825
    27  C    0.151669
    28  C   -0.008300
    29  C   -0.002578
    30  C    0.084878
    31  C   -0.049030
    32  C   -0.043498
    33  C   -0.069891
    34  N   -0.350150
    35  C    0.059956
    36  C    0.040434
    37  C   -0.076316
    38  C    0.136693
    39  C   -0.032754
    40  C    0.337728
    41  O   -0.517240
    42  C    0.047541
    43  C    0.488525
    44  O   -0.538455
    45  O   -0.253316
    46  C    0.075291
    47  C    0.101604
    48  C   -0.086889
    49  C   -0.002461
    50  C   -0.042416
    51  C   -0.038713
    52  C   -0.030202
    53  C   -0.040947
    54  C   -0.026695
    55  C   -0.052660
    56  C   -0.039936
    57  C   -0.036198
    58  C   -0.035050
    59  C   -0.008325
    60  C   -0.046179
    61  C   -0.040720
    62  C   -0.035657
    63  C   -0.035361
    64  C   -0.020240
    65  C   -0.066274
    66  C   -0.055291
    67  H    0.021146
    68  H    0.037553
    69  H    0.022390
    70  H    0.048465
    71  H    0.038678
    72  H    0.028647
    73  H    0.033056
    74  H    0.007603
    75  H    0.028005
    76  H    0.012677
    77  H    0.037312
    78  H    0.034615
    79  H    0.026748
    80  H    0.023081
    81  H    0.048244
    82  H    0.037693
    83  H    0.022230
    84  H    0.040891
    85  H    0.044729
    86  H    0.029135
    87  H    0.013106
    88  H    0.037983
    89  H    0.028843
    90  H    0.022231
    91  H    0.013443
    92  H    0.015560
    93  H    0.039542
    94  H    0.036479
    95  H    0.026141
    96  H    0.018932
    97  H    0.039608
    98  H    0.063942
    99  H    0.049422
   100  H    0.037340
   101  H    0.033985
   102  H    0.061709
   103  H    0.032991
   104  H    0.020279
   105  H    0.030184
   106  H    0.031877
   107  H    0.027565
   108  H    0.032695
   109  H    0.008935
   110  H    0.018518
   111  H    0.020367
   112  H    0.026470
   113  H    0.021444
   114  H    0.022950
   115  H    0.011566
   116  H    0.028474
   117  H    0.021982
   118  H    0.013805
   119  H    0.017897
   120  H    0.024258
   121  H    0.017541
   122  H    0.008373
   123  H    0.018991
   124  H    0.017246
   125  H    0.006983
   126  H    0.009008
   127  H    0.019905
   128  H    0.030924
   129  H    0.014866
   130  H    0.028773
   131  H    0.030767
   132  H    0.010676
   133  H    0.022164
   134  H    0.013417
   135  H    0.019067
   136  H    0.016427
   137  H    0.024226
   138  H    0.018459
   139  H    0.015163
   140  H    0.020171
 Sum of Mulliken charges =  -0.00000

 Dipole moment (field-independent basis, Debye):
    X=              4.9229    Y=              6.8103    Z=             -3.9151  Tot=              9.2706
 N-N= 4.310509824922D+03 E-N= 0.000000000000D+00  KE=-9.295575640520D+03
 Leave Link  601 at Fri Apr 29 13:51:04 2022, MaxMem=  6710886400 cpu:               2.0 elap:               0.1
 (Enter /sw/apps/gaussian-16.0/g16/l9999.exe)
 1\1\GINC-BP1-COMPUTE158\SP\RZINDO CIS\STO-3G\C55H74Mg1N4O6\OF15641\29-
 Apr-2022\0\\#p ZINDO=(nstates=5)\\step_301_chromophore_3 ZINDO\\0,1\Mg
 ,0,0.883,7.689,26.302\C,0,1.803,9.815,28.982\C,0,1.366,5.039,28.386\C,
 0,0.298,5.673,23.721\C,0,1.202,10.491,24.185\N,0,1.444,7.512,28.463\C,
 0,1.648,8.469,29.381\C,0,1.84,7.892,30.822\C,0,1.957,6.343,30.598\C,0,
 1.501,6.226,29.014\C,0,3.476,5.88,30.843\C,0,0.74,8.351,31.871\C,0,1.2
 4,8.706,33.201\C,0,2.295,7.858,33.957\O,0,3.27,8.272,34.52\O,0,1.922,6

 Normal termination of Gaussian 16 at Fri Apr 29 13:51:05 2022.
