 Gaussian 16, Revision A.03,
 Gaussian 16:  ES64L-G16RevA.03 25-Dec-2016

 ------------------------------
 #p blyp/Def2SVP td=(nstates=5)
 ------------------------------

 ---------------------------------------------------
 step_1551_chromophore_17 TDDFT with blyp functional
 ---------------------------------------------------
 Symbolic Z-matrix:
 Charge =  0 Multiplicity = 1

                         Standard orientation:
 ---------------------------------------------------------------------
 Center     Atomic      Atomic             Coordinates (Angstroms)
 Number     Number       Type             X           Y           Z
 ---------------------------------------------------------------------
      1         12           0        4.028261    1.293076   -0.275608
      2          6           0        4.395715   -2.049428   -0.562393
      3          6           0        1.504711    1.276891   -2.578209
      4          6           0        3.597050    4.798477    0.167832
      5          6           0        6.420939    1.377927    2.330271
      6          7           0        3.079565   -0.250466   -1.398143
      7          6           0        3.402636   -1.544940   -1.384667
      8          6           0        2.411925   -2.381475   -2.201455
      9          6           0        1.627718   -1.322664   -2.999401
     10          6           0        2.072784   -0.054461   -2.268577
     11          6           0        1.903409   -1.312011   -4.528325
     12          6           0        1.539963   -3.189460   -1.172824
     13          6           0        0.883848   -4.410266   -1.942914
     14          6           0       -0.063525   -5.223462   -1.115408
     15          8           0        0.071731   -6.453311   -0.875701
     16          8           0       -0.991666   -4.368498   -0.618440
     17          7           0        2.689836    2.880931   -1.066043
     18          6           0        1.811835    2.566652   -2.076836
     19          6           0        1.325392    3.830058   -2.610582
     20          6           0        1.934103    4.859237   -1.860707
     21          6           0        2.790101    4.230419   -0.865075
     22          6           0        0.300373    3.941661   -3.691990
     23          6           0        1.819037    6.291662   -2.237166
     24          8           0        1.172588    6.584364   -3.204268
     25          6           0        2.399367    7.431850   -1.464192
     26          7           0        4.736097    2.763709    1.184512
     27          6           0        4.415358    4.135842    1.124083
     28          6           0        5.202569    4.899105    2.122067
     29          6           0        6.060517    3.864916    2.843581
     30          6           0        5.765226    2.576886    2.068411
     31          6           0        5.910860    6.159503    1.697492
     32          6           0        5.745281    3.796226    4.388151
     33          6           0        6.842498    3.520400    5.366271
     34          7           0        5.177571   -0.009474    0.722479
     35          6           0        6.148433    0.143344    1.759507
     36          6           0        6.818641   -1.076273    2.006494
     37          6           0        6.182759   -2.023768    1.115886
     38          6           0        5.179963   -1.255632    0.300403
     39          6           0        7.922886   -1.399341    2.951316
     40          6           0        6.080261   -3.379879    0.721783
     41          8           0        6.690066   -4.413221    1.035512
     42          6           0        4.973982   -3.481189   -0.403307
     43          6           0        5.566887   -4.006440   -1.607030
     44          8           0        6.751738   -3.914867   -1.884792
     45          8           0        4.672667   -4.854402   -2.268396
     46          6           0        5.183940   -5.602112   -3.508821
     47          6           0       -1.995038   -5.071056    0.225600
     48          6           0       -2.500420   -4.154640    1.283042
     49          6           0       -3.225521   -4.466757    2.467357
     50          6           0       -3.706205   -5.827568    2.976188
     51          6           0       -3.896227   -3.294239    3.280302
     52          6           0       -5.406781   -3.022244    3.009299
     53          6           0       -5.783643   -1.554151    2.880849
     54          6           0       -6.576375   -1.272264    1.555331
     55          6           0       -7.725479   -2.246377    1.420448
     56          6           0       -7.272701    0.161371    1.552975
     57          6           0       -7.281913    0.851128    0.174953
     58          6           0       -8.504076    1.811854   -0.048114
     59          6           0       -9.129975    1.713196   -1.485514
     60          6           0       -8.322494    2.357992   -2.587203
     61          6           0      -10.534360    2.319102   -1.326803
     62          6           0      -11.642965    1.250672   -1.237236
     63          6           0      -12.925266    1.722366   -0.569900
     64          6           0      -12.928044    1.223071    0.958247
     65          6           0      -14.172830    0.323437    1.217272
     66          6           0      -12.852347    2.439024    1.775847
     67          1           0        0.690641    1.300466   -3.304291
     68          1           0        3.577769    5.889528    0.211524
     69          1           0        7.133404    1.309153    3.154445
     70          1           0        2.931352   -3.001974   -2.931339
     71          1           0        0.546165   -1.449746   -2.979031
     72          1           0        0.973396   -1.421531   -5.086466
     73          1           0        2.452723   -2.199161   -4.843955
     74          1           0        2.529944   -0.477124   -4.840971
     75          1           0        0.737086   -2.506106   -0.897024
     76          1           0        2.048029   -3.614584   -0.306259
     77          1           0        1.671234   -4.981208   -2.434848
     78          1           0        0.196455   -4.069901   -2.718064
     79          1           0       -0.530444    4.553938   -3.341541
     80          1           0       -0.185377    3.051758   -4.090080
     81          1           0        0.821463    4.357540   -4.554140
     82          1           0        2.005111    7.393994   -0.449581
     83          1           0        2.111203    8.380112   -1.917541
     84          1           0        3.476164    7.312066   -1.343668
     85          1           0        4.408889    5.177714    2.815265
     86          1           0        7.114908    4.116553    2.731663
     87          1           0        5.561409    7.013935    2.277602
     88          1           0        5.760345    6.472674    0.663915
     89          1           0        6.975610    6.226462    1.918926
     90          1           0        4.943211    3.082677    4.580603
     91          1           0        5.358922    4.767621    4.695891
     92          1           0        7.763959    3.451574    4.786877
     93          1           0        6.684853    2.533732    5.802055
     94          1           0        6.826594    4.246575    6.177860
     95          1           0        7.793580   -1.243693    4.021800
     96          1           0        8.782108   -0.827809    2.598039
     97          1           0        8.171946   -2.460248    2.918702
     98          1           0        4.260633   -4.277698   -0.192659
     99          1           0        5.961589   -5.056037   -4.044537
    100          1           0        4.335388   -5.745950   -4.178327
    101          1           0        5.564764   -6.614889   -3.378891
    102          1           0       -1.624591   -5.855692    0.885937
    103          1           0       -2.912561   -5.446479   -0.227940
    104          1           0       -2.364238   -3.099002    1.047900
    105          1           0       -4.756810   -6.081525    2.839860
    106          1           0       -3.565261   -5.851925    4.056715
    107          1           0       -3.155043   -6.702965    2.632320
    108          1           0       -3.189541   -2.474573    3.412153
    109          1           0       -3.855814   -3.617039    4.320339
    110          1           0       -5.941523   -3.525688    3.814564
    111          1           0       -5.665660   -3.542016    2.086278
    112          1           0       -4.803385   -1.079539    2.822959
    113          1           0       -6.354907   -1.326848    3.780494
    114          1           0       -5.907707   -1.316955    0.695462
    115          1           0       -7.498025   -2.835332    0.532462
    116          1           0       -8.677046   -1.770450    1.182824
    117          1           0       -7.872047   -2.837230    2.325143
    118          1           0       -6.792329    0.761205    2.325964
    119          1           0       -8.308981    0.128973    1.887218
    120          1           0       -6.984194    0.070500   -0.525597
    121          1           0       -6.457724    1.546446    0.019493
    122          1           0       -8.122357    2.792259    0.238411
    123          1           0       -9.223144    1.545074    0.725459
    124          1           0       -9.312729    0.666177   -1.727609
    125          1           0       -8.699691    3.238026   -3.107389
    126          1           0       -8.210975    1.485443   -3.231143
    127          1           0       -7.374851    2.616517   -2.115154
    128          1           0      -10.628185    2.882316   -2.255187
    129          1           0      -10.589696    2.978562   -0.460714
    130          1           0      -11.246651    0.296094   -0.891058
    131          1           0      -12.005854    0.961889   -2.223796
    132          1           0      -13.792256    1.352879   -1.116640
    133          1           0      -12.977812    2.809892   -0.634813
    134          1           0      -11.994923    0.688023    1.134078
    135          1           0      -14.943905    0.616827    1.930459
    136          1           0      -13.754972   -0.640457    1.507155
    137          1           0      -14.741853    0.211070    0.295396
    138          1           0      -13.275904    3.269290    1.211765
    139          1           0      -11.805952    2.740250    1.818149
    140          1           0      -13.292229    2.292236    2.762815
 ---------------------------------------------------------------------

 SCF Done:  E(RB-LYP) =  -3007.33670631     A.U. after   20 cycles

 Excitation energies and oscillator strengths:

 Excited State   1:      Singlet-A      1.6810 eV  737.55 nm  f=0.0006  <S**2>=0.000
     244 -> 247        0.58645
     245 -> 247        0.38452
 This state for optimization and/or second-order correction.
 Total Energy, E(TD-HF/TD-DFT) =  -3007.27492963
 Copying the excited state density for this state as the 1-particle RhoCI density.

 Excited State   2:      Singlet-A      1.7228 eV  719.66 nm  f=0.0005  <S**2>=0.000
     243 -> 247        0.67552
     244 -> 247        0.17277
     245 -> 247       -0.11571

 Excited State   3:      Singlet-A      1.7904 eV  692.50 nm  f=0.2765  <S**2>=0.000
     245 -> 248       -0.17820
     246 -> 247        0.69079
     246 <- 247       -0.15215

 Excited State   4:      Singlet-A      2.0336 eV  609.67 nm  f=0.0773  <S**2>=0.000
     240 -> 247       -0.11953
     243 -> 247        0.17723
     244 -> 247       -0.32355
     245 -> 247        0.51744
     246 -> 248        0.27340

 Excited State   5:      Singlet-A      2.0938 eV  592.15 nm  f=0.0003  <S**2>=0.000
     242 -> 247        0.70622

 The electronic state is 1-A.
 Alpha  occ. eigenvalues --  -46.27578 -18.84054 -18.82220 -18.76690 -18.76190
 Alpha  occ. eigenvalues --  -18.74791 -18.74570 -14.04520 -14.03510 -14.01342
 Alpha  occ. eigenvalues --  -14.00946 -10.04356 -10.03260  -9.99055  -9.98689
 Alpha  occ. eigenvalues --   -9.98370  -9.98157  -9.97958  -9.97208  -9.96925
 Alpha  occ. eigenvalues --   -9.96629  -9.96259  -9.95760  -9.95651  -9.95351
 Alpha  occ. eigenvalues --   -9.94819  -9.94411  -9.94255  -9.94226  -9.94214
 Alpha  occ. eigenvalues --   -9.94108  -9.94011  -9.93931  -9.93652  -9.93641
 Alpha  occ. eigenvalues --   -9.93590  -9.93513  -9.93467  -9.93097  -9.92858
 Alpha  occ. eigenvalues --   -9.92844  -9.92768  -9.92708  -9.92549  -9.92471
 Alpha  occ. eigenvalues --   -9.92201  -9.92189  -9.91993  -9.91935  -9.91926
 Alpha  occ. eigenvalues --   -9.91728  -9.91697  -9.91566  -9.91545  -9.91463
 Alpha  occ. eigenvalues --   -9.91424  -9.91417  -9.90832  -9.90821  -9.90776
 Alpha  occ. eigenvalues --   -9.90686  -9.90615  -9.90593  -9.90588  -9.90480
 Alpha  occ. eigenvalues --   -9.89971  -2.92177  -1.72609  -1.72028  -1.71914
 Alpha  occ. eigenvalues --   -0.98432  -0.96190  -0.92674  -0.89584  -0.88754
 Alpha  occ. eigenvalues --   -0.88572  -0.88409  -0.85944  -0.85336  -0.84756
 Alpha  occ. eigenvalues --   -0.75195  -0.73655  -0.73356  -0.73001  -0.72903
 Alpha  occ. eigenvalues --   -0.72159  -0.71926  -0.71291  -0.70906  -0.70808
 Alpha  occ. eigenvalues --   -0.69796  -0.69434  -0.68545  -0.68184  -0.67594
 Alpha  occ. eigenvalues --   -0.66674  -0.66128  -0.65599  -0.65182  -0.65112
 Alpha  occ. eigenvalues --   -0.64290  -0.63149  -0.62622  -0.61884  -0.61195
 Alpha  occ. eigenvalues --   -0.60692  -0.60451  -0.60137  -0.59679  -0.58558
 Alpha  occ. eigenvalues --   -0.58329  -0.58112  -0.57532  -0.56065  -0.54397
 Alpha  occ. eigenvalues --   -0.54307  -0.53561  -0.52809  -0.52155  -0.51977
 Alpha  occ. eigenvalues --   -0.51773  -0.51152  -0.50986  -0.50912  -0.50771
 Alpha  occ. eigenvalues --   -0.49770  -0.49212  -0.48675  -0.48454  -0.47242
 Alpha  occ. eigenvalues --   -0.46415  -0.46328  -0.46033  -0.45584  -0.44416
 Alpha  occ. eigenvalues --   -0.43995  -0.43604  -0.43572  -0.42768  -0.42316
 Alpha  occ. eigenvalues --   -0.42184  -0.42054  -0.41699  -0.41463  -0.41208
 Alpha  occ. eigenvalues --   -0.41072  -0.41040  -0.40430  -0.40406  -0.40312
 Alpha  occ. eigenvalues --   -0.40000  -0.39656  -0.39510  -0.39326  -0.39156
 Alpha  occ. eigenvalues --   -0.38900  -0.38849  -0.38734  -0.38608  -0.38510
 Alpha  occ. eigenvalues --   -0.38497  -0.38092  -0.37678  -0.37503  -0.37201
 Alpha  occ. eigenvalues --   -0.37151  -0.36825  -0.36743  -0.36580  -0.36461
 Alpha  occ. eigenvalues --   -0.36309  -0.36094  -0.36004  -0.35923  -0.35739
 Alpha  occ. eigenvalues --   -0.35372  -0.35328  -0.35207  -0.35153  -0.34820
 Alpha  occ. eigenvalues --   -0.34784  -0.34735  -0.34662  -0.34434  -0.34182
 Alpha  occ. eigenvalues --   -0.34016  -0.33503  -0.33407  -0.33259  -0.33147
 Alpha  occ. eigenvalues --   -0.33057  -0.32901  -0.32647  -0.32545  -0.32243
 Alpha  occ. eigenvalues --   -0.32192  -0.32066  -0.31867  -0.31684  -0.31614
 Alpha  occ. eigenvalues --   -0.31596  -0.31299  -0.31027  -0.30657  -0.30569
 Alpha  occ. eigenvalues --   -0.30457  -0.30267  -0.30237  -0.30105  -0.29868
 Alpha  occ. eigenvalues --   -0.29815  -0.29660  -0.29579  -0.29503  -0.29382
 Alpha  occ. eigenvalues --   -0.29040  -0.28953  -0.28634  -0.28333  -0.28142
 Alpha  occ. eigenvalues --   -0.27797  -0.27276  -0.27041  -0.26900  -0.26783
 Alpha  occ. eigenvalues --   -0.26640  -0.26227  -0.25924  -0.25649  -0.25273
 Alpha  occ. eigenvalues --   -0.24966  -0.24434  -0.24257  -0.23485  -0.23341
 Alpha  occ. eigenvalues --   -0.23077  -0.22515  -0.21389  -0.21135  -0.20584
 Alpha  occ. eigenvalues --   -0.20256  -0.19592  -0.18187  -0.18016  -0.17727
 Alpha  occ. eigenvalues --   -0.16103
 Alpha virt. eigenvalues --   -0.11899  -0.07296  -0.06195  -0.04461  -0.03500
 Alpha virt. eigenvalues --   -0.02989  -0.02826  -0.02377  -0.01725  -0.00010
 Alpha virt. eigenvalues --    0.01000   0.01397   0.01795   0.02182   0.02319

 Mulliken charges:
               1
     1  Mg   0.687483
     2  C    0.026641
     3  C   -0.048853
     4  C   -0.067784
     5  C   -0.088522
     6  N   -0.200724
     7  C   -0.065776
     8  C    0.069622
     9  C   -0.020756
    10  C    0.023048
    11  C    0.123090
    12  C    0.100034
    13  C    0.134645
    14  C    0.095619
    15  O   -0.213564
    16  O   -0.265032
    17  N   -0.258864
    18  C    0.118571
    19  C   -0.136351
    20  C    0.054190
    21  C    0.089994
    22  C    0.199522
    23  C   -0.123294
    24  O   -0.152179
    25  C    0.148734
    26  N   -0.224848
    27  C    0.024271
    28  C    0.071554
    29  C    0.031414
    30  C    0.058647
    31  C    0.141306
    32  C    0.057385
    33  C    0.091769
    34  N   -0.303239
    35  C    0.120457
    36  C   -0.138669
    37  C    0.091743
    38  C    0.056188
    39  C    0.160017
    40  C   -0.046753
    41  O   -0.148107
    42  C    0.070718
    43  C    0.100332
    44  O   -0.164020
    45  O   -0.309547
    46  C    0.207243
    47  C    0.333239
    48  C   -0.138444
    49  C   -0.134433
    50  C    0.112250
    51  C    0.094058
    52  C    0.056642
    53  C    0.146357
    54  C   -0.124179
    55  C    0.129673
    56  C    0.108524
    57  C    0.059809
    58  C    0.069498
    59  C   -0.101474
    60  C    0.144519
    61  C    0.134882
    62  C    0.047148
    63  C    0.087015
    64  C   -0.098222
    65  C    0.109973
    66  C    0.137707
    67  H   -0.067219
    68  H   -0.085254
    69  H   -0.067063
    70  H   -0.027662
    71  H   -0.019585
    72  H   -0.007149
    73  H   -0.019989
    74  H    0.002544
    75  H   -0.007125
    76  H    0.010057
    77  H   -0.005078
    78  H   -0.018935
    79  H    0.008384
    80  H   -0.033861
    81  H    0.008378
    82  H    0.004844
    83  H   -0.005794
    84  H    0.008759
    85  H   -0.018362
    86  H   -0.030391
    87  H   -0.026497
    88  H   -0.004495
    89  H   -0.013958
    90  H   -0.018862
    91  H   -0.026866
    92  H   -0.009925
    93  H   -0.011190
    94  H   -0.004120
    95  H    0.001050
    96  H    0.003210
    97  H    0.006204
    98  H   -0.004379
    99  H    0.024178
   100  H    0.008950
   101  H    0.026843
   102  H    0.021511
   103  H    0.018959
   104  H   -0.028019
   105  H    0.008152
   106  H   -0.012631
   107  H   -0.015977
   108  H   -0.025217
   109  H   -0.049135
   110  H   -0.024729
   111  H   -0.020387
   112  H   -0.031108
   113  H   -0.027685
   114  H   -0.030242
   115  H   -0.019433
   116  H   -0.018676
   117  H   -0.006413
   118  H   -0.048293
   119  H   -0.041584
   120  H   -0.036860
   121  H   -0.036365
   122  H   -0.025520
   123  H   -0.026218
   124  H   -0.035543
   125  H   -0.002719
   126  H   -0.013292
   127  H   -0.023550
   128  H   -0.052074
   129  H   -0.026422
   130  H   -0.029173
   131  H   -0.048535
   132  H   -0.038586
   133  H   -0.029755
   134  H   -0.024126
   135  H   -0.017289
   136  H   -0.014074
   137  H   -0.024315
   138  H   -0.029136
   139  H   -0.029905
   140  H   -0.017173
 Sum of Mulliken charges =  -0.00000

 Dipole moment (field-independent basis, Debye):
    X=             -2.6024    Y=              3.6414    Z=              1.0060  Tot=              4.5874
 Quadrupole moment (field-independent basis, Debye-Ang):
   XX=           -418.5185   YY=           -434.2310   ZZ=           -384.9802
   XY=             53.4796   XZ=              5.7802   YZ=             31.3742

 Normal termination of Gaussian 16 at Thu Apr 28 12:23:52 2022.
