 Gaussian 16, Revision A.03,
 Gaussian 16:  ES64L-G16RevA.03 25-Dec-2016

 -----------------------------------
 #p cam-b3lyp/Def2SVP td=(nstates=5)
 -----------------------------------

 --------------------------------------------------------
 step_1551_chromophore_17 TDDFT with cam-b3lyp functional
 --------------------------------------------------------
 Symbolic Z-matrix:
 Charge =  0 Multiplicity = 1

                         Standard orientation:
 ---------------------------------------------------------------------
 Center     Atomic      Atomic             Coordinates (Angstroms)
 Number     Number       Type             X           Y           Z
 ---------------------------------------------------------------------
      1         12           0        4.028261    1.293076   -0.275608
      2          6           0        4.395715   -2.049428   -0.562393
      3          6           0        1.504711    1.276891   -2.578209
      4          6           0        3.597050    4.798477    0.167832
      5          6           0        6.420939    1.377927    2.330271
      6          7           0        3.079565   -0.250466   -1.398143
      7          6           0        3.402636   -1.544940   -1.384667
      8          6           0        2.411925   -2.381475   -2.201455
      9          6           0        1.627718   -1.322664   -2.999401
     10          6           0        2.072784   -0.054461   -2.268577
     11          6           0        1.903409   -1.312011   -4.528325
     12          6           0        1.539963   -3.189460   -1.172824
     13          6           0        0.883848   -4.410266   -1.942914
     14          6           0       -0.063525   -5.223462   -1.115408
     15          8           0        0.071731   -6.453311   -0.875701
     16          8           0       -0.991666   -4.368498   -0.618440
     17          7           0        2.689836    2.880931   -1.066043
     18          6           0        1.811835    2.566652   -2.076836
     19          6           0        1.325392    3.830058   -2.610582
     20          6           0        1.934103    4.859237   -1.860707
     21          6           0        2.790101    4.230419   -0.865075
     22          6           0        0.300373    3.941661   -3.691990
     23          6           0        1.819037    6.291662   -2.237166
     24          8           0        1.172588    6.584364   -3.204268
     25          6           0        2.399367    7.431850   -1.464192
     26          7           0        4.736097    2.763709    1.184512
     27          6           0        4.415358    4.135842    1.124083
     28          6           0        5.202569    4.899105    2.122067
     29          6           0        6.060517    3.864916    2.843581
     30          6           0        5.765226    2.576886    2.068411
     31          6           0        5.910860    6.159503    1.697492
     32          6           0        5.745281    3.796226    4.388151
     33          6           0        6.842498    3.520400    5.366271
     34          7           0        5.177571   -0.009474    0.722479
     35          6           0        6.148433    0.143344    1.759507
     36          6           0        6.818641   -1.076273    2.006494
     37          6           0        6.182759   -2.023768    1.115886
     38          6           0        5.179963   -1.255632    0.300403
     39          6           0        7.922886   -1.399341    2.951316
     40          6           0        6.080261   -3.379879    0.721783
     41          8           0        6.690066   -4.413221    1.035512
     42          6           0        4.973982   -3.481189   -0.403307
     43          6           0        5.566887   -4.006440   -1.607030
     44          8           0        6.751738   -3.914867   -1.884792
     45          8           0        4.672667   -4.854402   -2.268396
     46          6           0        5.183940   -5.602112   -3.508821
     47          6           0       -1.995038   -5.071056    0.225600
     48          6           0       -2.500420   -4.154640    1.283042
     49          6           0       -3.225521   -4.466757    2.467357
     50          6           0       -3.706205   -5.827568    2.976188
     51          6           0       -3.896227   -3.294239    3.280302
     52          6           0       -5.406781   -3.022244    3.009299
     53          6           0       -5.783643   -1.554151    2.880849
     54          6           0       -6.576375   -1.272264    1.555331
     55          6           0       -7.725479   -2.246377    1.420448
     56          6           0       -7.272701    0.161371    1.552975
     57          6           0       -7.281913    0.851128    0.174953
     58          6           0       -8.504076    1.811854   -0.048114
     59          6           0       -9.129975    1.713196   -1.485514
     60          6           0       -8.322494    2.357992   -2.587203
     61          6           0      -10.534360    2.319102   -1.326803
     62          6           0      -11.642965    1.250672   -1.237236
     63          6           0      -12.925266    1.722366   -0.569900
     64          6           0      -12.928044    1.223071    0.958247
     65          6           0      -14.172830    0.323437    1.217272
     66          6           0      -12.852347    2.439024    1.775847
     67          1           0        0.690641    1.300466   -3.304291
     68          1           0        3.577769    5.889528    0.211524
     69          1           0        7.133404    1.309153    3.154445
     70          1           0        2.931352   -3.001974   -2.931339
     71          1           0        0.546165   -1.449746   -2.979031
     72          1           0        0.973396   -1.421531   -5.086466
     73          1           0        2.452723   -2.199161   -4.843955
     74          1           0        2.529944   -0.477124   -4.840971
     75          1           0        0.737086   -2.506106   -0.897024
     76          1           0        2.048029   -3.614584   -0.306259
     77          1           0        1.671234   -4.981208   -2.434848
     78          1           0        0.196455   -4.069901   -2.718064
     79          1           0       -0.530444    4.553938   -3.341541
     80          1           0       -0.185377    3.051758   -4.090080
     81          1           0        0.821463    4.357540   -4.554140
     82          1           0        2.005111    7.393994   -0.449581
     83          1           0        2.111203    8.380112   -1.917541
     84          1           0        3.476164    7.312066   -1.343668
     85          1           0        4.408889    5.177714    2.815265
     86          1           0        7.114908    4.116553    2.731663
     87          1           0        5.561409    7.013935    2.277602
     88          1           0        5.760345    6.472674    0.663915
     89          1           0        6.975610    6.226462    1.918926
     90          1           0        4.943211    3.082677    4.580603
     91          1           0        5.358922    4.767621    4.695891
     92          1           0        7.763959    3.451574    4.786877
     93          1           0        6.684853    2.533732    5.802055
     94          1           0        6.826594    4.246575    6.177860
     95          1           0        7.793580   -1.243693    4.021800
     96          1           0        8.782108   -0.827809    2.598039
     97          1           0        8.171946   -2.460248    2.918702
     98          1           0        4.260633   -4.277698   -0.192659
     99          1           0        5.961589   -5.056037   -4.044537
    100          1           0        4.335388   -5.745950   -4.178327
    101          1           0        5.564764   -6.614889   -3.378891
    102          1           0       -1.624591   -5.855692    0.885937
    103          1           0       -2.912561   -5.446479   -0.227940
    104          1           0       -2.364238   -3.099002    1.047900
    105          1           0       -4.756810   -6.081525    2.839860
    106          1           0       -3.565261   -5.851925    4.056715
    107          1           0       -3.155043   -6.702965    2.632320
    108          1           0       -3.189541   -2.474573    3.412153
    109          1           0       -3.855814   -3.617039    4.320339
    110          1           0       -5.941523   -3.525688    3.814564
    111          1           0       -5.665660   -3.542016    2.086278
    112          1           0       -4.803385   -1.079539    2.822959
    113          1           0       -6.354907   -1.326848    3.780494
    114          1           0       -5.907707   -1.316955    0.695462
    115          1           0       -7.498025   -2.835332    0.532462
    116          1           0       -8.677046   -1.770450    1.182824
    117          1           0       -7.872047   -2.837230    2.325143
    118          1           0       -6.792329    0.761205    2.325964
    119          1           0       -8.308981    0.128973    1.887218
    120          1           0       -6.984194    0.070500   -0.525597
    121          1           0       -6.457724    1.546446    0.019493
    122          1           0       -8.122357    2.792259    0.238411
    123          1           0       -9.223144    1.545074    0.725459
    124          1           0       -9.312729    0.666177   -1.727609
    125          1           0       -8.699691    3.238026   -3.107389
    126          1           0       -8.210975    1.485443   -3.231143
    127          1           0       -7.374851    2.616517   -2.115154
    128          1           0      -10.628185    2.882316   -2.255187
    129          1           0      -10.589696    2.978562   -0.460714
    130          1           0      -11.246651    0.296094   -0.891058
    131          1           0      -12.005854    0.961889   -2.223796
    132          1           0      -13.792256    1.352879   -1.116640
    133          1           0      -12.977812    2.809892   -0.634813
    134          1           0      -11.994923    0.688023    1.134078
    135          1           0      -14.943905    0.616827    1.930459
    136          1           0      -13.754972   -0.640457    1.507155
    137          1           0      -14.741853    0.211070    0.295396
    138          1           0      -13.275904    3.269290    1.211765
    139          1           0      -11.805952    2.740250    1.818149
    140          1           0      -13.292229    2.292236    2.762815
 ---------------------------------------------------------------------

 SCF Done:  E(RCAM-B3LYP) =  -3007.12660158     A.U. after   18 cycles

 Excitation energies and oscillator strengths:

 Excited State   1:      Singlet-A      1.6819 eV  737.17 nm  f=0.3610  <S**2>=0.000
     245 -> 248        0.18048
     246 -> 247        0.68686
     245 <- 248        0.11033
 This state for optimization and/or second-order correction.
 Total Energy, E(TD-HF/TD-DFT) =  -3007.06479341
 Copying the excited state density for this state as the 1-particle RhoCI density.

 Excited State   2:      Singlet-A      2.2575 eV  549.21 nm  f=0.0859  <S**2>=0.000
     245 -> 247        0.62098
     246 -> 248       -0.32420

 Excited State   3:      Singlet-A      3.2569 eV  380.68 nm  f=0.0008  <S**2>=0.000
     241 -> 247        0.35025
     241 -> 249        0.22880
     241 -> 250       -0.10402
     242 -> 247        0.48401
     242 -> 249        0.15475
     243 -> 247       -0.10166

 Excited State   4:      Singlet-A      3.2786 eV  378.16 nm  f=0.0214  <S**2>=0.000
     241 -> 247        0.44223
     242 -> 247       -0.42986
     242 -> 249        0.10208
     243 -> 247       -0.22407
     246 -> 248        0.21003

 Excited State   5:      Singlet-A      3.4660 eV  357.71 nm  f=0.1497  <S**2>=0.000
     241 -> 247        0.13419
     243 -> 247        0.56407
     245 -> 247        0.13594
     246 -> 248        0.35075

 The electronic state is 1-A.
 Alpha  occ. eigenvalues --  -46.89182 -19.27072 -19.25163 -19.19626 -19.19186
 Alpha  occ. eigenvalues --  -19.18151 -19.17393 -14.43568 -14.42348 -14.39690
 Alpha  occ. eigenvalues --  -14.39535 -10.39673 -10.38585 -10.34253 -10.33776
 Alpha  occ. eigenvalues --  -10.32819 -10.32448 -10.32311 -10.31930 -10.31336
 Alpha  occ. eigenvalues --  -10.31026 -10.30830 -10.30401 -10.29623 -10.29563
 Alpha  occ. eigenvalues --  -10.28916 -10.28558 -10.28539 -10.28502 -10.28473
 Alpha  occ. eigenvalues --  -10.28424 -10.28342 -10.28136 -10.27770 -10.27759
 Alpha  occ. eigenvalues --  -10.27736 -10.27484 -10.27404 -10.26984 -10.26932
 Alpha  occ. eigenvalues --  -10.26737 -10.26711 -10.26497 -10.26325 -10.26239
 Alpha  occ. eigenvalues --  -10.26073 -10.25999 -10.25955 -10.25712 -10.25691
 Alpha  occ. eigenvalues --  -10.25589 -10.25517 -10.25273 -10.25252 -10.25174
 Alpha  occ. eigenvalues --  -10.25172 -10.25085 -10.24532 -10.24517 -10.24392
 Alpha  occ. eigenvalues --  -10.24351 -10.24237 -10.24217 -10.24162 -10.24143
 Alpha  occ. eigenvalues --  -10.23537  -3.17684  -1.92594  -1.92112  -1.92010
 Alpha  occ. eigenvalues --   -1.16865  -1.14657  -1.11293  -1.07609  -1.06611
 Alpha  occ. eigenvalues --   -1.06408  -1.06301  -1.03522  -1.02990  -1.02311
 Alpha  occ. eigenvalues --   -0.92217  -0.90493  -0.90214  -0.89715  -0.89618
 Alpha  occ. eigenvalues --   -0.88866  -0.88616  -0.87912  -0.87543  -0.87276
 Alpha  occ. eigenvalues --   -0.86347  -0.86108  -0.84864  -0.84325  -0.83826
 Alpha  occ. eigenvalues --   -0.82746  -0.82335  -0.81638  -0.81121  -0.80963
 Alpha  occ. eigenvalues --   -0.80080  -0.78790  -0.78170  -0.77587  -0.76624
 Alpha  occ. eigenvalues --   -0.76068  -0.75872  -0.75471  -0.75009  -0.73778
 Alpha  occ. eigenvalues --   -0.73385  -0.73124  -0.72497  -0.70924  -0.68992
 Alpha  occ. eigenvalues --   -0.68855  -0.68119  -0.67330  -0.66440  -0.66291
 Alpha  occ. eigenvalues --   -0.65869  -0.65233  -0.65056  -0.64844  -0.64794
 Alpha  occ. eigenvalues --   -0.63816  -0.63202  -0.62563  -0.62090  -0.60966
 Alpha  occ. eigenvalues --   -0.59933  -0.59796  -0.59431  -0.59043  -0.57809
 Alpha  occ. eigenvalues --   -0.57411  -0.57042  -0.56835  -0.56054  -0.55322
 Alpha  occ. eigenvalues --   -0.55162  -0.55014  -0.54830  -0.54425  -0.54191
 Alpha  occ. eigenvalues --   -0.54049  -0.53869  -0.53197  -0.53007  -0.52916
 Alpha  occ. eigenvalues --   -0.52601  -0.52391  -0.52339  -0.52050  -0.51624
 Alpha  occ. eigenvalues --   -0.51543  -0.51304  -0.51174  -0.51077  -0.50934
 Alpha  occ. eigenvalues --   -0.50854  -0.50606  -0.50050  -0.49834  -0.49679
 Alpha  occ. eigenvalues --   -0.49518  -0.49330  -0.49165  -0.48811  -0.48651
 Alpha  occ. eigenvalues --   -0.48367  -0.48333  -0.48135  -0.48110  -0.47847
 Alpha  occ. eigenvalues --   -0.47415  -0.47276  -0.47182  -0.47056  -0.47002
 Alpha  occ. eigenvalues --   -0.46877  -0.46806  -0.46605  -0.46532  -0.45961
 Alpha  occ. eigenvalues --   -0.45892  -0.45243  -0.45176  -0.45004  -0.44906
 Alpha  occ. eigenvalues --   -0.44707  -0.44599  -0.44435  -0.44298  -0.44020
 Alpha  occ. eigenvalues --   -0.43922  -0.43677  -0.43583  -0.43311  -0.43271
 Alpha  occ. eigenvalues --   -0.42967  -0.42678  -0.42416  -0.42271  -0.42072
 Alpha  occ. eigenvalues --   -0.41966  -0.41912  -0.41608  -0.41529  -0.41181
 Alpha  occ. eigenvalues --   -0.41111  -0.40949  -0.40788  -0.40658  -0.40600
 Alpha  occ. eigenvalues --   -0.40149  -0.40056  -0.39596  -0.39367  -0.39142
 Alpha  occ. eigenvalues --   -0.38752  -0.38202  -0.37921  -0.37796  -0.37663
 Alpha  occ. eigenvalues --   -0.37410  -0.37246  -0.36898  -0.36593  -0.36385
 Alpha  occ. eigenvalues --   -0.36352  -0.34785  -0.34513  -0.34244  -0.33939
 Alpha  occ. eigenvalues --   -0.33456  -0.33416  -0.33311  -0.31336  -0.30662
 Alpha  occ. eigenvalues --   -0.29929  -0.29822  -0.29652  -0.29035  -0.24690
 Alpha  occ. eigenvalues --   -0.21319
 Alpha virt. eigenvalues --   -0.09038  -0.02330   0.00292   0.02414   0.02775
 Alpha virt. eigenvalues --    0.04095   0.04565   0.05015   0.05192   0.06399
 Alpha virt. eigenvalues --    0.07722   0.07830   0.08391   0.08532   0.08556

 Mulliken charges:
               1
     1  Mg   0.821014
     2  C   -0.007613
     3  C   -0.061096
     4  C   -0.089876
     5  C   -0.093443
     6  N   -0.274468
     7  C   -0.026548
     8  C    0.018870
     9  C   -0.073721
    10  C    0.044181
    11  C    0.064930
    12  C    0.049613
    13  C    0.067130
    14  C    0.176925
    15  O   -0.255993
    16  O   -0.328572
    17  N   -0.345455
    18  C    0.129112
    19  C   -0.138253
    20  C   -0.016180
    21  C    0.123890
    22  C    0.139896
    23  C   -0.046096
    24  O   -0.192053
    25  C    0.065372
    26  N   -0.296581
    27  C    0.059990
    28  C    0.000560
    29  C   -0.020847
    30  C    0.074897
    31  C    0.075596
    32  C    0.005792
    33  C    0.026788
    34  N   -0.394626
    35  C    0.123528
    36  C   -0.131984
    37  C    0.007526
    38  C    0.098420
    39  C    0.105130
    40  C    0.050433
    41  O   -0.190471
    42  C   -0.008034
    43  C    0.196108
    44  O   -0.201882
    45  O   -0.377995
    46  C    0.174759
    47  C    0.299506
    48  C   -0.150462
    49  C   -0.162353
    50  C    0.051379
    51  C    0.036158
    52  C    0.001487
    53  C    0.091242
    54  C   -0.178618
    55  C    0.065029
    56  C    0.058306
    57  C    0.009586
    58  C    0.019943
    59  C   -0.153600
    60  C    0.081925
    61  C    0.081953
    62  C   -0.007582
    63  C    0.031936
    64  C   -0.156201
    65  C    0.049718
    66  C    0.078151
    67  H   -0.030861
    68  H   -0.049461
    69  H   -0.031612
    70  H    0.006947
    71  H    0.016380
    72  H    0.017789
    73  H    0.005783
    74  H    0.029069
    75  H    0.022596
    76  H    0.038981
    77  H    0.027029
    78  H    0.010953
    79  H    0.036273
    80  H   -0.004596
    81  H    0.037108
    82  H    0.032319
    83  H    0.031136
    84  H    0.033933
    85  H    0.018684
    86  H    0.004456
    87  H    0.000251
    88  H    0.019358
    89  H    0.013592
    90  H    0.010820
    91  H    0.000791
    92  H    0.011580
    93  H    0.012458
    94  H    0.020461
    95  H    0.025937
    96  H    0.027882
    97  H    0.035238
    98  H    0.039299
    99  H    0.049335
   100  H    0.028947
   101  H    0.048403
   102  H    0.050679
   103  H    0.045055
   104  H    0.005183
   105  H    0.031896
   106  H    0.012364
   107  H    0.009782
   108  H    0.005842
   109  H   -0.017550
   110  H    0.003056
   111  H    0.008123
   112  H   -0.001262
   113  H    0.001583
   114  H    0.000469
   115  H    0.005271
   116  H    0.005577
   117  H    0.017894
   118  H   -0.017819
   119  H   -0.014227
   120  H   -0.010033
   121  H   -0.008986
   122  H    0.003668
   123  H   -0.003707
   124  H   -0.003519
   125  H    0.021854
   126  H    0.010671
   127  H   -0.000288
   128  H   -0.021123
   129  H   -0.001381
   130  H   -0.002758
   131  H   -0.017570
   132  H   -0.008214
   133  H   -0.001646
   134  H    0.004278
   135  H    0.007710
   136  H    0.009615
   137  H   -0.000715
   138  H   -0.004568
   139  H   -0.006996
   140  H    0.008356
 Sum of Mulliken charges =  -0.00000

 Dipole moment (field-independent basis, Debye):
    X=             -3.1114    Y=              4.2759    Z=              0.5927  Tot=              5.3212
 Quadrupole moment (field-independent basis, Debye-Ang):
   XX=           -421.3157   YY=           -430.6544   ZZ=           -382.3746
   XY=             56.4776   XZ=              4.7721   YZ=             32.3001

 Normal termination of Gaussian 16 at Thu Apr 28 11:26:46 2022.
