 Gaussian 16, Revision A.03,
 Gaussian 16:  ES64L-G16RevA.03 25-Dec-2016

 ---------------------------------
 #p PBE1PBE/Def2SVP td=(nstates=5)
 ---------------------------------

 ------------------------------------------------------
 step_1551_chromophore_17 TDDFT with PBE1PBE functional
 ------------------------------------------------------
 Symbolic Z-matrix:
 Charge =  0 Multiplicity = 1

                         Standard orientation:
 ---------------------------------------------------------------------
 Center     Atomic      Atomic             Coordinates (Angstroms)
 Number     Number       Type             X           Y           Z
 ---------------------------------------------------------------------
      1         12           0        4.028261    1.293076   -0.275608
      2          6           0        4.395715   -2.049428   -0.562393
      3          6           0        1.504711    1.276891   -2.578209
      4          6           0        3.597050    4.798477    0.167832
      5          6           0        6.420939    1.377927    2.330271
      6          7           0        3.079565   -0.250466   -1.398143
      7          6           0        3.402636   -1.544940   -1.384667
      8          6           0        2.411925   -2.381475   -2.201455
      9          6           0        1.627718   -1.322664   -2.999401
     10          6           0        2.072784   -0.054461   -2.268577
     11          6           0        1.903409   -1.312011   -4.528325
     12          6           0        1.539963   -3.189460   -1.172824
     13          6           0        0.883848   -4.410266   -1.942914
     14          6           0       -0.063525   -5.223462   -1.115408
     15          8           0        0.071731   -6.453311   -0.875701
     16          8           0       -0.991666   -4.368498   -0.618440
     17          7           0        2.689836    2.880931   -1.066043
     18          6           0        1.811835    2.566652   -2.076836
     19          6           0        1.325392    3.830058   -2.610582
     20          6           0        1.934103    4.859237   -1.860707
     21          6           0        2.790101    4.230419   -0.865075
     22          6           0        0.300373    3.941661   -3.691990
     23          6           0        1.819037    6.291662   -2.237166
     24          8           0        1.172588    6.584364   -3.204268
     25          6           0        2.399367    7.431850   -1.464192
     26          7           0        4.736097    2.763709    1.184512
     27          6           0        4.415358    4.135842    1.124083
     28          6           0        5.202569    4.899105    2.122067
     29          6           0        6.060517    3.864916    2.843581
     30          6           0        5.765226    2.576886    2.068411
     31          6           0        5.910860    6.159503    1.697492
     32          6           0        5.745281    3.796226    4.388151
     33          6           0        6.842498    3.520400    5.366271
     34          7           0        5.177571   -0.009474    0.722479
     35          6           0        6.148433    0.143344    1.759507
     36          6           0        6.818641   -1.076273    2.006494
     37          6           0        6.182759   -2.023768    1.115886
     38          6           0        5.179963   -1.255632    0.300403
     39          6           0        7.922886   -1.399341    2.951316
     40          6           0        6.080261   -3.379879    0.721783
     41          8           0        6.690066   -4.413221    1.035512
     42          6           0        4.973982   -3.481189   -0.403307
     43          6           0        5.566887   -4.006440   -1.607030
     44          8           0        6.751738   -3.914867   -1.884792
     45          8           0        4.672667   -4.854402   -2.268396
     46          6           0        5.183940   -5.602112   -3.508821
     47          6           0       -1.995038   -5.071056    0.225600
     48          6           0       -2.500420   -4.154640    1.283042
     49          6           0       -3.225521   -4.466757    2.467357
     50          6           0       -3.706205   -5.827568    2.976188
     51          6           0       -3.896227   -3.294239    3.280302
     52          6           0       -5.406781   -3.022244    3.009299
     53          6           0       -5.783643   -1.554151    2.880849
     54          6           0       -6.576375   -1.272264    1.555331
     55          6           0       -7.725479   -2.246377    1.420448
     56          6           0       -7.272701    0.161371    1.552975
     57          6           0       -7.281913    0.851128    0.174953
     58          6           0       -8.504076    1.811854   -0.048114
     59          6           0       -9.129975    1.713196   -1.485514
     60          6           0       -8.322494    2.357992   -2.587203
     61          6           0      -10.534360    2.319102   -1.326803
     62          6           0      -11.642965    1.250672   -1.237236
     63          6           0      -12.925266    1.722366   -0.569900
     64          6           0      -12.928044    1.223071    0.958247
     65          6           0      -14.172830    0.323437    1.217272
     66          6           0      -12.852347    2.439024    1.775847
     67          1           0        0.690641    1.300466   -3.304291
     68          1           0        3.577769    5.889528    0.211524
     69          1           0        7.133404    1.309153    3.154445
     70          1           0        2.931352   -3.001974   -2.931339
     71          1           0        0.546165   -1.449746   -2.979031
     72          1           0        0.973396   -1.421531   -5.086466
     73          1           0        2.452723   -2.199161   -4.843955
     74          1           0        2.529944   -0.477124   -4.840971
     75          1           0        0.737086   -2.506106   -0.897024
     76          1           0        2.048029   -3.614584   -0.306259
     77          1           0        1.671234   -4.981208   -2.434848
     78          1           0        0.196455   -4.069901   -2.718064
     79          1           0       -0.530444    4.553938   -3.341541
     80          1           0       -0.185377    3.051758   -4.090080
     81          1           0        0.821463    4.357540   -4.554140
     82          1           0        2.005111    7.393994   -0.449581
     83          1           0        2.111203    8.380112   -1.917541
     84          1           0        3.476164    7.312066   -1.343668
     85          1           0        4.408889    5.177714    2.815265
     86          1           0        7.114908    4.116553    2.731663
     87          1           0        5.561409    7.013935    2.277602
     88          1           0        5.760345    6.472674    0.663915
     89          1           0        6.975610    6.226462    1.918926
     90          1           0        4.943211    3.082677    4.580603
     91          1           0        5.358922    4.767621    4.695891
     92          1           0        7.763959    3.451574    4.786877
     93          1           0        6.684853    2.533732    5.802055
     94          1           0        6.826594    4.246575    6.177860
     95          1           0        7.793580   -1.243693    4.021800
     96          1           0        8.782108   -0.827809    2.598039
     97          1           0        8.171946   -2.460248    2.918702
     98          1           0        4.260633   -4.277698   -0.192659
     99          1           0        5.961589   -5.056037   -4.044537
    100          1           0        4.335388   -5.745950   -4.178327
    101          1           0        5.564764   -6.614889   -3.378891
    102          1           0       -1.624591   -5.855692    0.885937
    103          1           0       -2.912561   -5.446479   -0.227940
    104          1           0       -2.364238   -3.099002    1.047900
    105          1           0       -4.756810   -6.081525    2.839860
    106          1           0       -3.565261   -5.851925    4.056715
    107          1           0       -3.155043   -6.702965    2.632320
    108          1           0       -3.189541   -2.474573    3.412153
    109          1           0       -3.855814   -3.617039    4.320339
    110          1           0       -5.941523   -3.525688    3.814564
    111          1           0       -5.665660   -3.542016    2.086278
    112          1           0       -4.803385   -1.079539    2.822959
    113          1           0       -6.354907   -1.326848    3.780494
    114          1           0       -5.907707   -1.316955    0.695462
    115          1           0       -7.498025   -2.835332    0.532462
    116          1           0       -8.677046   -1.770450    1.182824
    117          1           0       -7.872047   -2.837230    2.325143
    118          1           0       -6.792329    0.761205    2.325964
    119          1           0       -8.308981    0.128973    1.887218
    120          1           0       -6.984194    0.070500   -0.525597
    121          1           0       -6.457724    1.546446    0.019493
    122          1           0       -8.122357    2.792259    0.238411
    123          1           0       -9.223144    1.545074    0.725459
    124          1           0       -9.312729    0.666177   -1.727609
    125          1           0       -8.699691    3.238026   -3.107389
    126          1           0       -8.210975    1.485443   -3.231143
    127          1           0       -7.374851    2.616517   -2.115154
    128          1           0      -10.628185    2.882316   -2.255187
    129          1           0      -10.589696    2.978562   -0.460714
    130          1           0      -11.246651    0.296094   -0.891058
    131          1           0      -12.005854    0.961889   -2.223796
    132          1           0      -13.792256    1.352879   -1.116640
    133          1           0      -12.977812    2.809892   -0.634813
    134          1           0      -11.994923    0.688023    1.134078
    135          1           0      -14.943905    0.616827    1.930459
    136          1           0      -13.754972   -0.640457    1.507155
    137          1           0      -14.741853    0.211070    0.295396
    138          1           0      -13.275904    3.269290    1.211765
    139          1           0      -11.805952    2.740250    1.818149
    140          1           0      -13.292229    2.292236    2.762815
 ---------------------------------------------------------------------

 SCF Done:  E(RPBE1PBE) =  -3005.31673731     A.U. after   15 cycles

 Excitation energies and oscillator strengths:

 Excited State   1:      Singlet-A      1.8337 eV  676.14 nm  f=0.3453  <S**2>=0.000
     245 -> 248        0.17571
     246 -> 247        0.69386
     246 <- 247       -0.11020
 This state for optimization and/or second-order correction.
 Total Energy, E(TD-HF/TD-DFT) =  -3005.24934939
 Copying the excited state density for this state as the 1-particle RhoCI density.

 Excited State   2:      Singlet-A      2.2609 eV  548.39 nm  f=0.0906  <S**2>=0.000
     245 -> 247        0.63531
     246 -> 248       -0.29530

 Excited State   3:      Singlet-A      2.7132 eV  456.96 nm  f=0.0001  <S**2>=0.000
     243 -> 247        0.67644
     243 -> 249        0.15953

 Excited State   4:      Singlet-A      2.9154 eV  425.27 nm  f=0.0001  <S**2>=0.000
     242 -> 247        0.67801
     242 -> 249       -0.11098

 Excited State   5:      Singlet-A      2.9621 eV  418.57 nm  f=0.0014  <S**2>=0.000
     241 -> 247        0.68728

 The electronic state is 1-A.
 Alpha  occ. eigenvalues --  -46.92553 -19.27747 -19.25831 -19.19973 -19.19433
 Alpha  occ. eigenvalues --  -19.18236 -19.17836 -14.42968 -14.41942 -14.39425
 Alpha  occ. eigenvalues --  -14.39089 -10.36736 -10.35606 -10.31261 -10.31059
 Alpha  occ. eigenvalues --  -10.30386 -10.29853 -10.29549 -10.29540 -10.29110
 Alpha  occ. eigenvalues --  -10.28706 -10.28481 -10.27866 -10.27536 -10.27397
 Alpha  occ. eigenvalues --  -10.26657 -10.26363 -10.26305 -10.26230 -10.26190
 Alpha  occ. eigenvalues --  -10.26000 -10.25983 -10.25814 -10.25664 -10.25428
 Alpha  occ. eigenvalues --  -10.25419 -10.25271 -10.24944 -10.24530 -10.24450
 Alpha  occ. eigenvalues --  -10.24363 -10.24245 -10.24007 -10.23967 -10.23657
 Alpha  occ. eigenvalues --  -10.23630 -10.23562 -10.23548 -10.23316 -10.23295
 Alpha  occ. eigenvalues --  -10.23002 -10.22983 -10.22949 -10.22832 -10.22803
 Alpha  occ. eigenvalues --  -10.22744 -10.22642 -10.22108 -10.22048 -10.21987
 Alpha  occ. eigenvalues --  -10.21774 -10.21716 -10.21692 -10.21602 -10.21549
 Alpha  occ. eigenvalues --  -10.20881  -3.14638  -1.87488  -1.86984  -1.86887
 Alpha  occ. eigenvalues --   -1.11692  -1.09401  -1.05924  -1.02484  -1.01474
 Alpha  occ. eigenvalues --   -1.01242  -1.00896  -0.98189  -0.97602  -0.96951
 Alpha  occ. eigenvalues --   -0.86609  -0.84708  -0.84297  -0.83966  -0.83813
 Alpha  occ. eigenvalues --   -0.83170  -0.82761  -0.82052  -0.81792  -0.81693
 Alpha  occ. eigenvalues --   -0.80542  -0.80298  -0.79073  -0.78657  -0.78060
 Alpha  occ. eigenvalues --   -0.76938  -0.76502  -0.75796  -0.75393  -0.75291
 Alpha  occ. eigenvalues --   -0.74261  -0.73089  -0.72508  -0.71815  -0.70918
 Alpha  occ. eigenvalues --   -0.70411  -0.69945  -0.69635  -0.69133  -0.67954
 Alpha  occ. eigenvalues --   -0.67805  -0.67510  -0.66908  -0.65193  -0.63431
 Alpha  occ. eigenvalues --   -0.63297  -0.62344  -0.61725  -0.60867  -0.60525
 Alpha  occ. eigenvalues --   -0.60318  -0.59736  -0.59468  -0.59376  -0.59122
 Alpha  occ. eigenvalues --   -0.57935  -0.57375  -0.56752  -0.56695  -0.55416
 Alpha  occ. eigenvalues --   -0.54531  -0.54280  -0.54063  -0.53644  -0.52435
 Alpha  occ. eigenvalues --   -0.51801  -0.51479  -0.51350  -0.50630  -0.49841
 Alpha  occ. eigenvalues --   -0.49744  -0.49661  -0.49327  -0.48902  -0.48760
 Alpha  occ. eigenvalues --   -0.48555  -0.48241  -0.47811  -0.47468  -0.47340
 Alpha  occ. eigenvalues --   -0.47147  -0.46980  -0.46836  -0.46592  -0.46148
 Alpha  occ. eigenvalues --   -0.46035  -0.45914  -0.45758  -0.45613  -0.45462
 Alpha  occ. eigenvalues --   -0.45340  -0.45248  -0.44580  -0.44313  -0.44232
 Alpha  occ. eigenvalues --   -0.44087  -0.43945  -0.43771  -0.43379  -0.43324
 Alpha  occ. eigenvalues --   -0.43032  -0.42909  -0.42811  -0.42759  -0.42527
 Alpha  occ. eigenvalues --   -0.42152  -0.41943  -0.41862  -0.41674  -0.41608
 Alpha  occ. eigenvalues --   -0.41560  -0.41518  -0.41279  -0.41181  -0.40642
 Alpha  occ. eigenvalues --   -0.40518  -0.40046  -0.39923  -0.39760  -0.39658
 Alpha  occ. eigenvalues --   -0.39477  -0.39341  -0.39163  -0.39139  -0.38822
 Alpha  occ. eigenvalues --   -0.38711  -0.38373  -0.38302  -0.38106  -0.38024
 Alpha  occ. eigenvalues --   -0.37699  -0.37513  -0.37165  -0.37044  -0.36928
 Alpha  occ. eigenvalues --   -0.36763  -0.36722  -0.36391  -0.36299  -0.36088
 Alpha  occ. eigenvalues --   -0.35867  -0.35803  -0.35715  -0.35552  -0.35409
 Alpha  occ. eigenvalues --   -0.34981  -0.34879  -0.34363  -0.34297  -0.33887
 Alpha  occ. eigenvalues --   -0.33539  -0.32966  -0.32799  -0.32678  -0.32561
 Alpha  occ. eigenvalues --   -0.32466  -0.32186  -0.31706  -0.31582  -0.31351
 Alpha  occ. eigenvalues --   -0.31194  -0.29797  -0.29662  -0.29458  -0.28867
 Alpha  occ. eigenvalues --   -0.28502  -0.28381  -0.28200  -0.26934  -0.25521
 Alpha  occ. eigenvalues --   -0.25340  -0.25232  -0.24837  -0.24371  -0.21569
 Alpha  occ. eigenvalues --   -0.19003
 Alpha virt. eigenvalues --   -0.11507  -0.05751  -0.03919  -0.01852  -0.00495
 Alpha virt. eigenvalues --   -0.00210   0.00233   0.00489   0.00945   0.02776
 Alpha virt. eigenvalues --    0.03842   0.04455   0.04523   0.05050   0.05341

 Mulliken charges:
               1
     1  Mg   0.968657
     2  C   -0.026276
     3  C   -0.049908
     4  C   -0.084155
     5  C   -0.079604
     6  N   -0.387479
     7  C    0.044541
     8  C   -0.055648
     9  C   -0.146744
    10  C    0.082849
    11  C    0.011763
    12  C   -0.004407
    13  C   -0.009096
    14  C    0.241811
    15  O   -0.289321
    16  O   -0.356610
    17  N   -0.458626
    18  C    0.154727
    19  C   -0.170695
    20  C   -0.068725
    21  C    0.157707
    22  C    0.081587
    23  C    0.006530
    24  O   -0.227410
    25  C   -0.012243
    26  N   -0.398509
    27  C    0.101310
    28  C   -0.085091
    29  C   -0.097263
    30  C    0.111088
    31  C    0.016284
    32  C   -0.050637
    33  C   -0.046320
    34  N   -0.524852
    35  C    0.138268
    36  C   -0.142644
    37  C   -0.045857
    38  C    0.170131
    39  C    0.053873
    40  C    0.137813
    41  O   -0.233656
    42  C   -0.118652
    43  C    0.295256
    44  O   -0.236747
    45  O   -0.409205
    46  C    0.119580
    47  C    0.254868
    48  C   -0.158624
    49  C   -0.209887
    50  C   -0.007800
    51  C   -0.023966
    52  C   -0.059207
    53  C    0.034556
    54  C   -0.269642
    55  C    0.006007
    56  C    0.005387
    57  C   -0.043688
    58  C   -0.044459
    59  C   -0.236718
    60  C    0.021860
    61  C    0.024835
    62  C   -0.070818
    63  C   -0.022363
    64  C   -0.249197
    65  C   -0.008414
    66  C    0.015030
    67  H    0.001788
    68  H   -0.014315
    69  H    0.003100
    70  H    0.046454
    71  H    0.051508
    72  H    0.044027
    73  H    0.032354
    74  H    0.056323
    75  H    0.055955
    76  H    0.072598
    77  H    0.060442
    78  H    0.044927
    79  H    0.063038
    80  H    0.021323
    81  H    0.064480
    82  H    0.059082
    83  H    0.058523
    84  H    0.060182
    85  H    0.057805
    86  H    0.041895
    87  H    0.028163
    88  H    0.046588
    89  H    0.040342
    90  H    0.043475
    91  H    0.034704
    92  H    0.038525
    93  H    0.040217
    94  H    0.048148
    95  H    0.052780
    96  H    0.056252
    97  H    0.062805
    98  H    0.075948
    99  H    0.070005
   100  H    0.049605
   101  H    0.069461
   102  H    0.077755
   103  H    0.072083
   104  H    0.034817
   105  H    0.058075
   106  H    0.039515
   107  H    0.036652
   108  H    0.035616
   109  H    0.016895
   110  H    0.034475
   111  H    0.042949
   112  H    0.033321
   113  H    0.033888
   114  H    0.036992
   115  H    0.033169
   116  H    0.033791
   117  H    0.045922
   118  H    0.015602
   119  H    0.016467
   120  H    0.021080
   121  H    0.024135
   122  H    0.036160
   123  H    0.032803
   124  H    0.034419
   125  H    0.047137
   126  H    0.037927
   127  H    0.028911
   128  H    0.013609
   129  H    0.032385
   130  H    0.028450
   131  H    0.016801
   132  H    0.023401
   133  H    0.030158
   134  H    0.041483
   135  H    0.033918
   136  H    0.037154
   137  H    0.025936
   138  H    0.023511
   139  H    0.022918
   140  H    0.036062
 Sum of Mulliken charges =  -0.00000

 Dipole moment (field-independent basis, Debye):
    X=             -2.8848    Y=              4.1219    Z=              0.8692  Tot=              5.1056
 Quadrupole moment (field-independent basis, Debye-Ang):
   XX=           -416.0257   YY=           -427.8408   ZZ=           -378.5746
   XY=             56.7857   XZ=              7.0037   YZ=             33.3239

 Normal termination of Gaussian 16 at Thu Apr 28 11:45:58 2022.
