 Gaussian 16, Revision A.03,
 Gaussian 16:  ES64L-G16RevA.03 25-Dec-2016

 --------------------------------
 #p wB97XD/Def2SVP td=(nstates=5)
 --------------------------------

 -----------------------------------------------------
 step_1551_chromophore_17 TDDFT with wB97XD functional
 -----------------------------------------------------
 Symbolic Z-matrix:
 Charge =  0 Multiplicity = 1

                         Standard orientation:
 ---------------------------------------------------------------------
 Center     Atomic      Atomic             Coordinates (Angstroms)
 Number     Number       Type             X           Y           Z
 ---------------------------------------------------------------------
      1         12           0        4.028261    1.293076   -0.275608
      2          6           0        4.395715   -2.049428   -0.562393
      3          6           0        1.504711    1.276891   -2.578209
      4          6           0        3.597050    4.798477    0.167832
      5          6           0        6.420939    1.377927    2.330271
      6          7           0        3.079565   -0.250466   -1.398143
      7          6           0        3.402636   -1.544940   -1.384667
      8          6           0        2.411925   -2.381475   -2.201455
      9          6           0        1.627718   -1.322664   -2.999401
     10          6           0        2.072784   -0.054461   -2.268577
     11          6           0        1.903409   -1.312011   -4.528325
     12          6           0        1.539963   -3.189460   -1.172824
     13          6           0        0.883848   -4.410266   -1.942914
     14          6           0       -0.063525   -5.223462   -1.115408
     15          8           0        0.071731   -6.453311   -0.875701
     16          8           0       -0.991666   -4.368498   -0.618440
     17          7           0        2.689836    2.880931   -1.066043
     18          6           0        1.811835    2.566652   -2.076836
     19          6           0        1.325392    3.830058   -2.610582
     20          6           0        1.934103    4.859237   -1.860707
     21          6           0        2.790101    4.230419   -0.865075
     22          6           0        0.300373    3.941661   -3.691990
     23          6           0        1.819037    6.291662   -2.237166
     24          8           0        1.172588    6.584364   -3.204268
     25          6           0        2.399367    7.431850   -1.464192
     26          7           0        4.736097    2.763709    1.184512
     27          6           0        4.415358    4.135842    1.124083
     28          6           0        5.202569    4.899105    2.122067
     29          6           0        6.060517    3.864916    2.843581
     30          6           0        5.765226    2.576886    2.068411
     31          6           0        5.910860    6.159503    1.697492
     32          6           0        5.745281    3.796226    4.388151
     33          6           0        6.842498    3.520400    5.366271
     34          7           0        5.177571   -0.009474    0.722479
     35          6           0        6.148433    0.143344    1.759507
     36          6           0        6.818641   -1.076273    2.006494
     37          6           0        6.182759   -2.023768    1.115886
     38          6           0        5.179963   -1.255632    0.300403
     39          6           0        7.922886   -1.399341    2.951316
     40          6           0        6.080261   -3.379879    0.721783
     41          8           0        6.690066   -4.413221    1.035512
     42          6           0        4.973982   -3.481189   -0.403307
     43          6           0        5.566887   -4.006440   -1.607030
     44          8           0        6.751738   -3.914867   -1.884792
     45          8           0        4.672667   -4.854402   -2.268396
     46          6           0        5.183940   -5.602112   -3.508821
     47          6           0       -1.995038   -5.071056    0.225600
     48          6           0       -2.500420   -4.154640    1.283042
     49          6           0       -3.225521   -4.466757    2.467357
     50          6           0       -3.706205   -5.827568    2.976188
     51          6           0       -3.896227   -3.294239    3.280302
     52          6           0       -5.406781   -3.022244    3.009299
     53          6           0       -5.783643   -1.554151    2.880849
     54          6           0       -6.576375   -1.272264    1.555331
     55          6           0       -7.725479   -2.246377    1.420448
     56          6           0       -7.272701    0.161371    1.552975
     57          6           0       -7.281913    0.851128    0.174953
     58          6           0       -8.504076    1.811854   -0.048114
     59          6           0       -9.129975    1.713196   -1.485514
     60          6           0       -8.322494    2.357992   -2.587203
     61          6           0      -10.534360    2.319102   -1.326803
     62          6           0      -11.642965    1.250672   -1.237236
     63          6           0      -12.925266    1.722366   -0.569900
     64          6           0      -12.928044    1.223071    0.958247
     65          6           0      -14.172830    0.323437    1.217272
     66          6           0      -12.852347    2.439024    1.775847
     67          1           0        0.690641    1.300466   -3.304291
     68          1           0        3.577769    5.889528    0.211524
     69          1           0        7.133404    1.309153    3.154445
     70          1           0        2.931352   -3.001974   -2.931339
     71          1           0        0.546165   -1.449746   -2.979031
     72          1           0        0.973396   -1.421531   -5.086466
     73          1           0        2.452723   -2.199161   -4.843955
     74          1           0        2.529944   -0.477124   -4.840971
     75          1           0        0.737086   -2.506106   -0.897024
     76          1           0        2.048029   -3.614584   -0.306259
     77          1           0        1.671234   -4.981208   -2.434848
     78          1           0        0.196455   -4.069901   -2.718064
     79          1           0       -0.530444    4.553938   -3.341541
     80          1           0       -0.185377    3.051758   -4.090080
     81          1           0        0.821463    4.357540   -4.554140
     82          1           0        2.005111    7.393994   -0.449581
     83          1           0        2.111203    8.380112   -1.917541
     84          1           0        3.476164    7.312066   -1.343668
     85          1           0        4.408889    5.177714    2.815265
     86          1           0        7.114908    4.116553    2.731663
     87          1           0        5.561409    7.013935    2.277602
     88          1           0        5.760345    6.472674    0.663915
     89          1           0        6.975610    6.226462    1.918926
     90          1           0        4.943211    3.082677    4.580603
     91          1           0        5.358922    4.767621    4.695891
     92          1           0        7.763959    3.451574    4.786877
     93          1           0        6.684853    2.533732    5.802055
     94          1           0        6.826594    4.246575    6.177860
     95          1           0        7.793580   -1.243693    4.021800
     96          1           0        8.782108   -0.827809    2.598039
     97          1           0        8.171946   -2.460248    2.918702
     98          1           0        4.260633   -4.277698   -0.192659
     99          1           0        5.961589   -5.056037   -4.044537
    100          1           0        4.335388   -5.745950   -4.178327
    101          1           0        5.564764   -6.614889   -3.378891
    102          1           0       -1.624591   -5.855692    0.885937
    103          1           0       -2.912561   -5.446479   -0.227940
    104          1           0       -2.364238   -3.099002    1.047900
    105          1           0       -4.756810   -6.081525    2.839860
    106          1           0       -3.565261   -5.851925    4.056715
    107          1           0       -3.155043   -6.702965    2.632320
    108          1           0       -3.189541   -2.474573    3.412153
    109          1           0       -3.855814   -3.617039    4.320339
    110          1           0       -5.941523   -3.525688    3.814564
    111          1           0       -5.665660   -3.542016    2.086278
    112          1           0       -4.803385   -1.079539    2.822959
    113          1           0       -6.354907   -1.326848    3.780494
    114          1           0       -5.907707   -1.316955    0.695462
    115          1           0       -7.498025   -2.835332    0.532462
    116          1           0       -8.677046   -1.770450    1.182824
    117          1           0       -7.872047   -2.837230    2.325143
    118          1           0       -6.792329    0.761205    2.325964
    119          1           0       -8.308981    0.128973    1.887218
    120          1           0       -6.984194    0.070500   -0.525597
    121          1           0       -6.457724    1.546446    0.019493
    122          1           0       -8.122357    2.792259    0.238411
    123          1           0       -9.223144    1.545074    0.725459
    124          1           0       -9.312729    0.666177   -1.727609
    125          1           0       -8.699691    3.238026   -3.107389
    126          1           0       -8.210975    1.485443   -3.231143
    127          1           0       -7.374851    2.616517   -2.115154
    128          1           0      -10.628185    2.882316   -2.255187
    129          1           0      -10.589696    2.978562   -0.460714
    130          1           0      -11.246651    0.296094   -0.891058
    131          1           0      -12.005854    0.961889   -2.223796
    132          1           0      -13.792256    1.352879   -1.116640
    133          1           0      -12.977812    2.809892   -0.634813
    134          1           0      -11.994923    0.688023    1.134078
    135          1           0      -14.943905    0.616827    1.930459
    136          1           0      -13.754972   -0.640457    1.507155
    137          1           0      -14.741853    0.211070    0.295396
    138          1           0      -13.275904    3.269290    1.211765
    139          1           0      -11.805952    2.740250    1.818149
    140          1           0      -13.292229    2.292236    2.762815
 ---------------------------------------------------------------------

 SCF Done:  E(RwB97XD) =  -3007.82142944     A.U. after   20 cycles

 Excitation energies and oscillator strengths:

 Excited State   1:      Singlet-A      1.6281 eV  761.53 nm  f=0.3598  <S**2>=0.000
     245 -> 248        0.18533
     246 -> 247        0.68478
     245 <- 248        0.11942
 This state for optimization and/or second-order correction.
 Total Energy, E(TD-HF/TD-DFT) =  -3007.76159786
 Copying the excited state density for this state as the 1-particle RhoCI density.

 Excited State   2:      Singlet-A      2.2003 eV  563.49 nm  f=0.0839  <S**2>=0.000
     245 -> 247        0.61915
     246 -> 248       -0.32554

 Excited State   3:      Singlet-A      3.2929 eV  376.52 nm  f=0.0223  <S**2>=0.000
     241 -> 247        0.55697
     241 -> 249       -0.11053
     242 -> 247       -0.33950
     246 -> 248        0.19900

 Excited State   4:      Singlet-A      3.3091 eV  374.68 nm  f=0.0113  <S**2>=0.000
     241 -> 247        0.23964
     242 -> 247        0.33787
     242 -> 249        0.22152
     242 -> 250        0.13385
     243 -> 247        0.40249
     243 -> 249        0.20895
     243 -> 250        0.12433
     246 -> 248        0.12156

 Excited State   5:      Singlet-A      3.4881 eV  355.44 nm  f=0.2624  <S**2>=0.000
     242 -> 247        0.33050
     243 -> 247       -0.40244
     245 -> 247        0.17854
     246 -> 248        0.41414

 The electronic state is 1-A.
 Alpha  occ. eigenvalues --  -46.95524 -19.32318 -19.30368 -19.24619 -19.24103
 Alpha  occ. eigenvalues --  -19.23180 -19.22424 -14.48172 -14.46962 -14.44274
 Alpha  occ. eigenvalues --  -14.44161 -10.43505 -10.42395 -10.38216 -10.37774
 Alpha  occ. eigenvalues --  -10.36923 -10.36339 -10.36073 -10.36017 -10.35329
 Alpha  occ. eigenvalues --  -10.35142 -10.34797 -10.34517 -10.33589 -10.33528
 Alpha  occ. eigenvalues --  -10.32993 -10.32763 -10.32689 -10.32568 -10.32561
 Alpha  occ. eigenvalues --  -10.32554 -10.32420 -10.32149 -10.31854 -10.31806
 Alpha  occ. eigenvalues --  -10.31765 -10.31513 -10.31331 -10.30931 -10.30848
 Alpha  occ. eigenvalues --  -10.30823 -10.30708 -10.30378 -10.30233 -10.30078
 Alpha  occ. eigenvalues --  -10.29958 -10.29937 -10.29848 -10.29679 -10.29659
 Alpha  occ. eigenvalues --  -10.29620 -10.29308 -10.29245 -10.29187 -10.29120
 Alpha  occ. eigenvalues --  -10.29110 -10.29016 -10.28468 -10.28436 -10.28320
 Alpha  occ. eigenvalues --  -10.28164 -10.28150 -10.28071 -10.28026 -10.27984
 Alpha  occ. eigenvalues --  -10.27333  -3.21469  -1.95070  -1.94565  -1.94462
 Alpha  occ. eigenvalues --   -1.19077  -1.16788  -1.13523  -1.09803  -1.08822
 Alpha  occ. eigenvalues --   -1.08575  -1.08350  -1.05519  -1.05047  -1.04340
 Alpha  occ. eigenvalues --   -0.94169  -0.92357  -0.91974  -0.91497  -0.91487
 Alpha  occ. eigenvalues --   -0.90791  -0.90434  -0.89712  -0.89459  -0.89203
 Alpha  occ. eigenvalues --   -0.88323  -0.88021  -0.86740  -0.86200  -0.85722
 Alpha  occ. eigenvalues --   -0.84601  -0.84258  -0.83508  -0.83051  -0.82904
 Alpha  occ. eigenvalues --   -0.81920  -0.80701  -0.80100  -0.79546  -0.78543
 Alpha  occ. eigenvalues --   -0.78019  -0.77649  -0.77312  -0.76824  -0.75618
 Alpha  occ. eigenvalues --   -0.75356  -0.75093  -0.74479  -0.72840  -0.70987
 Alpha  occ. eigenvalues --   -0.70768  -0.69992  -0.69348  -0.68415  -0.68157
 Alpha  occ. eigenvalues --   -0.67797  -0.67218  -0.66928  -0.66860  -0.66726
 Alpha  occ. eigenvalues --   -0.65622  -0.65029  -0.64401  -0.64077  -0.62920
 Alpha  occ. eigenvalues --   -0.61968  -0.61740  -0.61420  -0.61062  -0.59809
 Alpha  occ. eigenvalues --   -0.59334  -0.58966  -0.58800  -0.58033  -0.57246
 Alpha  occ. eigenvalues --   -0.57101  -0.57023  -0.56752  -0.56314  -0.56120
 Alpha  occ. eigenvalues --   -0.55948  -0.55716  -0.55141  -0.54877  -0.54775
 Alpha  occ. eigenvalues --   -0.54554  -0.54302  -0.54281  -0.53991  -0.53582
 Alpha  occ. eigenvalues --   -0.53403  -0.53219  -0.53082  -0.52970  -0.52826
 Alpha  occ. eigenvalues --   -0.52713  -0.52512  -0.52018  -0.51740  -0.51642
 Alpha  occ. eigenvalues --   -0.51447  -0.51268  -0.51062  -0.50692  -0.50571
 Alpha  occ. eigenvalues --   -0.50289  -0.50205  -0.50067  -0.50019  -0.49757
 Alpha  occ. eigenvalues --   -0.49342  -0.49157  -0.49142  -0.48976  -0.48859
 Alpha  occ. eigenvalues --   -0.48830  -0.48723  -0.48471  -0.48432  -0.47923
 Alpha  occ. eigenvalues --   -0.47749  -0.47182  -0.47109  -0.46903  -0.46826
 Alpha  occ. eigenvalues --   -0.46621  -0.46513  -0.46363  -0.46203  -0.45966
 Alpha  occ. eigenvalues --   -0.45840  -0.45585  -0.45497  -0.45220  -0.45158
 Alpha  occ. eigenvalues --   -0.44829  -0.44616  -0.44436  -0.44205  -0.44020
 Alpha  occ. eigenvalues --   -0.43856  -0.43841  -0.43476  -0.43445  -0.43099
 Alpha  occ. eigenvalues --   -0.42976  -0.42833  -0.42739  -0.42538  -0.42504
 Alpha  occ. eigenvalues --   -0.41993  -0.41967  -0.41442  -0.41268  -0.40990
 Alpha  occ. eigenvalues --   -0.40583  -0.40037  -0.39847  -0.39650  -0.39587
 Alpha  occ. eigenvalues --   -0.39543  -0.39177  -0.38754  -0.38528  -0.38404
 Alpha  occ. eigenvalues --   -0.38198  -0.36628  -0.36606  -0.36292  -0.35781
 Alpha  occ. eigenvalues --   -0.35451  -0.35300  -0.35266  -0.33545  -0.32605
 Alpha  occ. eigenvalues --   -0.32105  -0.31867  -0.31753  -0.31081  -0.26616
 Alpha  occ. eigenvalues --   -0.23127
 Alpha virt. eigenvalues --   -0.07399  -0.00441   0.02360   0.04670   0.05686
 Alpha virt. eigenvalues --    0.06322   0.06888   0.07270   0.07600   0.09080
 Alpha virt. eigenvalues --    0.10501   0.11098   0.11298   0.11818   0.12130

 Mulliken charges:
               1
     1  Mg   0.960364
     2  C   -0.026749
     3  C   -0.067599
     4  C   -0.097763
     5  C   -0.098090
     6  N   -0.349830
     7  C    0.012952
     8  C   -0.022923
     9  C   -0.125391
    10  C    0.067916
    11  C    0.019888
    12  C    0.008457
    13  C    0.009649
    14  C    0.232891
    15  O   -0.287036
    16  O   -0.357093
    17  N   -0.425562
    18  C    0.147964
    19  C   -0.156273
    20  C   -0.061631
    21  C    0.153021
    22  C    0.091355
    23  C    0.002091
    24  O   -0.222572
    25  C    0.001912
    26  N   -0.368412
    27  C    0.089937
    28  C   -0.055506
    29  C   -0.069156
    30  C    0.097819
    31  C    0.026657
    32  C   -0.038379
    33  C   -0.030640
    34  N   -0.486730
    35  C    0.132352
    36  C   -0.141134
    37  C   -0.042074
    38  C    0.142874
    39  C    0.060525
    40  C    0.124356
    41  O   -0.226249
    42  C   -0.078578
    43  C    0.267934
    44  O   -0.231947
    45  O   -0.408110
    46  C    0.136324
    47  C    0.271043
    48  C   -0.167527
    49  C   -0.196090
    50  C    0.003957
    51  C   -0.004950
    52  C   -0.042224
    53  C    0.047834
    54  C   -0.237552
    55  C    0.016669
    56  C    0.023421
    57  C   -0.032859
    58  C   -0.019345
    59  C   -0.207810
    60  C    0.031813
    61  C    0.043823
    62  C   -0.052727
    63  C   -0.005803
    64  C   -0.219537
    65  C    0.002479
    66  C    0.029555
    67  H   -0.005477
    68  H   -0.029351
    69  H   -0.004096
    70  H    0.027822
    71  H    0.042722
    72  H    0.039741
    73  H    0.027196
    74  H    0.050847
    75  H    0.046858
    76  H    0.063255
    77  H    0.054801
    78  H    0.036116
    79  H    0.059474
    80  H    0.018451
    81  H    0.060743
    82  H    0.053907
    83  H    0.058351
    84  H    0.054062
    85  H    0.045518
    86  H    0.029244
    87  H    0.022857
    88  H    0.039345
    89  H    0.035896
    90  H    0.035909
    91  H    0.024672
    92  H    0.031257
    93  H    0.034236
    94  H    0.043649
    95  H    0.048047
    96  H    0.050366
    97  H    0.059644
    98  H    0.068482
    99  H    0.066271
   100  H    0.045425
   101  H    0.065762
   102  H    0.070363
   103  H    0.067386
   104  H    0.031684
   105  H    0.053274
   106  H    0.033157
   107  H    0.032121
   108  H    0.028883
   109  H    0.007214
   110  H    0.027392
   111  H    0.028092
   112  H    0.023323
   113  H    0.027063
   114  H    0.025807
   115  H    0.027649
   116  H    0.026405
   117  H    0.038630
   118  H    0.007683
   119  H    0.005082
   120  H    0.010870
   121  H    0.015192
   122  H    0.028646
   123  H    0.015062
   124  H    0.020710
   125  H    0.042832
   126  H    0.032764
   127  H    0.021356
   128  H    0.003922
   129  H    0.018256
   130  H    0.017273
   131  H    0.009088
   132  H    0.015562
   133  H    0.019441
   134  H    0.028465
   135  H    0.029124
   136  H    0.031600
   137  H    0.018834
   138  H    0.015779
   139  H    0.014735
   140  H    0.031295
 Sum of Mulliken charges =  -0.00000

 Dipole moment (field-independent basis, Debye):
    X=             -3.2278    Y=              4.4207    Z=              0.5285  Tot=              5.4991
 Quadrupole moment (field-independent basis, Debye-Ang):
   XX=           -418.1583   YY=           -426.3987   ZZ=           -378.0955
   XY=             57.2239   XZ=              5.3886   YZ=             32.5153

 Normal termination of Gaussian 16 at Thu Apr 28 12:11:39 2022.
