 Gaussian 16, Revision A.03,
 Gaussian 16:  ES64L-G16RevA.03 25-Dec-2016

 --------------------
 #p ZINDO=(nstates=5)
 --------------------

 ------------------------------
 step_1551_chromophore_17 ZINDO
 ------------------------------
 Symbolic Z-matrix:
 Charge =  0 Multiplicity = 1

                         Standard orientation:
 ---------------------------------------------------------------------
 Center     Atomic      Atomic             Coordinates (Angstroms)
 Number     Number       Type             X           Y           Z
 ---------------------------------------------------------------------
      1         12           0        4.028261    1.293076   -0.275608
      2          6           0        4.395715   -2.049428   -0.562393
      3          6           0        1.504711    1.276891   -2.578209
      4          6           0        3.597050    4.798477    0.167832
      5          6           0        6.420939    1.377927    2.330271
      6          7           0        3.079565   -0.250466   -1.398143
      7          6           0        3.402636   -1.544940   -1.384667
      8          6           0        2.411925   -2.381475   -2.201455
      9          6           0        1.627718   -1.322664   -2.999401
     10          6           0        2.072784   -0.054461   -2.268577
     11          6           0        1.903409   -1.312011   -4.528325
     12          6           0        1.539963   -3.189460   -1.172824
     13          6           0        0.883848   -4.410266   -1.942914
     14          6           0       -0.063525   -5.223462   -1.115408
     15          8           0        0.071731   -6.453311   -0.875701
     16          8           0       -0.991666   -4.368498   -0.618440
     17          7           0        2.689836    2.880931   -1.066043
     18          6           0        1.811835    2.566652   -2.076836
     19          6           0        1.325392    3.830058   -2.610582
     20          6           0        1.934103    4.859237   -1.860707
     21          6           0        2.790101    4.230419   -0.865075
     22          6           0        0.300373    3.941661   -3.691990
     23          6           0        1.819037    6.291662   -2.237166
     24          8           0        1.172588    6.584364   -3.204268
     25          6           0        2.399367    7.431850   -1.464192
     26          7           0        4.736097    2.763709    1.184512
     27          6           0        4.415358    4.135842    1.124083
     28          6           0        5.202569    4.899105    2.122067
     29          6           0        6.060517    3.864916    2.843581
     30          6           0        5.765226    2.576886    2.068411
     31          6           0        5.910860    6.159503    1.697492
     32          6           0        5.745281    3.796226    4.388151
     33          6           0        6.842498    3.520400    5.366271
     34          7           0        5.177571   -0.009474    0.722479
     35          6           0        6.148433    0.143344    1.759507
     36          6           0        6.818641   -1.076273    2.006494
     37          6           0        6.182759   -2.023768    1.115886
     38          6           0        5.179963   -1.255632    0.300403
     39          6           0        7.922886   -1.399341    2.951316
     40          6           0        6.080261   -3.379879    0.721783
     41          8           0        6.690066   -4.413221    1.035512
     42          6           0        4.973982   -3.481189   -0.403307
     43          6           0        5.566887   -4.006440   -1.607030
     44          8           0        6.751738   -3.914867   -1.884792
     45          8           0        4.672667   -4.854402   -2.268396
     46          6           0        5.183940   -5.602112   -3.508821
     47          6           0       -1.995038   -5.071056    0.225600
     48          6           0       -2.500420   -4.154640    1.283042
     49          6           0       -3.225521   -4.466757    2.467357
     50          6           0       -3.706205   -5.827568    2.976188
     51          6           0       -3.896227   -3.294239    3.280302
     52          6           0       -5.406781   -3.022244    3.009299
     53          6           0       -5.783643   -1.554151    2.880849
     54          6           0       -6.576375   -1.272264    1.555331
     55          6           0       -7.725479   -2.246377    1.420448
     56          6           0       -7.272701    0.161371    1.552975
     57          6           0       -7.281913    0.851128    0.174953
     58          6           0       -8.504076    1.811854   -0.048114
     59          6           0       -9.129975    1.713196   -1.485514
     60          6           0       -8.322494    2.357992   -2.587203
     61          6           0      -10.534360    2.319102   -1.326803
     62          6           0      -11.642965    1.250672   -1.237236
     63          6           0      -12.925266    1.722366   -0.569900
     64          6           0      -12.928044    1.223071    0.958247
     65          6           0      -14.172830    0.323437    1.217272
     66          6           0      -12.852347    2.439024    1.775847
     67          1           0        0.690641    1.300466   -3.304291
     68          1           0        3.577769    5.889528    0.211524
     69          1           0        7.133404    1.309153    3.154445
     70          1           0        2.931352   -3.001974   -2.931339
     71          1           0        0.546165   -1.449746   -2.979031
     72          1           0        0.973396   -1.421531   -5.086466
     73          1           0        2.452723   -2.199161   -4.843955
     74          1           0        2.529944   -0.477124   -4.840971
     75          1           0        0.737086   -2.506106   -0.897024
     76          1           0        2.048029   -3.614584   -0.306259
     77          1           0        1.671234   -4.981208   -2.434848
     78          1           0        0.196455   -4.069901   -2.718064
     79          1           0       -0.530444    4.553938   -3.341541
     80          1           0       -0.185377    3.051758   -4.090080
     81          1           0        0.821463    4.357540   -4.554140
     82          1           0        2.005111    7.393994   -0.449581
     83          1           0        2.111203    8.380112   -1.917541
     84          1           0        3.476164    7.312066   -1.343668
     85          1           0        4.408889    5.177714    2.815265
     86          1           0        7.114908    4.116553    2.731663
     87          1           0        5.561409    7.013935    2.277602
     88          1           0        5.760345    6.472674    0.663915
     89          1           0        6.975610    6.226462    1.918926
     90          1           0        4.943211    3.082677    4.580603
     91          1           0        5.358922    4.767621    4.695891
     92          1           0        7.763959    3.451574    4.786877
     93          1           0        6.684853    2.533732    5.802055
     94          1           0        6.826594    4.246575    6.177860
     95          1           0        7.793580   -1.243693    4.021800
     96          1           0        8.782108   -0.827809    2.598039
     97          1           0        8.171946   -2.460248    2.918702
     98          1           0        4.260633   -4.277698   -0.192659
     99          1           0        5.961589   -5.056037   -4.044537
    100          1           0        4.335388   -5.745950   -4.178327
    101          1           0        5.564764   -6.614889   -3.378891
    102          1           0       -1.624591   -5.855692    0.885937
    103          1           0       -2.912561   -5.446479   -0.227940
    104          1           0       -2.364238   -3.099002    1.047900
    105          1           0       -4.756810   -6.081525    2.839860
    106          1           0       -3.565261   -5.851925    4.056715
    107          1           0       -3.155043   -6.702965    2.632320
    108          1           0       -3.189541   -2.474573    3.412153
    109          1           0       -3.855814   -3.617039    4.320339
    110          1           0       -5.941523   -3.525688    3.814564
    111          1           0       -5.665660   -3.542016    2.086278
    112          1           0       -4.803385   -1.079539    2.822959
    113          1           0       -6.354907   -1.326848    3.780494
    114          1           0       -5.907707   -1.316955    0.695462
    115          1           0       -7.498025   -2.835332    0.532462
    116          1           0       -8.677046   -1.770450    1.182824
    117          1           0       -7.872047   -2.837230    2.325143
    118          1           0       -6.792329    0.761205    2.325964
    119          1           0       -8.308981    0.128973    1.887218
    120          1           0       -6.984194    0.070500   -0.525597
    121          1           0       -6.457724    1.546446    0.019493
    122          1           0       -8.122357    2.792259    0.238411
    123          1           0       -9.223144    1.545074    0.725459
    124          1           0       -9.312729    0.666177   -1.727609
    125          1           0       -8.699691    3.238026   -3.107389
    126          1           0       -8.210975    1.485443   -3.231143
    127          1           0       -7.374851    2.616517   -2.115154
    128          1           0      -10.628185    2.882316   -2.255187
    129          1           0      -10.589696    2.978562   -0.460714
    130          1           0      -11.246651    0.296094   -0.891058
    131          1           0      -12.005854    0.961889   -2.223796
    132          1           0      -13.792256    1.352879   -1.116640
    133          1           0      -12.977812    2.809892   -0.634813
    134          1           0      -11.994923    0.688023    1.134078
    135          1           0      -14.943905    0.616827    1.930459
    136          1           0      -13.754972   -0.640457    1.507155
    137          1           0      -14.741853    0.211070    0.295396
    138          1           0      -13.275904    3.269290    1.211765
    139          1           0      -11.805952    2.740250    1.818149
    140          1           0      -13.292229    2.292236    2.762815
 ---------------------------------------------------------------------

 SCF Done:  E(RZINDO/S) =  -474.255412837     A.U. after   20 cycles

 Excitation energies and oscillator strengths:

 Excited State   1:      Singlet-A      1.2484 eV  993.15 nm  f=0.5744  <S**2>=0.000
     175 ->178         0.18268
     176 ->177         0.66616
 This state for optimization and/or second-order correction.
 Total Energy, E(CIS/TDA) =  -474.209535137
 Copying the excited state density for this state as the 1-particle RhoCI density.

 Excited State   2:      Singlet-A      1.9233 eV  644.63 nm  f=0.0128  <S**2>=0.000
     175 ->177         0.50545
     176 ->178        -0.46884

 Excited State   3:      Singlet-A      2.9086 eV  426.27 nm  f=0.0314  <S**2>=0.000
     169 ->177        -0.24025
     169 ->179         0.32808
     169 ->181         0.20149
     169 ->186         0.22937
     169 ->194        -0.11330
     170 ->177         0.21966
     170 ->179         0.15064
     170 ->181        -0.17532

 Excited State   4:      Singlet-A      2.9143 eV  425.43 nm  f=0.0096  <S**2>=0.000
     169 ->177         0.18669
     169 ->179        -0.20861
     169 ->181        -0.16645
     169 ->186        -0.14948
     170 ->177         0.28975
     170 ->178        -0.11369
     170 ->179         0.25628
     170 ->181        -0.24243
     170 ->186         0.12356
     170 ->188         0.11385
     170 ->201         0.10033

 Excited State   5:      Singlet-A      2.9495 eV  420.36 nm  f=0.6177  <S**2>=0.000
     175 ->177         0.33501
     176 ->178         0.39895
     176 ->179        -0.35766
     176 ->181         0.16462

 The electronic state is 1-A.
 Alpha  occ. eigenvalues --   -1.85065  -1.81075  -1.80264  -1.73400  -1.72147
 Alpha  occ. eigenvalues --   -1.69961  -1.66102  -1.62807  -1.62190  -1.55988
 Alpha  occ. eigenvalues --   -1.55705  -1.50284  -1.48399  -1.46820  -1.45889
 Alpha  occ. eigenvalues --   -1.44908  -1.43288  -1.41408  -1.39264  -1.38790
 Alpha  occ. eigenvalues --   -1.36386  -1.33852  -1.32916  -1.31303  -1.28574
 Alpha  occ. eigenvalues --   -1.27722  -1.27083  -1.23686  -1.22318  -1.19141
 Alpha  occ. eigenvalues --   -1.18189  -1.17839  -1.15729  -1.13790  -1.12682
 Alpha  occ. eigenvalues --   -1.12311  -1.10841  -1.10183  -1.06523  -1.04629
 Alpha  occ. eigenvalues --   -1.02281  -1.01713  -0.99435  -0.98989  -0.96885
 Alpha  occ. eigenvalues --   -0.96469  -0.94883  -0.94171  -0.93251  -0.92426
 Alpha  occ. eigenvalues --   -0.91245  -0.90439  -0.89321  -0.88594  -0.87348
 Alpha  occ. eigenvalues --   -0.86318  -0.86113  -0.84066  -0.83458  -0.80939
 Alpha  occ. eigenvalues --   -0.79557  -0.79351  -0.77778  -0.77105  -0.76290
 Alpha  occ. eigenvalues --   -0.76209  -0.75388  -0.74875  -0.74261  -0.73263
 Alpha  occ. eigenvalues --   -0.72956  -0.72794  -0.72262  -0.71597  -0.71155
 Alpha  occ. eigenvalues --   -0.70336  -0.70057  -0.69125  -0.68870  -0.68027
 Alpha  occ. eigenvalues --   -0.67543  -0.67174  -0.66491  -0.65966  -0.65713
 Alpha  occ. eigenvalues --   -0.65368  -0.65061  -0.64169  -0.63836  -0.63398
 Alpha  occ. eigenvalues --   -0.63166  -0.62959  -0.62749  -0.62686  -0.62027
 Alpha  occ. eigenvalues --   -0.61837  -0.61791  -0.60648  -0.60417  -0.60150
 Alpha  occ. eigenvalues --   -0.59845  -0.59608  -0.59336  -0.58986  -0.58872
 Alpha  occ. eigenvalues --   -0.58683  -0.57773  -0.57399  -0.56569  -0.56264
 Alpha  occ. eigenvalues --   -0.56031  -0.55967  -0.55456  -0.54630  -0.54235
 Alpha  occ. eigenvalues --   -0.54223  -0.53654  -0.53427  -0.53364  -0.53136
 Alpha  occ. eigenvalues --   -0.52921  -0.52714  -0.52290  -0.52005  -0.51670
 Alpha  occ. eigenvalues --   -0.51462  -0.51111  -0.50786  -0.50537  -0.50175
 Alpha  occ. eigenvalues --   -0.49943  -0.49887  -0.49814  -0.49577  -0.49424
 Alpha  occ. eigenvalues --   -0.49284  -0.48695  -0.48639  -0.48296  -0.48109
 Alpha  occ. eigenvalues --   -0.47704  -0.47603  -0.47352  -0.47157  -0.47053
 Alpha  occ. eigenvalues --   -0.46426  -0.46349  -0.46111  -0.46046  -0.45852
 Alpha  occ. eigenvalues --   -0.45527  -0.44923  -0.44463  -0.44390  -0.44015
 Alpha  occ. eigenvalues --   -0.43728  -0.43105  -0.42604  -0.42430  -0.41743
 Alpha  occ. eigenvalues --   -0.41555  -0.41200  -0.40838  -0.39595  -0.38807
 Alpha  occ. eigenvalues --   -0.37841  -0.37210  -0.35607  -0.35198  -0.33814
 Alpha  occ. eigenvalues --   -0.33707  -0.32882  -0.31884  -0.31123  -0.27433
 Alpha  occ. eigenvalues --   -0.22082
 Alpha virt. eigenvalues --   -0.08862  -0.02949  -0.00696   0.00988   0.01374
 Alpha virt. eigenvalues --    0.02003   0.02382   0.02834   0.03303   0.04424
 Alpha virt. eigenvalues --    0.05991   0.06367   0.06700   0.07296   0.07582

 Mulliken charges:
               1
     1  Mg   0.430546
     2  C   -0.035851
     3  C   -0.085084
     4  C   -0.099608
     5  C   -0.061837
     6  N   -0.248392
     7  C    0.109694
     8  C    0.003173
     9  C    0.007463
    10  C    0.147092
    11  C   -0.052296
    12  C   -0.018885
    13  C   -0.003520
    14  C    0.470674
    15  O   -0.531847
    16  O   -0.249751
    17  N   -0.341651
    18  C    0.119732
    19  C    0.065449
    20  C   -0.047482
    21  C    0.143381
    22  C   -0.032970
    23  C    0.327863
    24  O   -0.522575
    25  C   -0.026732
    26  N   -0.291635
    27  C    0.157564
    28  C    0.017608
    29  C    0.004055
    30  C    0.106021
    31  C   -0.048973
    32  C   -0.029700
    33  C   -0.055697
    34  N   -0.310807
    35  C    0.073521
    36  C    0.036773
    37  C   -0.079698
    38  C    0.110238
    39  C   -0.035189
    40  C    0.333636
    41  O   -0.539006
    42  C    0.051190
    43  C    0.489306
    44  O   -0.503904
    45  O   -0.291855
    46  C    0.069984
    47  C    0.098912
    48  C   -0.083269
    49  C   -0.034623
    50  C   -0.040544
    51  C   -0.037996
    52  C   -0.026825
    53  C   -0.033456
    54  C   -0.014199
    55  C   -0.053952
    56  C   -0.042259
    57  C   -0.052760
    58  C   -0.033691
    59  C   -0.011534
    60  C   -0.058597
    61  C   -0.037931
    62  C   -0.038448
    63  C   -0.040335
    64  C   -0.010330
    65  C   -0.061100
    66  C   -0.053153
    67  H    0.029971
    68  H    0.029560
    69  H    0.027423
    70  H    0.039813
    71  H    0.032561
    72  H    0.023072
    73  H    0.016849
    74  H    0.030880
    75  H    0.030861
    76  H    0.044913
    77  H    0.042602
    78  H    0.034869
    79  H    0.040087
    80  H    0.017164
    81  H    0.043294
    82  H    0.030946
    83  H    0.042135
    84  H    0.035220
    85  H    0.031428
    86  H    0.028174
    87  H    0.009819
    88  H    0.022767
    89  H    0.022486
    90  H    0.021658
    91  H    0.010450
    92  H    0.022629
    93  H    0.015810
    94  H    0.026145
    95  H    0.030449
    96  H    0.029493
    97  H    0.030828
    98  H    0.058266
    99  H    0.048549
   100  H    0.025082
   101  H    0.050487
   102  H    0.064209
   103  H    0.061448
   104  H    0.030311
   105  H    0.032563
   106  H    0.019914
   107  H    0.018015
   108  H    0.027919
   109  H    0.004294
   110  H    0.019333
   111  H    0.019568
   112  H    0.021252
   113  H    0.028988
   114  H    0.028490
   115  H    0.012468
   116  H    0.014584
   117  H    0.024980
   118  H    0.008650
   119  H    0.020518
   120  H    0.025399
   121  H    0.006815
   122  H    0.024300
   123  H    0.016632
   124  H    0.023425
   125  H    0.031899
   126  H    0.019990
   127  H    0.016715
   128  H    0.015538
   129  H    0.024996
   130  H    0.022684
   131  H    0.004236
   132  H    0.017531
   133  H    0.021568
   134  H    0.025205
   135  H    0.024727
   136  H    0.015226
   137  H    0.016412
   138  H    0.019339
   139  H    0.010329
   140  H    0.018864
 Sum of Mulliken charges =  -0.00000

 Dipole moment (field-independent basis, Debye):
    X=             -5.6828    Y=              7.4044    Z=             -0.2847  Tot=              9.3381
 N-N= 4.387932395067D+03 E-N= 0.000000000000D+00  KE=-9.449328555337D+03
 Leave Link  601 at Thu Apr 28 12:24:01 2022, MaxMem=  6710886400 cpu:               0.8 elap:               0.1
 (Enter /sw/apps/gaussian-16.0/g16/l9999.exe)
 1\1\GINC-BP1-COMPUTE154\SP\RZINDO CIS\STO-3G\C55H74Mg1N4O6\OF15641\28-
 Apr-2022\0\\#p ZINDO=(nstates=5)\\step_1551_chromophore_17 ZINDO\\0,1\
 Mg,0,29.355,59.165,41.075\C,0,26.378,57.657,40.572\C,0,31.015,56.424,3
 9.891\C,0,32.458,60.856,41.502\C,0,27.728,62.157,42.036\N,0,28.714,57.
 283,40.307\C,0,27.452,56.86,40.214\C,0,27.36,55.519,39.478\C,0,28.821,
 55.032,39.445\C,0,29.539,56.314,39.871\C,0,29.125,53.799,40.34\C,0,26.
 748,55.817,38.061\C,0,26.17,54.458,37.484\C,0,25.639,54.558,36.087\O,0

 Normal termination of Gaussian 16 at Thu Apr 28 12:24:01 2022.
