 Gaussian 16, Revision A.03,
 Gaussian 16:  ES64L-G16RevA.03 25-Dec-2016

 ------------------------------
 #p blyp/Def2SVP td=(nstates=5)
 ------------------------------

 -------------------------------------------------
 step_201_chromophore_8 TDDFT with blyp functional
 -------------------------------------------------
 Symbolic Z-matrix:
 Charge =  0 Multiplicity = 1

                         Standard orientation:
 ---------------------------------------------------------------------
 Center     Atomic      Atomic             Coordinates (Angstroms)
 Number     Number       Type             X           Y           Z
 ---------------------------------------------------------------------
      1         12           0       -5.141648   -0.825884    0.155576
      2          6           0       -3.847407    2.189005    1.181059
      3          6           0       -4.404211   -0.043199   -3.068314
      4          6           0       -5.750437   -3.974408   -0.717715
      5          6           0       -4.521317   -1.860340    3.510189
      6          7           0       -4.054505    0.870491   -0.829759
      7          6           0       -3.728218    2.020188   -0.194163
      8          6           0       -3.208327    3.061694   -1.275637
      9          6           0       -3.740681    2.402495   -2.625092
     10          6           0       -4.035536    0.970615   -2.151651
     11          6           0       -4.921212    3.121135   -3.268904
     12          6           0       -1.716798    3.225706   -1.174900
     13          6           0       -1.396874    4.697604   -0.891985
     14          6           0       -0.121675    5.320077   -1.610971
     15          8           0       -0.148879    5.783459   -2.747195
     16          8           0        1.022266    5.005601   -0.900424
     17          7           0       -5.169342   -1.833990   -1.611821
     18          6           0       -4.861015   -1.328118   -2.839563
     19          6           0       -5.166907   -2.284212   -3.946159
     20          6           0       -5.674747   -3.446919   -3.328010
     21          6           0       -5.523538   -3.154560   -1.848368
     22          6           0       -4.878892   -2.048897   -5.410288
     23          6           0       -6.190312   -4.684080   -3.981210
     24          8           0       -6.298205   -4.726064   -5.229798
     25          6           0       -6.690245   -5.855088   -3.212570
     26          7           0       -5.232894   -2.601901    1.295498
     27          6           0       -5.613469   -3.761017    0.652826
     28          6           0       -5.685883   -4.945038    1.713353
     29          6           0       -5.161755   -4.269291    3.022070
     30          6           0       -4.894318   -2.857963    2.601345
     31          6           0       -7.129213   -5.542823    1.734493
     32          6           0       -3.890694   -5.046715    3.527669
     33          6           0       -4.196473   -6.146300    4.578523
     34          7           0       -4.594578    0.000367    2.102323
     35          6           0       -4.467861   -0.489384    3.387355
     36          6           0       -4.198879    0.590234    4.356623
     37          6           0       -4.013598    1.704178    3.503668
     38          6           0       -4.194009    1.252073    2.110383
     39          6           0       -3.928984    0.372257    5.850262
     40          6           0       -3.486417    3.021020    3.502528
     41          8           0       -3.063227    3.836410    4.310034
     42          6           0       -3.555468    3.453662    1.996240
     43          6           0       -4.504773    4.662515    1.874535
     44          8           0       -5.674478    4.554397    1.710254
     45          8           0       -3.762941    5.791092    1.669110
     46          6           0       -4.406904    7.060848    1.436741
     47          6           0        2.286477    4.946903   -1.672549
     48          6           0        2.619736    3.517119   -1.414600
     49          6           0        3.774142    3.004541   -0.907700
     50          6           0        5.017156    3.814916   -0.540607
     51          6           0        3.930722    1.500482   -0.745253
     52          6           0        4.805001    0.919154   -1.813054
     53          6           0        5.912299    0.031606   -1.190339
     54          6           0        6.772572   -0.774185   -2.143697
     55          6           0        5.879945   -1.552336   -3.100427
     56          6           0        7.637359   -1.792815   -1.351087
     57          6           0        9.222837   -1.505056   -1.447351
     58          6           0        9.902711   -0.859280   -0.163062
     59          6           0       10.915533   -1.735880    0.520540
     60          6           0       10.205651   -2.818039    1.385390
     61          6           0       11.939522   -0.915512    1.382710
     62          6           0       13.219038   -0.575751    0.557840
     63          6           0       14.431776   -0.610654    1.353691
     64          6           0       15.230050   -1.914864    0.954267
     65          6           0       16.213453   -1.669610   -0.183678
     66          6           0       16.023133   -2.427932    2.184320
     67          1           0       -4.146006    0.402269   -4.031781
     68          1           0       -6.070612   -4.975944   -1.012511
     69          1           0       -4.489895   -2.210059    4.543438
     70          1           0       -3.782981    3.977328   -1.136891
     71          1           0       -2.976455    2.398732   -3.402761
     72          1           0       -5.298201    3.964070   -2.690659
     73          1           0       -5.624806    2.308026   -3.452744
     74          1           0       -4.579932    3.611048   -4.180601
     75          1           0       -1.266124    2.937342   -2.124127
     76          1           0       -1.236487    2.686809   -0.358335
     77          1           0       -1.324382    4.820079    0.189510
     78          1           0       -2.150801    5.443554   -1.143738
     79          1           0       -4.410834   -1.093355   -5.647132
     80          1           0       -5.691558   -2.222236   -6.116047
     81          1           0       -4.182149   -2.840017   -5.687925
     82          1           0       -5.961666   -6.360308   -2.579328
     83          1           0       -7.016014   -6.548186   -3.987671
     84          1           0       -7.610545   -5.695898   -2.648592
     85          1           0       -4.988305   -5.627650    1.227198
     86          1           0       -6.022163   -4.150595    3.680022
     87          1           0       -7.950276   -5.054419    1.210379
     88          1           0       -7.356830   -5.727564    2.784652
     89          1           0       -7.250187   -6.545443    1.324234
     90          1           0       -3.177960   -4.314708    3.906780
     91          1           0       -3.294878   -5.546486    2.764264
     92          1           0       -5.206355   -6.066148    4.981497
     93          1           0       -3.504385   -5.894772    5.382564
     94          1           0       -3.940904   -7.144006    4.218700
     95          1           0       -4.134675   -0.629279    6.226992
     96          1           0       -4.564062    1.085309    6.375878
     97          1           0       -2.864259    0.606894    5.879780
     98          1           0       -2.551500    3.754654    1.696251
     99          1           0       -5.305518    7.084357    2.053116
    100          1           0       -4.529221    7.065611    0.353878
    101          1           0       -3.508309    7.591478    1.752100
    102          1           0        2.927964    5.718939   -1.246541
    103          1           0        2.193983    5.071438   -2.751350
    104          1           0        1.839778    2.816219   -1.715362
    105          1           0        5.865328    3.384563   -1.072931
    106          1           0        5.311576    3.744665    0.506037
    107          1           0        4.907511    4.849729   -0.867954
    108          1           0        2.945545    1.039204   -0.812024
    109          1           0        4.257080    1.162076    0.237818
    110          1           0        5.176495    1.706871   -2.468324
    111          1           0        4.127266    0.342018   -2.441724
    112          1           0        5.510187   -0.674057   -0.464087
    113          1           0        6.660799    0.638669   -0.680037
    114          1           0        7.455034   -0.191849   -2.764100
    115          1           0        6.352122   -2.497520   -3.367825
    116          1           0        5.679782   -1.019273   -4.030014
    117          1           0        5.001088   -1.844981   -2.525951
    118          1           0        7.418009   -2.837955   -1.570399
    119          1           0        7.396077   -1.841055   -0.289194
    120          1           0        9.400729   -0.819634   -2.276466
    121          1           0        9.649273   -2.499804   -1.572565
    122          1           0        9.211907   -0.684402    0.661552
    123          1           0       10.335332    0.092882   -0.468920
    124          1           0       11.414943   -2.216735   -0.320801
    125          1           0       10.292261   -2.591469    2.447524
    126          1           0       10.698250   -3.768734    1.181761
    127          1           0        9.129758   -2.810100    1.211476
    128          1           0       12.246884   -1.558119    2.207468
    129          1           0       11.572712    0.029758    1.785356
    130          1           0       13.120695    0.431666    0.152277
    131          1           0       13.284570   -1.259522   -0.287903
    132          1           0       14.302033   -0.744646    2.426962
    133          1           0       15.020601    0.289990    1.178022
    134          1           0       14.615082   -2.739105    0.592721
    135          1           0       17.259268   -1.912916    0.004789
    136          1           0       16.056712   -0.662547   -0.569785
    137          1           0       15.834525   -2.379670   -0.919684
    138          1           0       16.413799   -3.437543    2.057813
    139          1           0       15.312471   -2.562926    3.000023
    140          1           0       16.842167   -1.766505    2.467197
 ---------------------------------------------------------------------

 SCF Done:  E(RB-LYP) =  -3007.34564658     A.U. after   21 cycles

 Excitation energies and oscillator strengths:

 Excited State   1:      Singlet-A      1.7773 eV  697.62 nm  f=0.1593  <S**2>=0.000
     244 -> 247       -0.25338
     245 -> 247       -0.33457
     245 -> 248        0.13598
     246 -> 247        0.55151
     246 <- 247       -0.11045
 This state for optimization and/or second-order correction.
 Total Energy, E(TD-HF/TD-DFT) =  -3007.28033379
 Copying the excited state density for this state as the 1-particle RhoCI density.

 Excited State   2:      Singlet-A      1.8563 eV  667.91 nm  f=0.1600  <S**2>=0.000
     244 -> 247        0.36098
     245 -> 247        0.42528
     245 -> 248        0.10217
     246 -> 247        0.40393
     246 -> 248       -0.11583

 Excited State   3:      Singlet-A      2.0760 eV  597.23 nm  f=0.0304  <S**2>=0.000
     243 -> 247       -0.16226
     244 -> 247        0.51324
     245 -> 247       -0.35732
     246 -> 248        0.24447
     246 -> 249       -0.12073

 Excited State   4:      Singlet-A      2.1321 eV  581.50 nm  f=0.0033  <S**2>=0.000
     243 -> 247        0.68686
     244 -> 247        0.10577

 Excited State   5:      Singlet-A      2.3599 eV  525.39 nm  f=0.0001  <S**2>=0.000
     242 -> 247        0.70579

 The electronic state is 1-A.
 Alpha  occ. eigenvalues --  -46.28268 -18.81706 -18.80987 -18.76876 -18.76557
 Alpha  occ. eigenvalues --  -18.75650 -18.75043 -14.03414 -14.03084 -14.01888
 Alpha  occ. eigenvalues --  -14.00543 -10.03881 -10.03326 -10.00185  -9.98703
 Alpha  occ. eigenvalues --   -9.97780  -9.97633  -9.96829  -9.96712  -9.96551
 Alpha  occ. eigenvalues --   -9.96345  -9.96232  -9.96119  -9.95319  -9.94593
 Alpha  occ. eigenvalues --   -9.94483  -9.94478  -9.94417  -9.94396  -9.94140
 Alpha  occ. eigenvalues --   -9.93868  -9.93445  -9.93431  -9.93301  -9.93269
 Alpha  occ. eigenvalues --   -9.93077  -9.93051  -9.93011  -9.92769  -9.92689
 Alpha  occ. eigenvalues --   -9.92670  -9.92611  -9.92309  -9.92292  -9.92274
 Alpha  occ. eigenvalues --   -9.92225  -9.92209  -9.92205  -9.91818  -9.91784
 Alpha  occ. eigenvalues --   -9.91590  -9.91585  -9.91495  -9.91463  -9.91455
 Alpha  occ. eigenvalues --   -9.91385  -9.91378  -9.91144  -9.91108  -9.90866
 Alpha  occ. eigenvalues --   -9.90786  -9.90445  -9.90391  -9.90364  -9.90327
 Alpha  occ. eigenvalues --   -9.90311  -2.92844  -1.73227  -1.72731  -1.72571
 Alpha  occ. eigenvalues --   -0.98144  -0.96804  -0.91037  -0.90690  -0.90345
 Alpha  occ. eigenvalues --   -0.89516  -0.87103  -0.86183  -0.85705  -0.84820
 Alpha  occ. eigenvalues --   -0.75322  -0.73949  -0.73312  -0.73087  -0.72416
 Alpha  occ. eigenvalues --   -0.72215  -0.71723  -0.71219  -0.71038  -0.70301
 Alpha  occ. eigenvalues --   -0.70098  -0.69124  -0.68252  -0.67425  -0.67167
 Alpha  occ. eigenvalues --   -0.66874  -0.66297  -0.65539  -0.65247  -0.64811
 Alpha  occ. eigenvalues --   -0.63859  -0.62911  -0.62247  -0.61932  -0.60596
 Alpha  occ. eigenvalues --   -0.60398  -0.60010  -0.59925  -0.59542  -0.58827
 Alpha  occ. eigenvalues --   -0.58027  -0.57626  -0.57055  -0.55566  -0.54635
 Alpha  occ. eigenvalues --   -0.54173  -0.53595  -0.53446  -0.52010  -0.51969
 Alpha  occ. eigenvalues --   -0.51954  -0.51114  -0.51044  -0.50197  -0.49541
 Alpha  occ. eigenvalues --   -0.49464  -0.49289  -0.48541  -0.48047  -0.47060
 Alpha  occ. eigenvalues --   -0.46333  -0.46270  -0.45952  -0.45220  -0.44436
 Alpha  occ. eigenvalues --   -0.44101  -0.43684  -0.43423  -0.43247  -0.42646
 Alpha  occ. eigenvalues --   -0.42313  -0.41663  -0.41516  -0.41345  -0.41014
 Alpha  occ. eigenvalues --   -0.40843  -0.40803  -0.40360  -0.40224  -0.40009
 Alpha  occ. eigenvalues --   -0.39927  -0.39595  -0.39541  -0.39353  -0.39026
 Alpha  occ. eigenvalues --   -0.38996  -0.38905  -0.38519  -0.38428  -0.38315
 Alpha  occ. eigenvalues --   -0.38173  -0.37887  -0.37738  -0.37567  -0.37360
 Alpha  occ. eigenvalues --   -0.37121  -0.37023  -0.36810  -0.36589  -0.36161
 Alpha  occ. eigenvalues --   -0.36060  -0.35977  -0.35722  -0.35606  -0.35427
 Alpha  occ. eigenvalues --   -0.35292  -0.35126  -0.35034  -0.34857  -0.34753
 Alpha  occ. eigenvalues --   -0.34409  -0.34333  -0.34237  -0.33860  -0.33764
 Alpha  occ. eigenvalues --   -0.33654  -0.33614  -0.33374  -0.33132  -0.33035
 Alpha  occ. eigenvalues --   -0.32895  -0.32874  -0.32680  -0.32509  -0.32376
 Alpha  occ. eigenvalues --   -0.32214  -0.31944  -0.31864  -0.31719  -0.31685
 Alpha  occ. eigenvalues --   -0.31576  -0.31448  -0.31214  -0.31099  -0.30904
 Alpha  occ. eigenvalues --   -0.30563  -0.30342  -0.30218  -0.30170  -0.29787
 Alpha  occ. eigenvalues --   -0.29617  -0.29470  -0.29295  -0.29050  -0.28859
 Alpha  occ. eigenvalues --   -0.28538  -0.28331  -0.28213  -0.28021  -0.27542
 Alpha  occ. eigenvalues --   -0.27405  -0.27109  -0.26912  -0.26858  -0.26573
 Alpha  occ. eigenvalues --   -0.26467  -0.26123  -0.25786  -0.25468  -0.25342
 Alpha  occ. eigenvalues --   -0.24810  -0.24638  -0.24620  -0.24019  -0.23558
 Alpha  occ. eigenvalues --   -0.23228  -0.22580  -0.21966  -0.21534  -0.21156
 Alpha  occ. eigenvalues --   -0.20670  -0.19968  -0.19022  -0.18244  -0.17295
 Alpha  occ. eigenvalues --   -0.15652
 Alpha virt. eigenvalues --   -0.11300  -0.07498  -0.06515  -0.04827  -0.04036
 Alpha virt. eigenvalues --   -0.03633  -0.01876  -0.01422  -0.00686   0.00621
 Alpha virt. eigenvalues --    0.01608   0.01950   0.02199   0.02579   0.02889

 Mulliken charges:
               1
     1  Mg   0.711466
     2  C    0.051627
     3  C   -0.072094
     4  C   -0.033541
     5  C   -0.053628
     6  N   -0.171969
     7  C   -0.140090
     8  C    0.033011
     9  C   -0.034788
    10  C   -0.073550
    11  C    0.140256
    12  C    0.184328
    13  C    0.077854
    14  C    0.072254
    15  O   -0.197002
    16  O   -0.278930
    17  N   -0.305010
    18  C    0.224807
    19  C   -0.135099
    20  C    0.092042
    21  C    0.096128
    22  C    0.189004
    23  C   -0.093351
    24  O   -0.192787
    25  C    0.129691
    26  N   -0.237416
    27  C    0.015832
    28  C    0.000905
    29  C    0.119802
    30  C   -0.030634
    31  C    0.117510
    32  C    0.080544
    33  C    0.069601
    34  N   -0.215375
    35  C    0.074504
    36  C   -0.155759
    37  C    0.075102
    38  C    0.077563
    39  C    0.176325
    40  C   -0.079656
    41  O   -0.135338
    42  C    0.005965
    43  C    0.119953
    44  O   -0.147995
    45  O   -0.285725
    46  C    0.214685
    47  C    0.319357
    48  C   -0.091636
    49  C   -0.146400
    50  C    0.153710
    51  C    0.153395
    52  C    0.094000
    53  C    0.077556
    54  C   -0.047588
    55  C    0.108027
    56  C    0.081923
    57  C    0.078319
    58  C    0.083323
    59  C   -0.105242
    60  C    0.116836
    61  C    0.124086
    62  C    0.078567
    63  C    0.131686
    64  C   -0.139786
    65  C    0.129082
    66  C    0.090183
    67  H   -0.063217
    68  H   -0.103393
    69  H   -0.072998
    70  H   -0.016056
    71  H   -0.026122
    72  H   -0.003769
    73  H   -0.001672
    74  H   -0.009478
    75  H   -0.011070
    76  H    0.003908
    77  H   -0.001018
    78  H   -0.015543
    79  H   -0.020526
    80  H    0.008066
    81  H    0.001131
    82  H    0.024115
    83  H   -0.016384
    84  H    0.014934
    85  H   -0.016049
    86  H   -0.021277
    87  H    0.001156
    88  H   -0.015793
    89  H   -0.023479
    90  H   -0.025625
    91  H   -0.022107
    92  H   -0.004257
    93  H   -0.009757
    94  H    0.000868
    95  H   -0.009350
    96  H    0.017096
    97  H    0.026727
    98  H   -0.012959
    99  H    0.034110
   100  H    0.014619
   101  H    0.030755
   102  H   -0.000182
   103  H    0.012503
   104  H   -0.040733
   105  H   -0.013628
   106  H   -0.001057
   107  H   -0.019676
   108  H   -0.046843
   109  H   -0.031618
   110  H   -0.021332
   111  H   -0.034462
   112  H   -0.024818
   113  H   -0.031244
   114  H   -0.042558
   115  H   -0.028935
   116  H   -0.009893
   117  H   -0.024029
   118  H   -0.045560
   119  H   -0.046304
   120  H   -0.020225
   121  H   -0.024624
   122  H   -0.037184
   123  H   -0.039745
   124  H   -0.039356
   125  H   -0.020116
   126  H   -0.007766
   127  H   -0.021266
   128  H   -0.038508
   129  H   -0.026677
   130  H   -0.043400
   131  H   -0.029668
   132  H   -0.037609
   133  H   -0.038504
   134  H   -0.029963
   135  H   -0.010677
   136  H   -0.021461
   137  H   -0.027162
   138  H   -0.027127
   139  H   -0.025279
   140  H   -0.009316
 Sum of Mulliken charges =  -0.00000

 Dipole moment (field-independent basis, Debye):
    X=              1.2894    Y=             -3.4537    Z=              1.3415  Tot=              3.9230
 Quadrupole moment (field-independent basis, Debye-Ang):
   XX=           -396.5722   YY=           -401.6629   ZZ=           -430.5540
   XY=             13.0156   XZ=            -17.2001   YZ=            -32.3518

 Normal termination of Gaussian 16 at Fri Apr 29 09:53:03 2022.
