 Gaussian 16, Revision A.03,
 Gaussian 16:  ES64L-G16RevA.03 25-Dec-2016

 -----------------------------------
 #p cam-b3lyp/Def2SVP td=(nstates=5)
 -----------------------------------

 ------------------------------------------------------
 step_201_chromophore_8 TDDFT with cam-b3lyp functional
 ------------------------------------------------------
 Symbolic Z-matrix:
 Charge =  0 Multiplicity = 1

                         Standard orientation:
 ---------------------------------------------------------------------
 Center     Atomic      Atomic             Coordinates (Angstroms)
 Number     Number       Type             X           Y           Z
 ---------------------------------------------------------------------
      1         12           0       -5.141648   -0.825884    0.155576
      2          6           0       -3.847407    2.189005    1.181059
      3          6           0       -4.404211   -0.043199   -3.068314
      4          6           0       -5.750437   -3.974408   -0.717715
      5          6           0       -4.521317   -1.860340    3.510189
      6          7           0       -4.054505    0.870491   -0.829759
      7          6           0       -3.728218    2.020188   -0.194163
      8          6           0       -3.208327    3.061694   -1.275637
      9          6           0       -3.740681    2.402495   -2.625092
     10          6           0       -4.035536    0.970615   -2.151651
     11          6           0       -4.921212    3.121135   -3.268904
     12          6           0       -1.716798    3.225706   -1.174900
     13          6           0       -1.396874    4.697604   -0.891985
     14          6           0       -0.121675    5.320077   -1.610971
     15          8           0       -0.148879    5.783459   -2.747195
     16          8           0        1.022266    5.005601   -0.900424
     17          7           0       -5.169342   -1.833990   -1.611821
     18          6           0       -4.861015   -1.328118   -2.839563
     19          6           0       -5.166907   -2.284212   -3.946159
     20          6           0       -5.674747   -3.446919   -3.328010
     21          6           0       -5.523538   -3.154560   -1.848368
     22          6           0       -4.878892   -2.048897   -5.410288
     23          6           0       -6.190312   -4.684080   -3.981210
     24          8           0       -6.298205   -4.726064   -5.229798
     25          6           0       -6.690245   -5.855088   -3.212570
     26          7           0       -5.232894   -2.601901    1.295498
     27          6           0       -5.613469   -3.761017    0.652826
     28          6           0       -5.685883   -4.945038    1.713353
     29          6           0       -5.161755   -4.269291    3.022070
     30          6           0       -4.894318   -2.857963    2.601345
     31          6           0       -7.129213   -5.542823    1.734493
     32          6           0       -3.890694   -5.046715    3.527669
     33          6           0       -4.196473   -6.146300    4.578523
     34          7           0       -4.594578    0.000367    2.102323
     35          6           0       -4.467861   -0.489384    3.387355
     36          6           0       -4.198879    0.590234    4.356623
     37          6           0       -4.013598    1.704178    3.503668
     38          6           0       -4.194009    1.252073    2.110383
     39          6           0       -3.928984    0.372257    5.850262
     40          6           0       -3.486417    3.021020    3.502528
     41          8           0       -3.063227    3.836410    4.310034
     42          6           0       -3.555468    3.453662    1.996240
     43          6           0       -4.504773    4.662515    1.874535
     44          8           0       -5.674478    4.554397    1.710254
     45          8           0       -3.762941    5.791092    1.669110
     46          6           0       -4.406904    7.060848    1.436741
     47          6           0        2.286477    4.946903   -1.672549
     48          6           0        2.619736    3.517119   -1.414600
     49          6           0        3.774142    3.004541   -0.907700
     50          6           0        5.017156    3.814916   -0.540607
     51          6           0        3.930722    1.500482   -0.745253
     52          6           0        4.805001    0.919154   -1.813054
     53          6           0        5.912299    0.031606   -1.190339
     54          6           0        6.772572   -0.774185   -2.143697
     55          6           0        5.879945   -1.552336   -3.100427
     56          6           0        7.637359   -1.792815   -1.351087
     57          6           0        9.222837   -1.505056   -1.447351
     58          6           0        9.902711   -0.859280   -0.163062
     59          6           0       10.915533   -1.735880    0.520540
     60          6           0       10.205651   -2.818039    1.385390
     61          6           0       11.939522   -0.915512    1.382710
     62          6           0       13.219038   -0.575751    0.557840
     63          6           0       14.431776   -0.610654    1.353691
     64          6           0       15.230050   -1.914864    0.954267
     65          6           0       16.213453   -1.669610   -0.183678
     66          6           0       16.023133   -2.427932    2.184320
     67          1           0       -4.146006    0.402269   -4.031781
     68          1           0       -6.070612   -4.975944   -1.012511
     69          1           0       -4.489895   -2.210059    4.543438
     70          1           0       -3.782981    3.977328   -1.136891
     71          1           0       -2.976455    2.398732   -3.402761
     72          1           0       -5.298201    3.964070   -2.690659
     73          1           0       -5.624806    2.308026   -3.452744
     74          1           0       -4.579932    3.611048   -4.180601
     75          1           0       -1.266124    2.937342   -2.124127
     76          1           0       -1.236487    2.686809   -0.358335
     77          1           0       -1.324382    4.820079    0.189510
     78          1           0       -2.150801    5.443554   -1.143738
     79          1           0       -4.410834   -1.093355   -5.647132
     80          1           0       -5.691558   -2.222236   -6.116047
     81          1           0       -4.182149   -2.840017   -5.687925
     82          1           0       -5.961666   -6.360308   -2.579328
     83          1           0       -7.016014   -6.548186   -3.987671
     84          1           0       -7.610545   -5.695898   -2.648592
     85          1           0       -4.988305   -5.627650    1.227198
     86          1           0       -6.022163   -4.150595    3.680022
     87          1           0       -7.950276   -5.054419    1.210379
     88          1           0       -7.356830   -5.727564    2.784652
     89          1           0       -7.250187   -6.545443    1.324234
     90          1           0       -3.177960   -4.314708    3.906780
     91          1           0       -3.294878   -5.546486    2.764264
     92          1           0       -5.206355   -6.066148    4.981497
     93          1           0       -3.504385   -5.894772    5.382564
     94          1           0       -3.940904   -7.144006    4.218700
     95          1           0       -4.134675   -0.629279    6.226992
     96          1           0       -4.564062    1.085309    6.375878
     97          1           0       -2.864259    0.606894    5.879780
     98          1           0       -2.551500    3.754654    1.696251
     99          1           0       -5.305518    7.084357    2.053116
    100          1           0       -4.529221    7.065611    0.353878
    101          1           0       -3.508309    7.591478    1.752100
    102          1           0        2.927964    5.718939   -1.246541
    103          1           0        2.193983    5.071438   -2.751350
    104          1           0        1.839778    2.816219   -1.715362
    105          1           0        5.865328    3.384563   -1.072931
    106          1           0        5.311576    3.744665    0.506037
    107          1           0        4.907511    4.849729   -0.867954
    108          1           0        2.945545    1.039204   -0.812024
    109          1           0        4.257080    1.162076    0.237818
    110          1           0        5.176495    1.706871   -2.468324
    111          1           0        4.127266    0.342018   -2.441724
    112          1           0        5.510187   -0.674057   -0.464087
    113          1           0        6.660799    0.638669   -0.680037
    114          1           0        7.455034   -0.191849   -2.764100
    115          1           0        6.352122   -2.497520   -3.367825
    116          1           0        5.679782   -1.019273   -4.030014
    117          1           0        5.001088   -1.844981   -2.525951
    118          1           0        7.418009   -2.837955   -1.570399
    119          1           0        7.396077   -1.841055   -0.289194
    120          1           0        9.400729   -0.819634   -2.276466
    121          1           0        9.649273   -2.499804   -1.572565
    122          1           0        9.211907   -0.684402    0.661552
    123          1           0       10.335332    0.092882   -0.468920
    124          1           0       11.414943   -2.216735   -0.320801
    125          1           0       10.292261   -2.591469    2.447524
    126          1           0       10.698250   -3.768734    1.181761
    127          1           0        9.129758   -2.810100    1.211476
    128          1           0       12.246884   -1.558119    2.207468
    129          1           0       11.572712    0.029758    1.785356
    130          1           0       13.120695    0.431666    0.152277
    131          1           0       13.284570   -1.259522   -0.287903
    132          1           0       14.302033   -0.744646    2.426962
    133          1           0       15.020601    0.289990    1.178022
    134          1           0       14.615082   -2.739105    0.592721
    135          1           0       17.259268   -1.912916    0.004789
    136          1           0       16.056712   -0.662547   -0.569785
    137          1           0       15.834525   -2.379670   -0.919684
    138          1           0       16.413799   -3.437543    2.057813
    139          1           0       15.312471   -2.562926    3.000023
    140          1           0       16.842167   -1.766505    2.467197
 ---------------------------------------------------------------------

 SCF Done:  E(RCAM-B3LYP) =  -3007.14015781     A.U. after   17 cycles

 Excitation energies and oscillator strengths:

 Excited State   1:      Singlet-A      1.7424 eV  711.55 nm  f=0.3826  <S**2>=0.000
     245 -> 248       -0.18502
     246 -> 247        0.68229
     245 <- 248       -0.10428
 This state for optimization and/or second-order correction.
 Total Energy, E(TD-HF/TD-DFT) =  -3007.07612405
 Copying the excited state density for this state as the 1-particle RhoCI density.

 Excited State   2:      Singlet-A      2.2969 eV  539.80 nm  f=0.0355  <S**2>=0.000
     245 -> 247        0.59176
     246 -> 248        0.37250

 Excited State   3:      Singlet-A      3.3188 eV  373.58 nm  f=0.3961  <S**2>=0.000
     242 -> 247        0.15994
     243 -> 247        0.27444
     243 -> 249       -0.12514
     245 -> 247       -0.28992
     246 -> 248        0.49516

 Excited State   4:      Singlet-A      3.4469 eV  359.70 nm  f=0.1761  <S**2>=0.000
     242 -> 247        0.37883
     242 -> 249       -0.18438
     242 -> 251       -0.16372
     243 -> 247        0.27440
     243 -> 249       -0.11374
     243 -> 251       -0.11785
     245 -> 247        0.17128
     246 -> 248       -0.28284
     246 -> 249        0.16038
     246 -> 250        0.17055

 Excited State   5:      Singlet-A      3.5863 eV  345.72 nm  f=0.0863  <S**2>=0.000
     242 -> 247       -0.19217
     245 -> 247       -0.11365
     246 -> 248        0.12693
     246 -> 249        0.38748
     246 -> 250        0.50909

 The electronic state is 1-A.
 Alpha  occ. eigenvalues --  -46.89890 -19.24484 -19.23824 -19.19856 -19.19607
 Alpha  occ. eigenvalues --  -19.19096 -19.18099 -14.42336 -14.41858 -14.40540
 Alpha  occ. eigenvalues --  -14.38888 -10.39265 -10.38668 -10.35602 -10.33923
 Alpha  occ. eigenvalues --  -10.31845 -10.31629 -10.31547 -10.31341 -10.30895
 Alpha  occ. eigenvalues --  -10.30784 -10.30690 -10.30528 -10.29599 -10.29305
 Alpha  occ. eigenvalues --  -10.28883 -10.28519 -10.28492 -10.28228 -10.28204
 Alpha  occ. eigenvalues --  -10.28015 -10.27902 -10.27286 -10.27262 -10.27147
 Alpha  occ. eigenvalues --  -10.27050 -10.26989 -10.26935 -10.26933 -10.26911
 Alpha  occ. eigenvalues --  -10.26745 -10.26501 -10.26415 -10.26189 -10.26094
 Alpha  occ. eigenvalues --  -10.26009 -10.25928 -10.25854 -10.25732 -10.25518
 Alpha  occ. eigenvalues --  -10.25474 -10.25279 -10.25236 -10.25172 -10.25072
 Alpha  occ. eigenvalues --  -10.25005 -10.24983 -10.24854 -10.24787 -10.24456
 Alpha  occ. eigenvalues --  -10.24435 -10.24040 -10.23998 -10.23916 -10.23913
 Alpha  occ. eigenvalues --  -10.23849  -3.18360  -1.93222  -1.92813  -1.92671
 Alpha  occ. eigenvalues --   -1.16707  -1.15195  -1.09053  -1.08917  -1.08897
 Alpha  occ. eigenvalues --   -1.07361  -1.04874  -1.03710  -1.03430  -1.02327
 Alpha  occ. eigenvalues --   -0.92381  -0.90802  -0.90132  -0.89874  -0.89088
 Alpha  occ. eigenvalues --   -0.88915  -0.88392  -0.87821  -0.87621  -0.87055
 Alpha  occ. eigenvalues --   -0.86673  -0.85500  -0.84479  -0.83490  -0.83392
 Alpha  occ. eigenvalues --   -0.82996  -0.82462  -0.81375  -0.81116  -0.80656
 Alpha  occ. eigenvalues --   -0.79603  -0.78518  -0.77912  -0.77621  -0.75967
 Alpha  occ. eigenvalues --   -0.75753  -0.75326  -0.75271  -0.74832  -0.74041
 Alpha  occ. eigenvalues --   -0.73042  -0.72598  -0.71985  -0.70417  -0.69187
 Alpha  occ. eigenvalues --   -0.68926  -0.68122  -0.68009  -0.66333  -0.66167
 Alpha  occ. eigenvalues --   -0.65974  -0.65331  -0.65184  -0.64078  -0.63501
 Alpha  occ. eigenvalues --   -0.63428  -0.63015  -0.62430  -0.61764  -0.60596
 Alpha  occ. eigenvalues --   -0.59995  -0.59888  -0.59493  -0.58562  -0.58052
 Alpha  occ. eigenvalues --   -0.57597  -0.57058  -0.56693  -0.56371  -0.55872
 Alpha  occ. eigenvalues --   -0.55405  -0.54478  -0.54234  -0.54087  -0.53768
 Alpha  occ. eigenvalues --   -0.53657  -0.53500  -0.53200  -0.52963  -0.52929
 Alpha  occ. eigenvalues --   -0.52482  -0.52335  -0.52280  -0.52098  -0.51947
 Alpha  occ. eigenvalues --   -0.51750  -0.51364  -0.51065  -0.50927  -0.50756
 Alpha  occ. eigenvalues --   -0.50494  -0.50091  -0.50044  -0.50020  -0.49625
 Alpha  occ. eigenvalues --   -0.49545  -0.49328  -0.49169  -0.48968  -0.48902
 Alpha  occ. eigenvalues --   -0.48495  -0.48080  -0.47930  -0.47869  -0.47523
 Alpha  occ. eigenvalues --   -0.47246  -0.47194  -0.46977  -0.46748  -0.46720
 Alpha  occ. eigenvalues --   -0.46432  -0.46111  -0.46026  -0.45679  -0.45490
 Alpha  occ. eigenvalues --   -0.45468  -0.45267  -0.45196  -0.45024  -0.44785
 Alpha  occ. eigenvalues --   -0.44690  -0.44537  -0.44420  -0.44260  -0.44156
 Alpha  occ. eigenvalues --   -0.43896  -0.43410  -0.43169  -0.43135  -0.43082
 Alpha  occ. eigenvalues --   -0.43029  -0.42949  -0.42857  -0.42614  -0.42482
 Alpha  occ. eigenvalues --   -0.42094  -0.41890  -0.41507  -0.41391  -0.41360
 Alpha  occ. eigenvalues --   -0.41286  -0.40885  -0.40683  -0.40355  -0.39918
 Alpha  occ. eigenvalues --   -0.39744  -0.39314  -0.39069  -0.38878  -0.38470
 Alpha  occ. eigenvalues --   -0.38366  -0.38253  -0.37706  -0.37615  -0.37355
 Alpha  occ. eigenvalues --   -0.37260  -0.36875  -0.36699  -0.36406  -0.36194
 Alpha  occ. eigenvalues --   -0.36173  -0.35570  -0.35222  -0.34412  -0.33983
 Alpha  occ. eigenvalues --   -0.33912  -0.33641  -0.33214  -0.31805  -0.31521
 Alpha  occ. eigenvalues --   -0.30777  -0.29983  -0.29863  -0.29643  -0.24394
 Alpha  occ. eigenvalues --   -0.20756
 Alpha virt. eigenvalues --   -0.08138  -0.02368  -0.00322   0.01042   0.02001
 Alpha virt. eigenvalues --    0.04067   0.05749   0.06073   0.06907   0.07057
 Alpha virt. eigenvalues --    0.08106   0.08292   0.08939   0.09065   0.09304

 Mulliken charges:
               1
     1  Mg   0.841929
     2  C    0.015721
     3  C   -0.088300
     4  C   -0.062345
     5  C   -0.061496
     6  N   -0.241841
     7  C   -0.093160
     8  C   -0.016303
     9  C   -0.083757
    10  C   -0.049547
    11  C    0.081357
    12  C    0.126669
    13  C    0.015366
    14  C    0.157384
    15  O   -0.238912
    16  O   -0.343709
    17  N   -0.392292
    18  C    0.227951
    19  C   -0.132940
    20  C    0.018957
    21  C    0.127063
    22  C    0.133219
    23  C   -0.013487
    24  O   -0.231651
    25  C    0.041205
    26  N   -0.311036
    27  C    0.044766
    28  C   -0.049015
    29  C    0.048146
    30  C   -0.004012
    31  C    0.057796
    32  C    0.025242
    33  C    0.009078
    34  N   -0.299622
    35  C    0.073907
    36  C   -0.149094
    37  C   -0.001522
    38  C    0.112911
    39  C    0.129966
    40  C    0.016317
    41  O   -0.176680
    42  C   -0.060103
    43  C    0.204630
    44  O   -0.184281
    45  O   -0.349139
    46  C    0.174025
    47  C    0.276590
    48  C   -0.104367
    49  C   -0.174270
    50  C    0.097396
    51  C    0.093004
    52  C    0.034821
    53  C    0.026002
    54  C   -0.102361
    55  C    0.044304
    56  C    0.032354
    57  C    0.021361
    58  C    0.035959
    59  C   -0.160331
    60  C    0.056522
    61  C    0.069518
    62  C    0.027038
    63  C    0.069315
    64  C   -0.195184
    65  C    0.066717
    66  C    0.031351
    67  H   -0.027341
    68  H   -0.068310
    69  H   -0.040664
    70  H    0.015845
    71  H    0.008895
    72  H    0.021652
    73  H    0.023234
    74  H    0.016046
    75  H    0.017772
    76  H    0.035277
    77  H    0.030399
    78  H    0.014828
    79  H    0.006932
    80  H    0.038845
    81  H    0.029468
    82  H    0.051519
    83  H    0.022443
    84  H    0.044846
    85  H    0.017790
    86  H    0.014679
    87  H    0.026559
    88  H    0.008223
    89  H    0.001487
    90  H    0.004940
    91  H    0.007084
    92  H    0.017300
    93  H    0.013926
    94  H    0.023523
    95  H    0.015142
    96  H    0.041883
    97  H    0.050804
    98  H    0.027322
    99  H    0.057781
   100  H    0.034888
   101  H    0.054717
   102  H    0.029321
   103  H    0.045911
   104  H   -0.009628
   105  H    0.009182
   106  H    0.024289
   107  H    0.003521
   108  H   -0.013889
   109  H    0.000110
   110  H    0.006921
   111  H   -0.003627
   112  H    0.002077
   113  H   -0.004721
   114  H   -0.010853
   115  H   -0.002437
   116  H    0.014700
   117  H    0.000068
   118  H   -0.014426
   119  H   -0.019551
   120  H    0.007203
   121  H    0.003525
   122  H   -0.010692
   123  H   -0.010443
   124  H   -0.008438
   125  H    0.005030
   126  H    0.016340
   127  H    0.001095
   128  H   -0.010343
   129  H    0.002456
   130  H   -0.013639
   131  H   -0.003217
   132  H   -0.007972
   133  H   -0.007289
   134  H    0.000191
   135  H    0.014668
   136  H    0.002567
   137  H   -0.003568
   138  H   -0.001320
   139  H   -0.001837
   140  H    0.013875
 Sum of Mulliken charges =  -0.00000

 Dipole moment (field-independent basis, Debye):
    X=              1.0540    Y=             -3.9571    Z=              0.8327  Tot=              4.1789
 Quadrupole moment (field-independent basis, Debye-Ang):
   XX=           -394.4235   YY=           -397.7273   ZZ=           -429.3747
   XY=             16.0139   XZ=            -14.1904   YZ=            -32.1231

 Normal termination of Gaussian 16 at Fri Apr 29 08:53:42 2022.
