 Gaussian 16, Revision A.03,
 Gaussian 16:  ES64L-G16RevA.03 25-Dec-2016

 ---------------------------------
 #p PBE1PBE/Def2SVP td=(nstates=5)
 ---------------------------------

 ----------------------------------------------------
 step_201_chromophore_8 TDDFT with PBE1PBE functional
 ----------------------------------------------------
 Symbolic Z-matrix:
 Charge =  0 Multiplicity = 1

                         Standard orientation:
 ---------------------------------------------------------------------
 Center     Atomic      Atomic             Coordinates (Angstroms)
 Number     Number       Type             X           Y           Z
 ---------------------------------------------------------------------
      1         12           0       -5.141648   -0.825884    0.155576
      2          6           0       -3.847407    2.189005    1.181059
      3          6           0       -4.404211   -0.043199   -3.068314
      4          6           0       -5.750437   -3.974408   -0.717715
      5          6           0       -4.521317   -1.860340    3.510189
      6          7           0       -4.054505    0.870491   -0.829759
      7          6           0       -3.728218    2.020188   -0.194163
      8          6           0       -3.208327    3.061694   -1.275637
      9          6           0       -3.740681    2.402495   -2.625092
     10          6           0       -4.035536    0.970615   -2.151651
     11          6           0       -4.921212    3.121135   -3.268904
     12          6           0       -1.716798    3.225706   -1.174900
     13          6           0       -1.396874    4.697604   -0.891985
     14          6           0       -0.121675    5.320077   -1.610971
     15          8           0       -0.148879    5.783459   -2.747195
     16          8           0        1.022266    5.005601   -0.900424
     17          7           0       -5.169342   -1.833990   -1.611821
     18          6           0       -4.861015   -1.328118   -2.839563
     19          6           0       -5.166907   -2.284212   -3.946159
     20          6           0       -5.674747   -3.446919   -3.328010
     21          6           0       -5.523538   -3.154560   -1.848368
     22          6           0       -4.878892   -2.048897   -5.410288
     23          6           0       -6.190312   -4.684080   -3.981210
     24          8           0       -6.298205   -4.726064   -5.229798
     25          6           0       -6.690245   -5.855088   -3.212570
     26          7           0       -5.232894   -2.601901    1.295498
     27          6           0       -5.613469   -3.761017    0.652826
     28          6           0       -5.685883   -4.945038    1.713353
     29          6           0       -5.161755   -4.269291    3.022070
     30          6           0       -4.894318   -2.857963    2.601345
     31          6           0       -7.129213   -5.542823    1.734493
     32          6           0       -3.890694   -5.046715    3.527669
     33          6           0       -4.196473   -6.146300    4.578523
     34          7           0       -4.594578    0.000367    2.102323
     35          6           0       -4.467861   -0.489384    3.387355
     36          6           0       -4.198879    0.590234    4.356623
     37          6           0       -4.013598    1.704178    3.503668
     38          6           0       -4.194009    1.252073    2.110383
     39          6           0       -3.928984    0.372257    5.850262
     40          6           0       -3.486417    3.021020    3.502528
     41          8           0       -3.063227    3.836410    4.310034
     42          6           0       -3.555468    3.453662    1.996240
     43          6           0       -4.504773    4.662515    1.874535
     44          8           0       -5.674478    4.554397    1.710254
     45          8           0       -3.762941    5.791092    1.669110
     46          6           0       -4.406904    7.060848    1.436741
     47          6           0        2.286477    4.946903   -1.672549
     48          6           0        2.619736    3.517119   -1.414600
     49          6           0        3.774142    3.004541   -0.907700
     50          6           0        5.017156    3.814916   -0.540607
     51          6           0        3.930722    1.500482   -0.745253
     52          6           0        4.805001    0.919154   -1.813054
     53          6           0        5.912299    0.031606   -1.190339
     54          6           0        6.772572   -0.774185   -2.143697
     55          6           0        5.879945   -1.552336   -3.100427
     56          6           0        7.637359   -1.792815   -1.351087
     57          6           0        9.222837   -1.505056   -1.447351
     58          6           0        9.902711   -0.859280   -0.163062
     59          6           0       10.915533   -1.735880    0.520540
     60          6           0       10.205651   -2.818039    1.385390
     61          6           0       11.939522   -0.915512    1.382710
     62          6           0       13.219038   -0.575751    0.557840
     63          6           0       14.431776   -0.610654    1.353691
     64          6           0       15.230050   -1.914864    0.954267
     65          6           0       16.213453   -1.669610   -0.183678
     66          6           0       16.023133   -2.427932    2.184320
     67          1           0       -4.146006    0.402269   -4.031781
     68          1           0       -6.070612   -4.975944   -1.012511
     69          1           0       -4.489895   -2.210059    4.543438
     70          1           0       -3.782981    3.977328   -1.136891
     71          1           0       -2.976455    2.398732   -3.402761
     72          1           0       -5.298201    3.964070   -2.690659
     73          1           0       -5.624806    2.308026   -3.452744
     74          1           0       -4.579932    3.611048   -4.180601
     75          1           0       -1.266124    2.937342   -2.124127
     76          1           0       -1.236487    2.686809   -0.358335
     77          1           0       -1.324382    4.820079    0.189510
     78          1           0       -2.150801    5.443554   -1.143738
     79          1           0       -4.410834   -1.093355   -5.647132
     80          1           0       -5.691558   -2.222236   -6.116047
     81          1           0       -4.182149   -2.840017   -5.687925
     82          1           0       -5.961666   -6.360308   -2.579328
     83          1           0       -7.016014   -6.548186   -3.987671
     84          1           0       -7.610545   -5.695898   -2.648592
     85          1           0       -4.988305   -5.627650    1.227198
     86          1           0       -6.022163   -4.150595    3.680022
     87          1           0       -7.950276   -5.054419    1.210379
     88          1           0       -7.356830   -5.727564    2.784652
     89          1           0       -7.250187   -6.545443    1.324234
     90          1           0       -3.177960   -4.314708    3.906780
     91          1           0       -3.294878   -5.546486    2.764264
     92          1           0       -5.206355   -6.066148    4.981497
     93          1           0       -3.504385   -5.894772    5.382564
     94          1           0       -3.940904   -7.144006    4.218700
     95          1           0       -4.134675   -0.629279    6.226992
     96          1           0       -4.564062    1.085309    6.375878
     97          1           0       -2.864259    0.606894    5.879780
     98          1           0       -2.551500    3.754654    1.696251
     99          1           0       -5.305518    7.084357    2.053116
    100          1           0       -4.529221    7.065611    0.353878
    101          1           0       -3.508309    7.591478    1.752100
    102          1           0        2.927964    5.718939   -1.246541
    103          1           0        2.193983    5.071438   -2.751350
    104          1           0        1.839778    2.816219   -1.715362
    105          1           0        5.865328    3.384563   -1.072931
    106          1           0        5.311576    3.744665    0.506037
    107          1           0        4.907511    4.849729   -0.867954
    108          1           0        2.945545    1.039204   -0.812024
    109          1           0        4.257080    1.162076    0.237818
    110          1           0        5.176495    1.706871   -2.468324
    111          1           0        4.127266    0.342018   -2.441724
    112          1           0        5.510187   -0.674057   -0.464087
    113          1           0        6.660799    0.638669   -0.680037
    114          1           0        7.455034   -0.191849   -2.764100
    115          1           0        6.352122   -2.497520   -3.367825
    116          1           0        5.679782   -1.019273   -4.030014
    117          1           0        5.001088   -1.844981   -2.525951
    118          1           0        7.418009   -2.837955   -1.570399
    119          1           0        7.396077   -1.841055   -0.289194
    120          1           0        9.400729   -0.819634   -2.276466
    121          1           0        9.649273   -2.499804   -1.572565
    122          1           0        9.211907   -0.684402    0.661552
    123          1           0       10.335332    0.092882   -0.468920
    124          1           0       11.414943   -2.216735   -0.320801
    125          1           0       10.292261   -2.591469    2.447524
    126          1           0       10.698250   -3.768734    1.181761
    127          1           0        9.129758   -2.810100    1.211476
    128          1           0       12.246884   -1.558119    2.207468
    129          1           0       11.572712    0.029758    1.785356
    130          1           0       13.120695    0.431666    0.152277
    131          1           0       13.284570   -1.259522   -0.287903
    132          1           0       14.302033   -0.744646    2.426962
    133          1           0       15.020601    0.289990    1.178022
    134          1           0       14.615082   -2.739105    0.592721
    135          1           0       17.259268   -1.912916    0.004789
    136          1           0       16.056712   -0.662547   -0.569785
    137          1           0       15.834525   -2.379670   -0.919684
    138          1           0       16.413799   -3.437543    2.057813
    139          1           0       15.312471   -2.562926    3.000023
    140          1           0       16.842167   -1.766505    2.467197
 ---------------------------------------------------------------------

 SCF Done:  E(RPBE1PBE) =  -3005.33059184     A.U. after   15 cycles

 Excitation energies and oscillator strengths:

 Excited State   1:      Singlet-A      1.8775 eV  660.36 nm  f=0.3668  <S**2>=0.000
     245 -> 248       -0.17339
     246 -> 247        0.68917
     246 <- 247       -0.10134
 This state for optimization and/or second-order correction.
 Total Energy, E(TD-HF/TD-DFT) =  -3005.26159360
 Copying the excited state density for this state as the 1-particle RhoCI density.

 Excited State   2:      Singlet-A      2.2762 eV  544.69 nm  f=0.0521  <S**2>=0.000
     245 -> 247        0.62020
     246 -> 248        0.31894

 Excited State   3:      Singlet-A      2.9040 eV  426.94 nm  f=0.0114  <S**2>=0.000
     244 -> 247        0.64237
     244 -> 249       -0.16067
     244 -> 250       -0.11870
     246 -> 248        0.18207

 Excited State   4:      Singlet-A      3.1283 eV  396.33 nm  f=0.2194  <S**2>=0.000
     242 -> 247       -0.15355
     244 -> 247       -0.14987
     245 -> 247       -0.22887
     246 -> 248        0.53362
     246 -> 249       -0.28814

 Excited State   5:      Singlet-A      3.2391 eV  382.77 nm  f=0.0008  <S**2>=0.000
     240 -> 247        0.42472
     240 -> 248       -0.14145
     240 -> 249        0.18276
     240 -> 250       -0.10242
     241 -> 247        0.44513
     241 -> 248       -0.10551
     241 -> 249        0.13880
     242 -> 247        0.12284

 The electronic state is 1-A.
 Alpha  occ. eigenvalues --  -46.93287 -19.25253 -19.24532 -19.20177 -19.19830
 Alpha  occ. eigenvalues --  -19.19214 -19.18427 -14.41762 -14.41455 -14.40110
 Alpha  occ. eigenvalues --  -14.38568 -10.36353 -10.35696 -10.32625 -10.31115
 Alpha  occ. eigenvalues --  -10.29237 -10.29176 -10.29019 -10.28779 -10.28758
 Alpha  occ. eigenvalues --  -10.28414 -10.28405 -10.28218 -10.27195 -10.27059
 Alpha  occ. eigenvalues --  -10.26707 -10.26331 -10.26318 -10.26128 -10.26049
 Alpha  occ. eigenvalues --  -10.25679 -10.25609 -10.25057 -10.24877 -10.24840
 Alpha  occ. eigenvalues --  -10.24690 -10.24623 -10.24570 -10.24484 -10.24428
 Alpha  occ. eigenvalues --  -10.24403 -10.23991 -10.23811 -10.23652 -10.23504
 Alpha  occ. eigenvalues --  -10.23446 -10.23344 -10.23320 -10.23313 -10.23280
 Alpha  occ. eigenvalues --  -10.23109 -10.22967 -10.22919 -10.22874 -10.22632
 Alpha  occ. eigenvalues --  -10.22550 -10.22528 -10.22477 -10.22364 -10.21986
 Alpha  occ. eigenvalues --  -10.21863 -10.21546 -10.21439 -10.21429 -10.21313
 Alpha  occ. eigenvalues --  -10.21227  -3.15337  -1.88136  -1.87709  -1.87569
 Alpha  occ. eigenvalues --   -1.11518  -1.10034  -1.03900  -1.03768  -1.03498
 Alpha  occ. eigenvalues --   -1.02263  -0.99481  -0.98452  -0.97999  -0.96980
 Alpha  occ. eigenvalues --   -0.86799  -0.84918  -0.84239  -0.84097  -0.83403
 Alpha  occ. eigenvalues --   -0.83050  -0.82698  -0.81971  -0.81918  -0.81271
 Alpha  occ. eigenvalues --   -0.81053  -0.79743  -0.78687  -0.77809  -0.77574
 Alpha  occ. eigenvalues --   -0.77157  -0.76646  -0.75705  -0.75435  -0.74932
 Alpha  occ. eigenvalues --   -0.73774  -0.72862  -0.72165  -0.71846  -0.70301
 Alpha  occ. eigenvalues --   -0.69933  -0.69683  -0.69351  -0.68946  -0.68224
 Alpha  occ. eigenvalues --   -0.67456  -0.66951  -0.66437  -0.64705  -0.63541
 Alpha  occ. eigenvalues --   -0.63330  -0.62510  -0.62328  -0.60626  -0.60560
 Alpha  occ. eigenvalues --   -0.60441  -0.59681  -0.59515  -0.58692  -0.57642
 Alpha  occ. eigenvalues --   -0.57567  -0.57560  -0.56609  -0.56314  -0.54934
 Alpha  occ. eigenvalues --   -0.54544  -0.54411  -0.54065  -0.53175  -0.52582
 Alpha  occ. eigenvalues --   -0.52145  -0.51498  -0.51220  -0.50747  -0.50311
 Alpha  occ. eigenvalues --   -0.50042  -0.48962  -0.48828  -0.48657  -0.48403
 Alpha  occ. eigenvalues --   -0.48084  -0.47914  -0.47784  -0.47553  -0.47507
 Alpha  occ. eigenvalues --   -0.47063  -0.46903  -0.46827  -0.46504  -0.46378
 Alpha  occ. eigenvalues --   -0.46311  -0.45878  -0.45653  -0.45508  -0.45430
 Alpha  occ. eigenvalues --   -0.45049  -0.44671  -0.44625  -0.44578  -0.44164
 Alpha  occ. eigenvalues --   -0.44026  -0.43895  -0.43751  -0.43567  -0.43492
 Alpha  occ. eigenvalues --   -0.43224  -0.42668  -0.42535  -0.42498  -0.42171
 Alpha  occ. eigenvalues --   -0.41910  -0.41849  -0.41690  -0.41420  -0.41382
 Alpha  occ. eigenvalues --   -0.41059  -0.40796  -0.40738  -0.40367  -0.40262
 Alpha  occ. eigenvalues --   -0.40120  -0.39992  -0.39889  -0.39748  -0.39581
 Alpha  occ. eigenvalues --   -0.39330  -0.39272  -0.39120  -0.39014  -0.38912
 Alpha  occ. eigenvalues --   -0.38638  -0.38214  -0.38023  -0.37966  -0.37835
 Alpha  occ. eigenvalues --   -0.37789  -0.37700  -0.37640  -0.37361  -0.37283
 Alpha  occ. eigenvalues --   -0.36911  -0.36657  -0.36380  -0.36305  -0.36136
 Alpha  occ. eigenvalues --   -0.36104  -0.35759  -0.35517  -0.35271  -0.34711
 Alpha  occ. eigenvalues --   -0.34634  -0.34066  -0.33874  -0.33632  -0.33445
 Alpha  occ. eigenvalues --   -0.33230  -0.33146  -0.32648  -0.32516  -0.32296
 Alpha  occ. eigenvalues --   -0.32205  -0.31676  -0.31595  -0.31436  -0.31128
 Alpha  occ. eigenvalues --   -0.31050  -0.30485  -0.30143  -0.29601  -0.29116
 Alpha  occ. eigenvalues --   -0.28894  -0.28638  -0.28539  -0.27112  -0.26443
 Alpha  occ. eigenvalues --   -0.26192  -0.25645  -0.24988  -0.24917  -0.21230
 Alpha  occ. eigenvalues --   -0.18487
 Alpha virt. eigenvalues --   -0.10759  -0.05835  -0.04421  -0.02363  -0.01707
 Alpha virt. eigenvalues --   -0.00567   0.01273   0.01482   0.02542   0.03548
 Alpha virt. eigenvalues --    0.04285   0.04891   0.05237   0.05428   0.05878

 Mulliken charges:
               1
     1  Mg   0.981682
     2  C   -0.004288
     3  C   -0.082695
     4  C   -0.067115
     5  C   -0.061286
     6  N   -0.349079
     7  C   -0.007374
     8  C   -0.093067
     9  C   -0.156139
    10  C   -0.002734
    11  C    0.026100
    12  C    0.077496
    13  C   -0.061944
    14  C    0.224058
    15  O   -0.270466
    16  O   -0.368654
    17  N   -0.503502
    18  C    0.239801
    19  C   -0.154011
    20  C   -0.026164
    21  C    0.151819
    22  C    0.077408
    23  C    0.033698
    24  O   -0.266274
    25  C   -0.031828
    26  N   -0.413380
    27  C    0.081380
    28  C   -0.117953
    29  C   -0.044331
    30  C    0.043659
    31  C    0.001513
    32  C   -0.032051
    33  C   -0.061053
    34  N   -0.419854
    35  C    0.092741
    36  C   -0.155876
    37  C   -0.041523
    38  C    0.166005
    39  C    0.076756
    40  C    0.097484
    41  O   -0.222595
    42  C   -0.167498
    43  C    0.296135
    44  O   -0.220528
    45  O   -0.382613
    46  C    0.120585
    47  C    0.228972
    48  C   -0.116154
    49  C   -0.223954
    50  C    0.037961
    51  C    0.034450
    52  C   -0.025820
    53  C   -0.033931
    54  C   -0.191782
    55  C   -0.017500
    56  C   -0.011181
    57  C   -0.045014
    58  C   -0.014189
    59  C   -0.247067
    60  C   -0.006739
    61  C    0.014085
    62  C   -0.033815
    63  C    0.011970
    64  C   -0.288746
    65  C    0.011052
    66  C   -0.032812
    67  H    0.005030
    68  H   -0.030091
    69  H   -0.006929
    70  H    0.055841
    71  H    0.044427
    72  H    0.047614
    73  H    0.051745
    74  H    0.043238
    75  H    0.050446
    76  H    0.066851
    77  H    0.064154
    78  H    0.046477
    79  H    0.033288
    80  H    0.064919
    81  H    0.056929
    82  H    0.075501
    83  H    0.050601
    84  H    0.070867
    85  H    0.054302
    86  H    0.051299
    87  H    0.052738
    88  H    0.035947
    89  H    0.029259
    90  H    0.037137
    91  H    0.039033
    92  H    0.044370
    93  H    0.041855
    94  H    0.050904
    95  H    0.041533
    96  H    0.069691
    97  H    0.078615
    98  H    0.071717
    99  H    0.077902
   100  H    0.057162
   101  H    0.076069
   102  H    0.054796
   103  H    0.073176
   104  H    0.021576
   105  H    0.037248
   106  H    0.051562
   107  H    0.031292
   108  H    0.018850
   109  H    0.032224
   110  H    0.039521
   111  H    0.029135
   112  H    0.034152
   113  H    0.031178
   114  H    0.026362
   115  H    0.026828
   116  H    0.042735
   117  H    0.028691
   118  H    0.016292
   119  H    0.011586
   120  H    0.038982
   121  H    0.035922
   122  H    0.022257
   123  H    0.022846
   124  H    0.028974
   125  H    0.032491
   126  H    0.043985
   127  H    0.030716
   128  H    0.023583
   129  H    0.034134
   130  H    0.019632
   131  H    0.028901
   132  H    0.023945
   133  H    0.024973
   134  H    0.037748
   135  H    0.041249
   136  H    0.030020
   137  H    0.023795
   138  H    0.027606
   139  H    0.026650
   140  H    0.041712
 Sum of Mulliken charges =  -0.00000

 Dipole moment (field-independent basis, Debye):
    X=              1.1632    Y=             -3.9655    Z=              1.1439  Tot=              4.2879
 Quadrupole moment (field-independent basis, Debye-Ang):
   XX=           -391.8262   YY=           -394.2263   ZZ=           -425.6278
   XY=             16.0303   XZ=            -15.6163   YZ=            -33.7126

 Normal termination of Gaussian 16 at Fri Apr 29 09:12:11 2022.
