 Gaussian 16, Revision A.03,
 Gaussian 16:  ES64L-G16RevA.03 25-Dec-2016

 --------------------------------
 #p wB97XD/Def2SVP td=(nstates=5)
 --------------------------------

 ---------------------------------------------------
 step_201_chromophore_8 TDDFT with wB97XD functional
 ---------------------------------------------------
 Symbolic Z-matrix:
 Charge =  0 Multiplicity = 1

                         Standard orientation:
 ---------------------------------------------------------------------
 Center     Atomic      Atomic             Coordinates (Angstroms)
 Number     Number       Type             X           Y           Z
 ---------------------------------------------------------------------
      1         12           0       -5.141648   -0.825884    0.155576
      2          6           0       -3.847407    2.189005    1.181059
      3          6           0       -4.404211   -0.043199   -3.068314
      4          6           0       -5.750437   -3.974408   -0.717715
      5          6           0       -4.521317   -1.860340    3.510189
      6          7           0       -4.054505    0.870491   -0.829759
      7          6           0       -3.728218    2.020188   -0.194163
      8          6           0       -3.208327    3.061694   -1.275637
      9          6           0       -3.740681    2.402495   -2.625092
     10          6           0       -4.035536    0.970615   -2.151651
     11          6           0       -4.921212    3.121135   -3.268904
     12          6           0       -1.716798    3.225706   -1.174900
     13          6           0       -1.396874    4.697604   -0.891985
     14          6           0       -0.121675    5.320077   -1.610971
     15          8           0       -0.148879    5.783459   -2.747195
     16          8           0        1.022266    5.005601   -0.900424
     17          7           0       -5.169342   -1.833990   -1.611821
     18          6           0       -4.861015   -1.328118   -2.839563
     19          6           0       -5.166907   -2.284212   -3.946159
     20          6           0       -5.674747   -3.446919   -3.328010
     21          6           0       -5.523538   -3.154560   -1.848368
     22          6           0       -4.878892   -2.048897   -5.410288
     23          6           0       -6.190312   -4.684080   -3.981210
     24          8           0       -6.298205   -4.726064   -5.229798
     25          6           0       -6.690245   -5.855088   -3.212570
     26          7           0       -5.232894   -2.601901    1.295498
     27          6           0       -5.613469   -3.761017    0.652826
     28          6           0       -5.685883   -4.945038    1.713353
     29          6           0       -5.161755   -4.269291    3.022070
     30          6           0       -4.894318   -2.857963    2.601345
     31          6           0       -7.129213   -5.542823    1.734493
     32          6           0       -3.890694   -5.046715    3.527669
     33          6           0       -4.196473   -6.146300    4.578523
     34          7           0       -4.594578    0.000367    2.102323
     35          6           0       -4.467861   -0.489384    3.387355
     36          6           0       -4.198879    0.590234    4.356623
     37          6           0       -4.013598    1.704178    3.503668
     38          6           0       -4.194009    1.252073    2.110383
     39          6           0       -3.928984    0.372257    5.850262
     40          6           0       -3.486417    3.021020    3.502528
     41          8           0       -3.063227    3.836410    4.310034
     42          6           0       -3.555468    3.453662    1.996240
     43          6           0       -4.504773    4.662515    1.874535
     44          8           0       -5.674478    4.554397    1.710254
     45          8           0       -3.762941    5.791092    1.669110
     46          6           0       -4.406904    7.060848    1.436741
     47          6           0        2.286477    4.946903   -1.672549
     48          6           0        2.619736    3.517119   -1.414600
     49          6           0        3.774142    3.004541   -0.907700
     50          6           0        5.017156    3.814916   -0.540607
     51          6           0        3.930722    1.500482   -0.745253
     52          6           0        4.805001    0.919154   -1.813054
     53          6           0        5.912299    0.031606   -1.190339
     54          6           0        6.772572   -0.774185   -2.143697
     55          6           0        5.879945   -1.552336   -3.100427
     56          6           0        7.637359   -1.792815   -1.351087
     57          6           0        9.222837   -1.505056   -1.447351
     58          6           0        9.902711   -0.859280   -0.163062
     59          6           0       10.915533   -1.735880    0.520540
     60          6           0       10.205651   -2.818039    1.385390
     61          6           0       11.939522   -0.915512    1.382710
     62          6           0       13.219038   -0.575751    0.557840
     63          6           0       14.431776   -0.610654    1.353691
     64          6           0       15.230050   -1.914864    0.954267
     65          6           0       16.213453   -1.669610   -0.183678
     66          6           0       16.023133   -2.427932    2.184320
     67          1           0       -4.146006    0.402269   -4.031781
     68          1           0       -6.070612   -4.975944   -1.012511
     69          1           0       -4.489895   -2.210059    4.543438
     70          1           0       -3.782981    3.977328   -1.136891
     71          1           0       -2.976455    2.398732   -3.402761
     72          1           0       -5.298201    3.964070   -2.690659
     73          1           0       -5.624806    2.308026   -3.452744
     74          1           0       -4.579932    3.611048   -4.180601
     75          1           0       -1.266124    2.937342   -2.124127
     76          1           0       -1.236487    2.686809   -0.358335
     77          1           0       -1.324382    4.820079    0.189510
     78          1           0       -2.150801    5.443554   -1.143738
     79          1           0       -4.410834   -1.093355   -5.647132
     80          1           0       -5.691558   -2.222236   -6.116047
     81          1           0       -4.182149   -2.840017   -5.687925
     82          1           0       -5.961666   -6.360308   -2.579328
     83          1           0       -7.016014   -6.548186   -3.987671
     84          1           0       -7.610545   -5.695898   -2.648592
     85          1           0       -4.988305   -5.627650    1.227198
     86          1           0       -6.022163   -4.150595    3.680022
     87          1           0       -7.950276   -5.054419    1.210379
     88          1           0       -7.356830   -5.727564    2.784652
     89          1           0       -7.250187   -6.545443    1.324234
     90          1           0       -3.177960   -4.314708    3.906780
     91          1           0       -3.294878   -5.546486    2.764264
     92          1           0       -5.206355   -6.066148    4.981497
     93          1           0       -3.504385   -5.894772    5.382564
     94          1           0       -3.940904   -7.144006    4.218700
     95          1           0       -4.134675   -0.629279    6.226992
     96          1           0       -4.564062    1.085309    6.375878
     97          1           0       -2.864259    0.606894    5.879780
     98          1           0       -2.551500    3.754654    1.696251
     99          1           0       -5.305518    7.084357    2.053116
    100          1           0       -4.529221    7.065611    0.353878
    101          1           0       -3.508309    7.591478    1.752100
    102          1           0        2.927964    5.718939   -1.246541
    103          1           0        2.193983    5.071438   -2.751350
    104          1           0        1.839778    2.816219   -1.715362
    105          1           0        5.865328    3.384563   -1.072931
    106          1           0        5.311576    3.744665    0.506037
    107          1           0        4.907511    4.849729   -0.867954
    108          1           0        2.945545    1.039204   -0.812024
    109          1           0        4.257080    1.162076    0.237818
    110          1           0        5.176495    1.706871   -2.468324
    111          1           0        4.127266    0.342018   -2.441724
    112          1           0        5.510187   -0.674057   -0.464087
    113          1           0        6.660799    0.638669   -0.680037
    114          1           0        7.455034   -0.191849   -2.764100
    115          1           0        6.352122   -2.497520   -3.367825
    116          1           0        5.679782   -1.019273   -4.030014
    117          1           0        5.001088   -1.844981   -2.525951
    118          1           0        7.418009   -2.837955   -1.570399
    119          1           0        7.396077   -1.841055   -0.289194
    120          1           0        9.400729   -0.819634   -2.276466
    121          1           0        9.649273   -2.499804   -1.572565
    122          1           0        9.211907   -0.684402    0.661552
    123          1           0       10.335332    0.092882   -0.468920
    124          1           0       11.414943   -2.216735   -0.320801
    125          1           0       10.292261   -2.591469    2.447524
    126          1           0       10.698250   -3.768734    1.181761
    127          1           0        9.129758   -2.810100    1.211476
    128          1           0       12.246884   -1.558119    2.207468
    129          1           0       11.572712    0.029758    1.785356
    130          1           0       13.120695    0.431666    0.152277
    131          1           0       13.284570   -1.259522   -0.287903
    132          1           0       14.302033   -0.744646    2.426962
    133          1           0       15.020601    0.289990    1.178022
    134          1           0       14.615082   -2.739105    0.592721
    135          1           0       17.259268   -1.912916    0.004789
    136          1           0       16.056712   -0.662547   -0.569785
    137          1           0       15.834525   -2.379670   -0.919684
    138          1           0       16.413799   -3.437543    2.057813
    139          1           0       15.312471   -2.562926    3.000023
    140          1           0       16.842167   -1.766505    2.467197
 ---------------------------------------------------------------------

 SCF Done:  E(RwB97XD) =  -3007.83775165     A.U. after   17 cycles

 Excitation energies and oscillator strengths:

 Excited State   1:      Singlet-A      1.6904 eV  733.48 nm  f=0.3806  <S**2>=0.000
     245 -> 248       -0.19112
     246 -> 247        0.67987
     245 <- 248       -0.11346
 This state for optimization and/or second-order correction.
 Total Energy, E(TD-HF/TD-DFT) =  -3007.77563183
 Copying the excited state density for this state as the 1-particle RhoCI density.

 Excited State   2:      Singlet-A      2.2445 eV  552.39 nm  f=0.0342  <S**2>=0.000
     245 -> 247        0.59099
     246 -> 248        0.37304

 Excited State   3:      Singlet-A      3.3458 eV  370.56 nm  f=0.4315  <S**2>=0.000
     243 -> 247        0.31475
     243 -> 249       -0.17076
     243 -> 250       -0.13227
     245 -> 247       -0.29629
     246 -> 248        0.49606

 Excited State   4:      Singlet-A      3.4903 eV  355.23 nm  f=0.2511  <S**2>=0.000
     242 -> 247        0.19536
     242 -> 249       -0.11381
     243 -> 247        0.42672
     243 -> 249       -0.21855
     243 -> 250       -0.20446
     245 -> 247        0.19370
     246 -> 248       -0.30892

 Excited State   5:      Singlet-A      3.6079 eV  343.64 nm  f=0.0046  <S**2>=0.000
     239 -> 247        0.34875
     239 -> 248       -0.16379
     239 -> 249        0.31852
     239 -> 250       -0.19182
     240 -> 247        0.24731
     240 -> 248       -0.11914
     240 -> 249        0.23893
     240 -> 250       -0.13329
     241 -> 247       -0.15425

 The electronic state is 1-A.
 Alpha  occ. eigenvalues --  -46.96232 -19.29748 -19.29059 -19.24833 -19.24532
 Alpha  occ. eigenvalues --  -19.24158 -19.23148 -14.46901 -14.46440 -14.45166
 Alpha  occ. eigenvalues --  -14.43450 -10.43123 -10.42511 -10.39597 -10.37922
 Alpha  occ. eigenvalues --  -10.35739 -10.35729 -10.35406 -10.35266 -10.34896
 Alpha  occ. eigenvalues --  -10.34806 -10.34763 -10.34492 -10.33809 -10.33267
 Alpha  occ. eigenvalues --  -10.32986 -10.32549 -10.32464 -10.32265 -10.32265
 Alpha  occ. eigenvalues --  -10.32156 -10.31942 -10.31396 -10.31208 -10.31158
 Alpha  occ. eigenvalues --  -10.31008 -10.30999 -10.30984 -10.30922 -10.30798
 Alpha  occ. eigenvalues --  -10.30763 -10.30377 -10.30308 -10.30148 -10.30075
 Alpha  occ. eigenvalues --  -10.29867 -10.29760 -10.29657 -10.29653 -10.29511
 Alpha  occ. eigenvalues --  -10.29457 -10.29216 -10.29198 -10.29142 -10.29006
 Alpha  occ. eigenvalues --  -10.28918 -10.28905 -10.28808 -10.28720 -10.28344
 Alpha  occ. eigenvalues --  -10.28280 -10.27894 -10.27858 -10.27795 -10.27746
 Alpha  occ. eigenvalues --  -10.27636  -3.22165  -1.95710  -1.95283  -1.95138
 Alpha  occ. eigenvalues --   -1.18880  -1.17391  -1.11271  -1.11133  -1.11126
 Alpha  occ. eigenvalues --   -1.09585  -1.06862  -1.05707  -1.05479  -1.04339
 Alpha  occ. eigenvalues --   -0.94346  -0.92578  -0.91886  -0.91710  -0.90984
 Alpha  occ. eigenvalues --   -0.90702  -0.90302  -0.89599  -0.89529  -0.89061
 Alpha  occ. eigenvalues --   -0.88603  -0.87386  -0.86342  -0.85387  -0.85260
 Alpha  occ. eigenvalues --   -0.84816  -0.84383  -0.83313  -0.83051  -0.82553
 Alpha  occ. eigenvalues --   -0.81431  -0.80454  -0.79841  -0.79535  -0.77899
 Alpha  occ. eigenvalues --   -0.77601  -0.77263  -0.77040  -0.76632  -0.75875
 Alpha  occ. eigenvalues --   -0.74995  -0.74532  -0.73960  -0.72337  -0.71113
 Alpha  occ. eigenvalues --   -0.70893  -0.70058  -0.69955  -0.68188  -0.68111
 Alpha  occ. eigenvalues --   -0.67887  -0.67199  -0.67140  -0.66075  -0.65298
 Alpha  occ. eigenvalues --   -0.65232  -0.65016  -0.64246  -0.63733  -0.62471
 Alpha  occ. eigenvalues --   -0.62031  -0.61827  -0.61491  -0.60531  -0.60016
 Alpha  occ. eigenvalues --   -0.59592  -0.58972  -0.58650  -0.58242  -0.57740
 Alpha  occ. eigenvalues --   -0.57386  -0.56378  -0.56169  -0.56024  -0.55708
 Alpha  occ. eigenvalues --   -0.55510  -0.55351  -0.55126  -0.54910  -0.54874
 Alpha  occ. eigenvalues --   -0.54386  -0.54236  -0.54203  -0.54036  -0.53833
 Alpha  occ. eigenvalues --   -0.53688  -0.53225  -0.52978  -0.52842  -0.52664
 Alpha  occ. eigenvalues --   -0.52376  -0.51995  -0.51954  -0.51905  -0.51549
 Alpha  occ. eigenvalues --   -0.51484  -0.51310  -0.51062  -0.50878  -0.50808
 Alpha  occ. eigenvalues --   -0.50393  -0.49951  -0.49840  -0.49790  -0.49420
 Alpha  occ. eigenvalues --   -0.49161  -0.49126  -0.48892  -0.48674  -0.48608
 Alpha  occ. eigenvalues --   -0.48391  -0.47972  -0.47952  -0.47606  -0.47377
 Alpha  occ. eigenvalues --   -0.47343  -0.47132  -0.47109  -0.46945  -0.46727
 Alpha  occ. eigenvalues --   -0.46542  -0.46481  -0.46290  -0.46177  -0.46106
 Alpha  occ. eigenvalues --   -0.45793  -0.45317  -0.45105  -0.45025  -0.44951
 Alpha  occ. eigenvalues --   -0.44901  -0.44840  -0.44795  -0.44477  -0.44400
 Alpha  occ. eigenvalues --   -0.44082  -0.43876  -0.43454  -0.43296  -0.43236
 Alpha  occ. eigenvalues --   -0.43205  -0.42808  -0.42566  -0.42242  -0.41773
 Alpha  occ. eigenvalues --   -0.41630  -0.41143  -0.40904  -0.40700  -0.40381
 Alpha  occ. eigenvalues --   -0.40200  -0.40159  -0.39666  -0.39546  -0.39267
 Alpha  occ. eigenvalues --   -0.39230  -0.38693  -0.38616  -0.38329  -0.38202
 Alpha  occ. eigenvalues --   -0.38040  -0.37428  -0.37066  -0.36442  -0.35972
 Alpha  occ. eigenvalues --   -0.35737  -0.35595  -0.35390  -0.33763  -0.33720
 Alpha  occ. eigenvalues --   -0.32985  -0.32079  -0.31901  -0.31659  -0.26329
 Alpha  occ. eigenvalues --   -0.22557
 Alpha virt. eigenvalues --   -0.06470  -0.00452   0.01749   0.04103   0.04335
 Alpha virt. eigenvalues --    0.06209   0.08077   0.08307   0.09365   0.09963
 Alpha virt. eigenvalues --    0.10856   0.11714   0.11970   0.12226   0.12645

 Mulliken charges:
               1
     1  Mg   0.974875
     2  C   -0.001701
     3  C   -0.099836
     4  C   -0.076970
     5  C   -0.074103
     6  N   -0.311348
     7  C   -0.048364
     8  C   -0.058942
     9  C   -0.131794
    10  C   -0.019462
    11  C    0.035189
    12  C    0.083655
    13  C   -0.041121
    14  C    0.213367
    15  O   -0.268638
    16  O   -0.369602
    17  N   -0.474104
    18  C    0.239015
    19  C   -0.145773
    20  C   -0.023290
    21  C    0.149885
    22  C    0.085654
    23  C    0.031359
    24  O   -0.260613
    25  C   -0.022403
    26  N   -0.382797
    27  C    0.071415
    28  C   -0.095266
    29  C   -0.013366
    30  C    0.028449
    31  C    0.011480
    32  C   -0.018331
    33  C   -0.046530
    34  N   -0.381400
    35  C    0.083686
    36  C   -0.156807
    37  C   -0.043460
    38  C    0.145099
    39  C    0.088940
    40  C    0.087262
    41  O   -0.213982
    42  C   -0.121375
    43  C    0.270589
    44  O   -0.215123
    45  O   -0.379710
    46  C    0.132752
    47  C    0.241577
    48  C   -0.122378
    49  C   -0.206102
    50  C    0.050761
    51  C    0.048966
    52  C   -0.012965
    53  C   -0.011402
    54  C   -0.163489
    55  C   -0.004082
    56  C    0.000170
    57  C   -0.026402
    58  C   -0.000194
    59  C   -0.212916
    60  C    0.006694
    61  C    0.027570
    62  C   -0.015679
    63  C    0.027304
    64  C   -0.256703
    65  C    0.017408
    66  C   -0.017754
    67  H   -0.002748
    68  H   -0.044843
    69  H   -0.015777
    70  H    0.037849
    71  H    0.034968
    72  H    0.043368
    73  H    0.043614
    74  H    0.038747
    75  H    0.041860
    76  H    0.060325
    77  H    0.056252
    78  H    0.039863
    79  H    0.029854
    80  H    0.063191
    81  H    0.052975
    82  H    0.072517
    83  H    0.049323
    84  H    0.067154
    85  H    0.043154
    86  H    0.040256
    87  H    0.047421
    88  H    0.029175
    89  H    0.023458
    90  H    0.028673
    91  H    0.031754
    92  H    0.037790
    93  H    0.035871
    94  H    0.045438
    95  H    0.036801
    96  H    0.064530
    97  H    0.072789
    98  H    0.055263
    99  H    0.075058
   100  H    0.053402
   101  H    0.073416
   102  H    0.051677
   103  H    0.069314
   104  H    0.016270
   105  H    0.029820
   106  H    0.047111
   107  H    0.024577
   108  H    0.012292
   109  H    0.024598
   110  H    0.029806
   111  H    0.020688
   112  H    0.023348
   113  H    0.019082
   114  H    0.015280
   115  H    0.019913
   116  H    0.037653
   117  H    0.020286
   118  H    0.009070
   119  H   -0.001416
   120  H    0.030921
   121  H    0.027116
   122  H    0.009350
   123  H    0.014975
   124  H    0.013241
   125  H    0.026569
   126  H    0.039148
   127  H    0.022018
   128  H    0.011097
   129  H    0.027556
   130  H    0.012571
   131  H    0.015816
   132  H    0.013010
   133  H    0.018109
   134  H    0.025320
   135  H    0.036713
   136  H    0.023612
   137  H    0.018026
   138  H    0.021909
   139  H    0.018805
   140  H    0.035166
 Sum of Mulliken charges =  -0.00000

 Dipole moment (field-independent basis, Debye):
    X=              1.0182    Y=             -4.0521    Z=              0.7513  Tot=              4.2451
 Quadrupole moment (field-independent basis, Debye-Ang):
   XX=           -390.3309   YY=           -393.2328   ZZ=           -425.2890
   XY=             16.7696   XZ=            -13.4844   YZ=            -32.3723

 Normal termination of Gaussian 16 at Fri Apr 29 09:40:41 2022.
