 Gaussian 16, Revision A.03,
 Gaussian 16:  ES64L-G16RevA.03 25-Dec-2016

 --------------------
 #p ZINDO=(nstates=5)
 --------------------

 ----------------------------
 step_201_chromophore_8 ZINDO
 ----------------------------
 Symbolic Z-matrix:
 Charge =  0 Multiplicity = 1

                         Standard orientation:
 ---------------------------------------------------------------------
 Center     Atomic      Atomic             Coordinates (Angstroms)
 Number     Number       Type             X           Y           Z
 ---------------------------------------------------------------------
      1         12           0       -5.141648   -0.825884    0.155576
      2          6           0       -3.847407    2.189005    1.181059
      3          6           0       -4.404211   -0.043199   -3.068314
      4          6           0       -5.750437   -3.974408   -0.717715
      5          6           0       -4.521317   -1.860340    3.510189
      6          7           0       -4.054505    0.870491   -0.829759
      7          6           0       -3.728218    2.020188   -0.194163
      8          6           0       -3.208327    3.061694   -1.275637
      9          6           0       -3.740681    2.402495   -2.625092
     10          6           0       -4.035536    0.970615   -2.151651
     11          6           0       -4.921212    3.121135   -3.268904
     12          6           0       -1.716798    3.225706   -1.174900
     13          6           0       -1.396874    4.697604   -0.891985
     14          6           0       -0.121675    5.320077   -1.610971
     15          8           0       -0.148879    5.783459   -2.747195
     16          8           0        1.022266    5.005601   -0.900424
     17          7           0       -5.169342   -1.833990   -1.611821
     18          6           0       -4.861015   -1.328118   -2.839563
     19          6           0       -5.166907   -2.284212   -3.946159
     20          6           0       -5.674747   -3.446919   -3.328010
     21          6           0       -5.523538   -3.154560   -1.848368
     22          6           0       -4.878892   -2.048897   -5.410288
     23          6           0       -6.190312   -4.684080   -3.981210
     24          8           0       -6.298205   -4.726064   -5.229798
     25          6           0       -6.690245   -5.855088   -3.212570
     26          7           0       -5.232894   -2.601901    1.295498
     27          6           0       -5.613469   -3.761017    0.652826
     28          6           0       -5.685883   -4.945038    1.713353
     29          6           0       -5.161755   -4.269291    3.022070
     30          6           0       -4.894318   -2.857963    2.601345
     31          6           0       -7.129213   -5.542823    1.734493
     32          6           0       -3.890694   -5.046715    3.527669
     33          6           0       -4.196473   -6.146300    4.578523
     34          7           0       -4.594578    0.000367    2.102323
     35          6           0       -4.467861   -0.489384    3.387355
     36          6           0       -4.198879    0.590234    4.356623
     37          6           0       -4.013598    1.704178    3.503668
     38          6           0       -4.194009    1.252073    2.110383
     39          6           0       -3.928984    0.372257    5.850262
     40          6           0       -3.486417    3.021020    3.502528
     41          8           0       -3.063227    3.836410    4.310034
     42          6           0       -3.555468    3.453662    1.996240
     43          6           0       -4.504773    4.662515    1.874535
     44          8           0       -5.674478    4.554397    1.710254
     45          8           0       -3.762941    5.791092    1.669110
     46          6           0       -4.406904    7.060848    1.436741
     47          6           0        2.286477    4.946903   -1.672549
     48          6           0        2.619736    3.517119   -1.414600
     49          6           0        3.774142    3.004541   -0.907700
     50          6           0        5.017156    3.814916   -0.540607
     51          6           0        3.930722    1.500482   -0.745253
     52          6           0        4.805001    0.919154   -1.813054
     53          6           0        5.912299    0.031606   -1.190339
     54          6           0        6.772572   -0.774185   -2.143697
     55          6           0        5.879945   -1.552336   -3.100427
     56          6           0        7.637359   -1.792815   -1.351087
     57          6           0        9.222837   -1.505056   -1.447351
     58          6           0        9.902711   -0.859280   -0.163062
     59          6           0       10.915533   -1.735880    0.520540
     60          6           0       10.205651   -2.818039    1.385390
     61          6           0       11.939522   -0.915512    1.382710
     62          6           0       13.219038   -0.575751    0.557840
     63          6           0       14.431776   -0.610654    1.353691
     64          6           0       15.230050   -1.914864    0.954267
     65          6           0       16.213453   -1.669610   -0.183678
     66          6           0       16.023133   -2.427932    2.184320
     67          1           0       -4.146006    0.402269   -4.031781
     68          1           0       -6.070612   -4.975944   -1.012511
     69          1           0       -4.489895   -2.210059    4.543438
     70          1           0       -3.782981    3.977328   -1.136891
     71          1           0       -2.976455    2.398732   -3.402761
     72          1           0       -5.298201    3.964070   -2.690659
     73          1           0       -5.624806    2.308026   -3.452744
     74          1           0       -4.579932    3.611048   -4.180601
     75          1           0       -1.266124    2.937342   -2.124127
     76          1           0       -1.236487    2.686809   -0.358335
     77          1           0       -1.324382    4.820079    0.189510
     78          1           0       -2.150801    5.443554   -1.143738
     79          1           0       -4.410834   -1.093355   -5.647132
     80          1           0       -5.691558   -2.222236   -6.116047
     81          1           0       -4.182149   -2.840017   -5.687925
     82          1           0       -5.961666   -6.360308   -2.579328
     83          1           0       -7.016014   -6.548186   -3.987671
     84          1           0       -7.610545   -5.695898   -2.648592
     85          1           0       -4.988305   -5.627650    1.227198
     86          1           0       -6.022163   -4.150595    3.680022
     87          1           0       -7.950276   -5.054419    1.210379
     88          1           0       -7.356830   -5.727564    2.784652
     89          1           0       -7.250187   -6.545443    1.324234
     90          1           0       -3.177960   -4.314708    3.906780
     91          1           0       -3.294878   -5.546486    2.764264
     92          1           0       -5.206355   -6.066148    4.981497
     93          1           0       -3.504385   -5.894772    5.382564
     94          1           0       -3.940904   -7.144006    4.218700
     95          1           0       -4.134675   -0.629279    6.226992
     96          1           0       -4.564062    1.085309    6.375878
     97          1           0       -2.864259    0.606894    5.879780
     98          1           0       -2.551500    3.754654    1.696251
     99          1           0       -5.305518    7.084357    2.053116
    100          1           0       -4.529221    7.065611    0.353878
    101          1           0       -3.508309    7.591478    1.752100
    102          1           0        2.927964    5.718939   -1.246541
    103          1           0        2.193983    5.071438   -2.751350
    104          1           0        1.839778    2.816219   -1.715362
    105          1           0        5.865328    3.384563   -1.072931
    106          1           0        5.311576    3.744665    0.506037
    107          1           0        4.907511    4.849729   -0.867954
    108          1           0        2.945545    1.039204   -0.812024
    109          1           0        4.257080    1.162076    0.237818
    110          1           0        5.176495    1.706871   -2.468324
    111          1           0        4.127266    0.342018   -2.441724
    112          1           0        5.510187   -0.674057   -0.464087
    113          1           0        6.660799    0.638669   -0.680037
    114          1           0        7.455034   -0.191849   -2.764100
    115          1           0        6.352122   -2.497520   -3.367825
    116          1           0        5.679782   -1.019273   -4.030014
    117          1           0        5.001088   -1.844981   -2.525951
    118          1           0        7.418009   -2.837955   -1.570399
    119          1           0        7.396077   -1.841055   -0.289194
    120          1           0        9.400729   -0.819634   -2.276466
    121          1           0        9.649273   -2.499804   -1.572565
    122          1           0        9.211907   -0.684402    0.661552
    123          1           0       10.335332    0.092882   -0.468920
    124          1           0       11.414943   -2.216735   -0.320801
    125          1           0       10.292261   -2.591469    2.447524
    126          1           0       10.698250   -3.768734    1.181761
    127          1           0        9.129758   -2.810100    1.211476
    128          1           0       12.246884   -1.558119    2.207468
    129          1           0       11.572712    0.029758    1.785356
    130          1           0       13.120695    0.431666    0.152277
    131          1           0       13.284570   -1.259522   -0.287903
    132          1           0       14.302033   -0.744646    2.426962
    133          1           0       15.020601    0.289990    1.178022
    134          1           0       14.615082   -2.739105    0.592721
    135          1           0       17.259268   -1.912916    0.004789
    136          1           0       16.056712   -0.662547   -0.569785
    137          1           0       15.834525   -2.379670   -0.919684
    138          1           0       16.413799   -3.437543    2.057813
    139          1           0       15.312471   -2.562926    3.000023
    140          1           0       16.842167   -1.766505    2.467197
 ---------------------------------------------------------------------

 SCF Done:  E(RZINDO/S) =  -474.389344469     A.U. after   19 cycles

 Excitation energies and oscillator strengths:

 Excited State   1:      Singlet-A      1.2642 eV  980.74 nm  f=0.6036  <S**2>=0.000
     175 ->178         0.19303
     176 ->177         0.66205
 This state for optimization and/or second-order correction.
 Total Energy, E(CIS/TDA) =  -474.342886209
 Copying the excited state density for this state as the 1-particle RhoCI density.

 Excited State   2:      Singlet-A      1.8831 eV  658.41 nm  f=0.0077  <S**2>=0.000
     175 ->177        -0.43466
     176 ->178         0.53697

 Excited State   3:      Singlet-A      2.6725 eV  463.93 nm  f=0.0274  <S**2>=0.000
     176 ->179         0.35040
     176 ->180         0.58907

 Excited State   4:      Singlet-A      2.7991 eV  442.94 nm  f=0.0400  <S**2>=0.000
     175 ->177        -0.10034
     176 ->179         0.54744
     176 ->180        -0.33828
     176 ->181        -0.17490

 Excited State   5:      Singlet-A      2.9338 eV  422.61 nm  f=0.5706  <S**2>=0.000
     168 ->179         0.11654
     170 ->177        -0.18441
     170 ->179        -0.17473
     170 ->181         0.17869
     170 ->187        -0.10580
     175 ->177         0.37868
     176 ->178         0.33467
     176 ->180        -0.15412
     176 ->181         0.13461

 The electronic state is 1-A.
 Alpha  occ. eigenvalues --   -1.84317  -1.80688  -1.79925  -1.73544  -1.72010
 Alpha  occ. eigenvalues --   -1.70410  -1.66371  -1.63575  -1.59200  -1.58696
 Alpha  occ. eigenvalues --   -1.56648  -1.52463  -1.49687  -1.49239  -1.46422
 Alpha  occ. eigenvalues --   -1.45436  -1.44716  -1.40007  -1.39010  -1.38067
 Alpha  occ. eigenvalues --   -1.35482  -1.33636  -1.32862  -1.31759  -1.28201
 Alpha  occ. eigenvalues --   -1.26832  -1.26202  -1.22988  -1.19578  -1.19112
 Alpha  occ. eigenvalues --   -1.17019  -1.16022  -1.15798  -1.14430  -1.13856
 Alpha  occ. eigenvalues --   -1.13350  -1.10911  -1.10068  -1.05765  -1.03095
 Alpha  occ. eigenvalues --   -1.02773  -1.01606  -0.99015  -0.98281  -0.95915
 Alpha  occ. eigenvalues --   -0.95681  -0.94890  -0.93583  -0.93491  -0.91851
 Alpha  occ. eigenvalues --   -0.91632  -0.91082  -0.89158  -0.88519  -0.87236
 Alpha  occ. eigenvalues --   -0.86840  -0.83959  -0.83270  -0.81881  -0.81112
 Alpha  occ. eigenvalues --   -0.79838  -0.78761  -0.78322  -0.77154  -0.77026
 Alpha  occ. eigenvalues --   -0.76738  -0.75741  -0.75210  -0.74264  -0.74150
 Alpha  occ. eigenvalues --   -0.73553  -0.72875  -0.72391  -0.72149  -0.71118
 Alpha  occ. eigenvalues --   -0.70700  -0.70005  -0.69398  -0.68821  -0.67986
 Alpha  occ. eigenvalues --   -0.67783  -0.67233  -0.66834  -0.65627  -0.65551
 Alpha  occ. eigenvalues --   -0.65437  -0.65123  -0.64636  -0.63846  -0.63526
 Alpha  occ. eigenvalues --   -0.63314  -0.62967  -0.62562  -0.61998  -0.61609
 Alpha  occ. eigenvalues --   -0.61313  -0.61120  -0.60838  -0.60736  -0.60107
 Alpha  occ. eigenvalues --   -0.59804  -0.59283  -0.58747  -0.58649  -0.58024
 Alpha  occ. eigenvalues --   -0.57533  -0.57322  -0.57263  -0.56825  -0.56407
 Alpha  occ. eigenvalues --   -0.56373  -0.55361  -0.55114  -0.54648  -0.54367
 Alpha  occ. eigenvalues --   -0.53891  -0.53667  -0.53552  -0.53458  -0.53210
 Alpha  occ. eigenvalues --   -0.52873  -0.52837  -0.52552  -0.52100  -0.51853
 Alpha  occ. eigenvalues --   -0.51114  -0.50645  -0.50470  -0.50070  -0.49929
 Alpha  occ. eigenvalues --   -0.49825  -0.49390  -0.49169  -0.49047  -0.48929
 Alpha  occ. eigenvalues --   -0.48593  -0.48370  -0.47925  -0.47779  -0.47730
 Alpha  occ. eigenvalues --   -0.47411  -0.47077  -0.46939  -0.46728  -0.46597
 Alpha  occ. eigenvalues --   -0.46497  -0.46161  -0.45825  -0.45429  -0.45364
 Alpha  occ. eigenvalues --   -0.45141  -0.44961  -0.44859  -0.44108  -0.43926
 Alpha  occ. eigenvalues --   -0.43537  -0.43215  -0.42910  -0.42741  -0.42295
 Alpha  occ. eigenvalues --   -0.41628  -0.41489  -0.41460  -0.39377  -0.38994
 Alpha  occ. eigenvalues --   -0.38405  -0.37037  -0.36203  -0.35076  -0.34444
 Alpha  occ. eigenvalues --   -0.33907  -0.32756  -0.32551  -0.31705  -0.27200
 Alpha  occ. eigenvalues --   -0.21225
 Alpha virt. eigenvalues --   -0.07882  -0.02840  -0.01119   0.00313   0.00875
 Alpha virt. eigenvalues --    0.01144   0.02547   0.02743   0.04771   0.05000
 Alpha virt. eigenvalues --    0.06449   0.06639   0.07787   0.07956   0.08095

 Mulliken charges:
               1
     1  Mg   0.444655
     2  C   -0.026584
     3  C   -0.077778
     4  C   -0.095662
     5  C   -0.069301
     6  N   -0.260737
     7  C    0.093598
     8  C    0.002487
     9  C   -0.001261
    10  C    0.136840
    11  C   -0.051462
    12  C   -0.001986
    13  C   -0.001245
    14  C    0.452340
    15  O   -0.512465
    16  O   -0.267623
    17  N   -0.321495
    18  C    0.122969
    19  C    0.059199
    20  C   -0.049372
    21  C    0.128491
    22  C   -0.033626
    23  C    0.336326
    24  O   -0.533625
    25  C   -0.029468
    26  N   -0.284997
    27  C    0.135123
    28  C   -0.002072
    29  C    0.014811
    30  C    0.110414
    31  C   -0.056637
    32  C   -0.028410
    33  C   -0.061646
    34  N   -0.317213
    35  C    0.085139
    36  C    0.023814
    37  C   -0.062380
    38  C    0.120887
    39  C   -0.035645
    40  C    0.330534
    41  O   -0.536474
    42  C    0.039370
    43  C    0.489360
    44  O   -0.502839
    45  O   -0.285334
    46  C    0.065998
    47  C    0.108673
    48  C   -0.079449
    49  C   -0.018676
    50  C   -0.044163
    51  C   -0.020139
    52  C   -0.026707
    53  C   -0.024818
    54  C   -0.008403
    55  C   -0.058752
    56  C   -0.047991
    57  C   -0.048990
    58  C   -0.035717
    59  C   -0.013633
    60  C   -0.060748
    61  C   -0.038402
    62  C   -0.030666
    63  C   -0.026211
    64  C   -0.019046
    65  C   -0.062681
    66  C   -0.061732
    67  H    0.029264
    68  H    0.015367
    69  H    0.007797
    70  H    0.036922
    71  H    0.028763
    72  H    0.029534
    73  H    0.031211
    74  H    0.018817
    75  H    0.030780
    76  H    0.033744
    77  H    0.032840
    78  H    0.035689
    79  H    0.022979
    80  H    0.047969
    81  H    0.035432
    82  H    0.039725
    83  H    0.029683
    84  H    0.041108
    85  H    0.036196
    86  H    0.046358
    87  H    0.033343
    88  H    0.015565
    89  H    0.012850
    90  H    0.019666
    91  H    0.023893
    92  H    0.025204
    93  H    0.015582
    94  H    0.025948
    95  H    0.028444
    96  H    0.038762
    97  H    0.042040
    98  H    0.040538
    99  H    0.064337
   100  H    0.043370
   101  H    0.046938
   102  H    0.046941
   103  H    0.058578
   104  H    0.032289
   105  H    0.022992
   106  H    0.031569
   107  H    0.021882
   108  H    0.008715
   109  H    0.022970
   110  H    0.024821
   111  H    0.017697
   112  H    0.025674
   113  H    0.011510
   114  H    0.023861
   115  H    0.008916
   116  H    0.020223
   117  H    0.019178
   118  H    0.018772
   119  H    0.012114
   120  H    0.026096
   121  H    0.022282
   122  H    0.018642
   123  H    0.012982
   124  H    0.020030
   125  H    0.016700
   126  H    0.020823
   127  H    0.021501
   128  H    0.017231
   129  H    0.025996
   130  H    0.008519
   131  H    0.021837
   132  H    0.020141
   133  H    0.019707
   134  H    0.026559
   135  H    0.026992
   136  H    0.020169
   137  H    0.009732
   138  H    0.010736
   139  H    0.007507
   140  H    0.023689
 Sum of Mulliken charges =  -0.00000

 Dipole moment (field-independent basis, Debye):
    X=              1.6417    Y=             -5.4683    Z=              0.6294  Tot=              5.7440
 N-N= 4.313667977974D+03 E-N= 0.000000000000D+00  KE=-9.301366476790D+03
 Leave Link  601 at Fri Apr 29 09:53:11 2022, MaxMem=  6710886400 cpu:               0.8 elap:               0.0
 (Enter /sw/apps/gaussian-16.0/g16/l9999.exe)
 1\1\GINC-BP1-COMPUTE102\SP\RZINDO CIS\STO-3G\C55H74Mg1N4O6\OF15641\29-
 Apr-2022\0\\#p ZINDO=(nstates=5)\\step_201_chromophore_8 ZINDO\\0,1\Mg
 ,0,45.126,3.485,47.763\C,0,43.03,6.031,46.793\C,0,42.673,1.223,47.118\
 C,0,47.354,1.034,48.037\C,0,47.738,5.798,47.031\N,0,43.076,3.619,46.86
 3\C,0,42.423,4.787,46.659\C,0,40.922,4.459,46.254\C,0,40.799,2.939,46.
 716\C,0,42.281,2.558,46.857\C,0,39.957,2.714,47.967\C,0,40.704,4.714,4
 4.788\C,0,39.592,5.756,44.625\C,0,38.569,5.552,43.424\O,0,37.573,4.839

 Normal termination of Gaussian 16 at Fri Apr 29 09:53:11 2022.
