 Gaussian 16, Revision A.03,
 Gaussian 16:  ES64L-G16RevA.03 25-Dec-2016

 ------------------------------
 #p blyp/Def2SVP td=(nstates=5)
 ------------------------------

 ------------------------------------------------
 step_1_chromophore_22 TDDFT with blyp functional
 ------------------------------------------------
 Symbolic Z-matrix:
 Charge =  0 Multiplicity = 1

                         Standard orientation:
 ---------------------------------------------------------------------
 Center     Atomic      Atomic             Coordinates (Angstroms)
 Number     Number       Type             X           Y           Z
 ---------------------------------------------------------------------
      1         12           0       -6.221855    0.611053    0.086255
      2          6           0       -3.896809   -1.960816    0.629140
      3          6           0       -4.202835    2.836702    1.532475
      4          6           0       -8.521336    2.829356   -0.428662
      5          6           0       -8.626495   -2.032379   -0.478241
      6          7           0       -4.314742    0.379148    1.061665
      7          6           0       -3.470086   -0.659497    1.037497
      8          6           0       -2.194619   -0.366562    1.784628
      9          6           0       -2.492488    1.049886    2.421585
     10          6           0       -3.718678    1.464846    1.631736
     11          6           0       -2.705839    1.141737    3.967417
     12          6           0       -0.952164   -0.256135    0.761134
     13          6           0        0.301011   -1.075220    1.213242
     14          6           0        1.399353   -1.191602    0.023080
     15          8           0        1.581604   -0.344613   -0.839571
     16          8           0        2.174701   -2.344526    0.123156
     17          7           0       -6.242226    2.547170    0.260094
     18          6           0       -5.282793    3.346663    0.857639
     19          6           0       -5.586171    4.719885    0.562197
     20          6           0       -6.890720    4.808450   -0.075717
     21          6           0       -7.259392    3.348812   -0.227009
     22          6           0       -4.635513    5.830755    1.093756
     23          6           0       -7.788796    5.934058   -0.576098
     24          8           0       -8.862035    5.804013   -1.192140
     25          6           0       -7.193253    7.279605   -0.356665
     26          7           0       -8.286070    0.340587   -0.226872
     27          6           0       -8.988613    1.507406   -0.400674
     28          6           0      -10.483138    1.227213   -0.562110
     29          6           0      -10.474512   -0.288197   -0.893559
     30          6           0       -9.074387   -0.724031   -0.457208
     31          6           0      -11.266801    1.719576    0.718748
     32          6           0      -10.779307   -0.674159   -2.403097
     33          6           0      -11.333286   -2.085032   -2.658334
     34          7           0       -6.292534   -1.561971    0.029540
     35          6           0       -7.316199   -2.427952   -0.209599
     36          6           0       -6.842522   -3.792403   -0.274434
     37          6           0       -5.471125   -3.616117   -0.014404
     38          6           0       -5.191863   -2.263240    0.226314
     39          6           0       -7.567645   -5.130071   -0.548345
     40          6           0       -4.233978   -4.337865    0.092922
     41          8           0       -3.907872   -5.464882   -0.173679
     42          6           0       -3.178662   -3.270745    0.692266
     43          6           0       -2.004018   -3.555147   -0.136229
     44          8           0       -1.730411   -3.140555   -1.290915
     45          8           0       -1.253782   -4.391153    0.602075
     46          6           0       -0.008409   -4.898117    0.024072
     47          6           0        3.105188   -2.536756   -1.035614
     48          6           0        4.416606   -1.838203   -0.864578
     49          6           0        5.532468   -2.385051   -0.360139
     50          6           0        5.647590   -3.673907    0.491684
     51          6           0        6.873593   -1.732919   -0.661494
     52          6           0        7.582310   -1.077255    0.611963
     53          6           0        8.049818    0.423103    0.367131
     54          6           0        9.521331    0.575816   -0.047579
     55          6           0       10.457865    0.317090    1.117823
     56          6           0        9.901576    1.904446   -0.727544
     57          6           0       10.968179    1.590240   -1.821387
     58          6           0       12.159626    2.663634   -1.835138
     59          6           0       13.438886    1.965867   -2.290787
     60          6           0       14.034689    2.671886   -3.574278
     61          6           0       14.445596    1.856319   -1.140697
     62          6           0       14.629795    0.448135   -0.597289
     63          6           0       14.968603    0.322689    0.914698
     64          6           0       16.470113    0.009468    1.232775
     65          6           0       16.648324   -0.463456    2.625256
     66          6           0       17.374699    1.321120    0.992306
     67          1           0       -3.511424    3.587374    1.921307
     68          1           0       -9.278772    3.576259   -0.676205
     69          1           0       -9.373552   -2.781216   -0.749539
     70          1           0       -1.906884   -1.114991    2.523502
     71          1           0       -1.765721    1.833693    2.207310
     72          1           0       -3.756757    1.371504    4.143053
     73          1           0       -2.082351    1.975902    4.288705
     74          1           0       -2.490556    0.265468    4.577893
     75          1           0       -0.631853    0.755336    0.508501
     76          1           0       -1.333638   -0.569537   -0.210711
     77          1           0        0.012330   -2.083431    1.509634
     78          1           0        0.878932   -0.630386    2.022966
     79          1           0       -3.880079    6.016760    0.331570
     80          1           0       -3.971442    5.494384    1.890923
     81          1           0       -5.099108    6.695483    1.567970
     82          1           0       -6.245249    7.445623   -0.867132
     83          1           0       -7.123112    7.319448    0.731031
     84          1           0       -7.853855    8.101714   -0.633507
     85          1           0      -10.796955    1.835228   -1.410703
     86          1           0      -11.255004   -0.785044   -0.317372
     87          1           0      -11.592934    0.865592    1.312288
     88          1           0      -12.172887    2.309564    0.583284
     89          1           0      -10.692750    2.273160    1.462083
     90          1           0       -9.783728   -0.698956   -2.846991
     91          1           0      -11.417081   -0.001918   -2.977468
     92          1           0      -10.633062   -2.706243   -3.218306
     93          1           0      -12.282829   -2.196735   -3.182177
     94          1           0      -11.371121   -2.558729   -1.678378
     95          1           0       -8.607078   -4.964535   -0.265004
     96          1           0       -7.128274   -5.941420    0.033479
     97          1           0       -7.499883   -5.298914   -1.623003
     98          1           0       -2.938303   -3.534050    1.722466
     99          1           0        0.827918   -4.450132    0.560414
    100          1           0        0.016884   -4.791861   -1.059920
    101          1           0        0.066445   -5.959856    0.258706
    102          1           0        2.628450   -2.138234   -1.931278
    103          1           0        3.354561   -3.553977   -1.339551
    104          1           0        4.562087   -1.025102   -1.574975
    105          1           0        6.203922   -3.423605    1.394875
    106          1           0        6.149869   -4.423124   -0.119329
    107          1           0        4.628384   -3.949286    0.764181
    108          1           0        6.665899   -1.073696   -1.503865
    109          1           0        7.501592   -2.473007   -1.156038
    110          1           0        8.435704   -1.663294    0.954352
    111          1           0        6.917675   -1.130697    1.474421
    112          1           0        7.884812    0.894222    1.336544
    113          1           0        7.434886    0.825192   -0.438069
    114          1           0        9.687540   -0.253121   -0.734916
    115          1           0       10.798536   -0.715317    1.196679
    116          1           0       10.000826    0.662599    2.044908
    117          1           0       11.361271    0.919561    1.025258
    118          1           0       10.494393    2.498122   -0.033142
    119          1           0        9.099586    2.558242   -1.070706
    120          1           0       10.400777    1.622276   -2.751251
    121          1           0       11.448714    0.621903   -1.676759
    122          1           0       12.269584    3.237067   -0.915244
    123          1           0       11.972496    3.453314   -2.561755
    124          1           0       13.163961    0.958525   -2.602223
    125          1           0       13.626632    3.659273   -3.792049
    126          1           0       13.966392    2.031013   -4.452831
    127          1           0       15.118371    2.731967   -3.475164
    128          1           0       14.312454    2.646126   -0.401173
    129          1           0       15.471443    2.039923   -1.461113
    130          1           0       15.520286    0.048642   -1.082901
    131          1           0       13.881042   -0.232302   -1.002557
    132          1           0       14.412684   -0.516553    1.333653
    133          1           0       14.500313    1.202631    1.354700
    134          1           0       16.789959   -0.747301    0.516347
    135          1           0       17.188073   -1.410220    2.625792
    136          1           0       15.743077   -0.792582    3.134723
    137          1           0       17.268625    0.265022    3.148430
    138          1           0       17.596139    1.563424   -0.047577
    139          1           0       18.321547    1.274727    1.529577
    140          1           0       16.716201    2.128092    1.312432
 ---------------------------------------------------------------------

 SCF Done:  E(RB-LYP) =  -3007.37316331     A.U. after   21 cycles

 Excitation energies and oscillator strengths:

 Excited State   1:      Singlet-A      1.8158 eV  682.82 nm  f=0.3008  <S**2>=0.000
     245 -> 248       -0.20228
     246 -> 247        0.68259
     246 <- 247       -0.14069
 This state for optimization and/or second-order correction.
 Total Energy, E(TD-HF/TD-DFT) =  -3007.30643555
 Copying the excited state density for this state as the 1-particle RhoCI density.

 Excited State   2:      Singlet-A      1.9935 eV  621.95 nm  f=0.0361  <S**2>=0.000
     244 -> 247        0.40391
     245 -> 247        0.52930
     246 -> 248        0.20617

 Excited State   3:      Singlet-A      2.0328 eV  609.91 nm  f=0.0222  <S**2>=0.000
     244 -> 247        0.57682
     245 -> 247       -0.36254
     246 -> 248       -0.15870

 Excited State   4:      Singlet-A      2.1506 eV  576.52 nm  f=0.0008  <S**2>=0.000
     243 -> 247        0.70431

 Excited State   5:      Singlet-A      2.4935 eV  497.24 nm  f=0.0006  <S**2>=0.000
     240 -> 247        0.36152
     242 -> 247        0.57931
     246 -> 248       -0.11682

 The electronic state is 1-A.
 Alpha  occ. eigenvalues --  -46.26023 -18.81869 -18.81747 -18.76896 -18.76204
 Alpha  occ. eigenvalues --  -18.75817 -18.75365 -14.03533 -14.02862 -14.00870
 Alpha  occ. eigenvalues --  -14.00022 -10.04221 -10.03000 -10.00476  -9.99274
 Alpha  occ. eigenvalues --   -9.97254  -9.97043  -9.96701  -9.96493  -9.96183
 Alpha  occ. eigenvalues --   -9.95958  -9.95936  -9.95629  -9.95075  -9.95033
 Alpha  occ. eigenvalues --   -9.94577  -9.94324  -9.94244  -9.93806  -9.93798
 Alpha  occ. eigenvalues --   -9.93739  -9.93641  -9.93465  -9.93445  -9.93368
 Alpha  occ. eigenvalues --   -9.93239  -9.92971  -9.92898  -9.92884  -9.92868
 Alpha  occ. eigenvalues --   -9.92715  -9.92706  -9.92456  -9.92325  -9.92234
 Alpha  occ. eigenvalues --   -9.92227  -9.92167  -9.92013  -9.91806  -9.91749
 Alpha  occ. eigenvalues --   -9.91730  -9.91534  -9.91517  -9.91418  -9.91244
 Alpha  occ. eigenvalues --   -9.91137  -9.91098  -9.90935  -9.90780  -9.90725
 Alpha  occ. eigenvalues --   -9.90678  -9.90647  -9.90537  -9.90498  -9.90399
 Alpha  occ. eigenvalues --   -9.90392  -2.90950  -1.71363  -1.70842  -1.70664
 Alpha  occ. eigenvalues --   -0.97284  -0.96577  -0.92294  -0.90795  -0.89059
 Alpha  occ. eigenvalues --   -0.87569  -0.87331  -0.86583  -0.85928  -0.84732
 Alpha  occ. eigenvalues --   -0.75505  -0.73314  -0.72829  -0.72248  -0.72105
 Alpha  occ. eigenvalues --   -0.71730  -0.71453  -0.70879  -0.70839  -0.70137
 Alpha  occ. eigenvalues --   -0.69660  -0.68589  -0.67731  -0.67568  -0.66881
 Alpha  occ. eigenvalues --   -0.66317  -0.66085  -0.65496  -0.64926  -0.64481
 Alpha  occ. eigenvalues --   -0.63363  -0.62417  -0.62255  -0.61699  -0.60553
 Alpha  occ. eigenvalues --   -0.60392  -0.60065  -0.59976  -0.59326  -0.59026
 Alpha  occ. eigenvalues --   -0.57879  -0.57580  -0.57056  -0.55356  -0.54339
 Alpha  occ. eigenvalues --   -0.54050  -0.53695  -0.52785  -0.52271  -0.51823
 Alpha  occ. eigenvalues --   -0.51468  -0.51105  -0.50684  -0.50344  -0.49903
 Alpha  occ. eigenvalues --   -0.49336  -0.49190  -0.48591  -0.47910  -0.46488
 Alpha  occ. eigenvalues --   -0.46272  -0.45669  -0.45163  -0.44631  -0.44459
 Alpha  occ. eigenvalues --   -0.43537  -0.43139  -0.42995  -0.42451  -0.42023
 Alpha  occ. eigenvalues --   -0.41494  -0.41385  -0.41187  -0.41079  -0.40711
 Alpha  occ. eigenvalues --   -0.40606  -0.40549  -0.40291  -0.40181  -0.39828
 Alpha  occ. eigenvalues --   -0.39721  -0.39608  -0.39400  -0.39288  -0.39205
 Alpha  occ. eigenvalues --   -0.38797  -0.38766  -0.38341  -0.38317  -0.38213
 Alpha  occ. eigenvalues --   -0.38012  -0.37844  -0.37723  -0.37429  -0.37327
 Alpha  occ. eigenvalues --   -0.36841  -0.36832  -0.36558  -0.36355  -0.36135
 Alpha  occ. eigenvalues --   -0.35959  -0.35802  -0.35675  -0.35619  -0.35371
 Alpha  occ. eigenvalues --   -0.35223  -0.35019  -0.34849  -0.34731  -0.34561
 Alpha  occ. eigenvalues --   -0.34525  -0.34288  -0.33822  -0.33756  -0.33656
 Alpha  occ. eigenvalues --   -0.33507  -0.33315  -0.33183  -0.33012  -0.32909
 Alpha  occ. eigenvalues --   -0.32599  -0.32467  -0.32389  -0.32111  -0.32102
 Alpha  occ. eigenvalues --   -0.31849  -0.31740  -0.31496  -0.31306  -0.31262
 Alpha  occ. eigenvalues --   -0.31136  -0.30997  -0.30847  -0.30612  -0.30417
 Alpha  occ. eigenvalues --   -0.30273  -0.30220  -0.30000  -0.29930  -0.29648
 Alpha  occ. eigenvalues --   -0.29480  -0.29376  -0.29336  -0.29130  -0.28774
 Alpha  occ. eigenvalues --   -0.28727  -0.28711  -0.28227  -0.27930  -0.27600
 Alpha  occ. eigenvalues --   -0.27451  -0.27356  -0.27027  -0.26544  -0.26478
 Alpha  occ. eigenvalues --   -0.26404  -0.26391  -0.25834  -0.25678  -0.25264
 Alpha  occ. eigenvalues --   -0.24597  -0.24227  -0.24200  -0.23794  -0.23566
 Alpha  occ. eigenvalues --   -0.22938  -0.22066  -0.22002  -0.20966  -0.20731
 Alpha  occ. eigenvalues --   -0.20637  -0.20257  -0.19188  -0.18722  -0.17309
 Alpha  occ. eigenvalues --   -0.15796
 Alpha virt. eigenvalues --   -0.11404  -0.07236  -0.06564  -0.04440  -0.02602
 Alpha virt. eigenvalues --   -0.02257  -0.01947  -0.01484  -0.01405   0.00320
 Alpha virt. eigenvalues --    0.01394   0.01489   0.02313   0.02666   0.02891

 Mulliken charges:
               1
     1  Mg   0.718098
     2  C    0.080460
     3  C   -0.056126
     4  C   -0.030348
     5  C   -0.102163
     6  N   -0.201703
     7  C   -0.042676
     8  C    0.008160
     9  C    0.019911
    10  C   -0.010252
    11  C    0.131432
    12  C    0.088128
    13  C    0.085285
    14  C    0.109247
    15  O   -0.191001
    16  O   -0.286152
    17  N   -0.381320
    18  C    0.170603
    19  C   -0.102484
    20  C   -0.034510
    21  C    0.122675
    22  C    0.147092
    23  C   -0.031229
    24  O   -0.169434
    25  C    0.125124
    26  N   -0.218410
    27  C    0.037263
    28  C    0.026435
    29  C    0.046324
    30  C    0.017717
    31  C    0.121547
    32  C    0.088122
    33  C    0.054112
    34  N   -0.181071
    35  C    0.126622
    36  C   -0.209728
    37  C    0.119062
    38  C    0.028830
    39  C    0.184282
    40  C   -0.077094
    41  O   -0.109343
    42  C    0.007173
    43  C    0.114279
    44  O   -0.218684
    45  O   -0.257613
    46  C    0.201333
    47  C    0.316542
    48  C   -0.084544
    49  C   -0.195834
    50  C    0.151639
    51  C    0.139338
    52  C    0.064195
    53  C    0.116332
    54  C   -0.085643
    55  C    0.105515
    56  C    0.141057
    57  C    0.023270
    58  C    0.121667
    59  C   -0.082987
    60  C    0.100364
    61  C    0.121710
    62  C    0.058064
    63  C    0.081964
    64  C   -0.087855
    65  C    0.149475
    66  C    0.071115
    67  H   -0.074013
    68  H   -0.039874
    69  H   -0.079396
    70  H   -0.021654
    71  H   -0.029838
    72  H   -0.005696
    73  H   -0.006928
    74  H   -0.004625
    75  H   -0.011867
    76  H    0.004121
    77  H    0.001345
    78  H    0.008122
    79  H    0.002112
    80  H   -0.022657
    81  H    0.006344
    82  H    0.024746
    83  H    0.005276
    84  H   -0.015890
    85  H   -0.020006
    86  H   -0.034876
    87  H   -0.025926
    88  H   -0.003409
    89  H   -0.006617
    90  H   -0.017473
    91  H   -0.010253
    92  H   -0.011246
    93  H   -0.005079
    94  H   -0.008572
    95  H   -0.009114
    96  H    0.017571
    97  H    0.015586
    98  H   -0.000196
    99  H    0.021939
   100  H    0.028262
   101  H    0.002177
   102  H   -0.008422
   103  H   -0.004270
   104  H   -0.028961
   105  H    0.001281
   106  H    0.005465
   107  H   -0.002035
   108  H   -0.038323
   109  H   -0.030382
   110  H   -0.034795
   111  H   -0.021954
   112  H   -0.035758
   113  H   -0.027349
   114  H   -0.037277
   115  H   -0.011256
   116  H   -0.023627
   117  H   -0.019443
   118  H   -0.049333
   119  H   -0.034005
   120  H   -0.017256
   121  H   -0.004800
   122  H   -0.031311
   123  H   -0.049457
   124  H   -0.030567
   125  H   -0.007049
   126  H   -0.023254
   127  H   -0.033687
   128  H   -0.036124
   129  H   -0.046123
   130  H   -0.048192
   131  H   -0.039152
   132  H   -0.042387
   133  H   -0.026439
   134  H   -0.031326
   135  H   -0.030833
   136  H   -0.022896
   137  H   -0.015528
   138  H   -0.010452
   139  H   -0.006114
   140  H   -0.012363
 Sum of Mulliken charges =  -0.00000

 Dipole moment (field-independent basis, Debye):
    X=              1.9732    Y=              0.8776    Z=              3.5161  Tot=              4.1264
 Quadrupole moment (field-independent basis, Debye-Ang):
   XX=           -369.5040   YY=           -411.5109   ZZ=           -402.6011
   XY=             -2.7608   XZ=             -9.7108   YZ=              8.8084

 Normal termination of Gaussian 16 at Fri Apr 29 07:02:42 2022.
