 Gaussian 16, Revision A.03,
 Gaussian 16:  ES64L-G16RevA.03 25-Dec-2016

 -----------------------------------
 #p cam-b3lyp/Def2SVP td=(nstates=5)
 -----------------------------------

 -----------------------------------------------------
 step_1_chromophore_22 TDDFT with cam-b3lyp functional
 -----------------------------------------------------
 Symbolic Z-matrix:
 Charge =  0 Multiplicity = 1

                         Standard orientation:
 ---------------------------------------------------------------------
 Center     Atomic      Atomic             Coordinates (Angstroms)
 Number     Number       Type             X           Y           Z
 ---------------------------------------------------------------------
      1         12           0       -6.221855    0.611053    0.086255
      2          6           0       -3.896809   -1.960816    0.629140
      3          6           0       -4.202835    2.836702    1.532475
      4          6           0       -8.521336    2.829356   -0.428662
      5          6           0       -8.626495   -2.032379   -0.478241
      6          7           0       -4.314742    0.379148    1.061665
      7          6           0       -3.470086   -0.659497    1.037497
      8          6           0       -2.194619   -0.366562    1.784628
      9          6           0       -2.492488    1.049886    2.421585
     10          6           0       -3.718678    1.464846    1.631736
     11          6           0       -2.705839    1.141737    3.967417
     12          6           0       -0.952164   -0.256135    0.761134
     13          6           0        0.301011   -1.075220    1.213242
     14          6           0        1.399353   -1.191602    0.023080
     15          8           0        1.581604   -0.344613   -0.839571
     16          8           0        2.174701   -2.344526    0.123156
     17          7           0       -6.242226    2.547170    0.260094
     18          6           0       -5.282793    3.346663    0.857639
     19          6           0       -5.586171    4.719885    0.562197
     20          6           0       -6.890720    4.808450   -0.075717
     21          6           0       -7.259392    3.348812   -0.227009
     22          6           0       -4.635513    5.830755    1.093756
     23          6           0       -7.788796    5.934058   -0.576098
     24          8           0       -8.862035    5.804013   -1.192140
     25          6           0       -7.193253    7.279605   -0.356665
     26          7           0       -8.286070    0.340587   -0.226872
     27          6           0       -8.988613    1.507406   -0.400674
     28          6           0      -10.483138    1.227213   -0.562110
     29          6           0      -10.474512   -0.288197   -0.893559
     30          6           0       -9.074387   -0.724031   -0.457208
     31          6           0      -11.266801    1.719576    0.718748
     32          6           0      -10.779307   -0.674159   -2.403097
     33          6           0      -11.333286   -2.085032   -2.658334
     34          7           0       -6.292534   -1.561971    0.029540
     35          6           0       -7.316199   -2.427952   -0.209599
     36          6           0       -6.842522   -3.792403   -0.274434
     37          6           0       -5.471125   -3.616117   -0.014404
     38          6           0       -5.191863   -2.263240    0.226314
     39          6           0       -7.567645   -5.130071   -0.548345
     40          6           0       -4.233978   -4.337865    0.092922
     41          8           0       -3.907872   -5.464882   -0.173679
     42          6           0       -3.178662   -3.270745    0.692266
     43          6           0       -2.004018   -3.555147   -0.136229
     44          8           0       -1.730411   -3.140555   -1.290915
     45          8           0       -1.253782   -4.391153    0.602075
     46          6           0       -0.008409   -4.898117    0.024072
     47          6           0        3.105188   -2.536756   -1.035614
     48          6           0        4.416606   -1.838203   -0.864578
     49          6           0        5.532468   -2.385051   -0.360139
     50          6           0        5.647590   -3.673907    0.491684
     51          6           0        6.873593   -1.732919   -0.661494
     52          6           0        7.582310   -1.077255    0.611963
     53          6           0        8.049818    0.423103    0.367131
     54          6           0        9.521331    0.575816   -0.047579
     55          6           0       10.457865    0.317090    1.117823
     56          6           0        9.901576    1.904446   -0.727544
     57          6           0       10.968179    1.590240   -1.821387
     58          6           0       12.159626    2.663634   -1.835138
     59          6           0       13.438886    1.965867   -2.290787
     60          6           0       14.034689    2.671886   -3.574278
     61          6           0       14.445596    1.856319   -1.140697
     62          6           0       14.629795    0.448135   -0.597289
     63          6           0       14.968603    0.322689    0.914698
     64          6           0       16.470113    0.009468    1.232775
     65          6           0       16.648324   -0.463456    2.625256
     66          6           0       17.374699    1.321120    0.992306
     67          1           0       -3.511424    3.587374    1.921307
     68          1           0       -9.278772    3.576259   -0.676205
     69          1           0       -9.373552   -2.781216   -0.749539
     70          1           0       -1.906884   -1.114991    2.523502
     71          1           0       -1.765721    1.833693    2.207310
     72          1           0       -3.756757    1.371504    4.143053
     73          1           0       -2.082351    1.975902    4.288705
     74          1           0       -2.490556    0.265468    4.577893
     75          1           0       -0.631853    0.755336    0.508501
     76          1           0       -1.333638   -0.569537   -0.210711
     77          1           0        0.012330   -2.083431    1.509634
     78          1           0        0.878932   -0.630386    2.022966
     79          1           0       -3.880079    6.016760    0.331570
     80          1           0       -3.971442    5.494384    1.890923
     81          1           0       -5.099108    6.695483    1.567970
     82          1           0       -6.245249    7.445623   -0.867132
     83          1           0       -7.123112    7.319448    0.731031
     84          1           0       -7.853855    8.101714   -0.633507
     85          1           0      -10.796955    1.835228   -1.410703
     86          1           0      -11.255004   -0.785044   -0.317372
     87          1           0      -11.592934    0.865592    1.312288
     88          1           0      -12.172887    2.309564    0.583284
     89          1           0      -10.692750    2.273160    1.462083
     90          1           0       -9.783728   -0.698956   -2.846991
     91          1           0      -11.417081   -0.001918   -2.977468
     92          1           0      -10.633062   -2.706243   -3.218306
     93          1           0      -12.282829   -2.196735   -3.182177
     94          1           0      -11.371121   -2.558729   -1.678378
     95          1           0       -8.607078   -4.964535   -0.265004
     96          1           0       -7.128274   -5.941420    0.033479
     97          1           0       -7.499883   -5.298914   -1.623003
     98          1           0       -2.938303   -3.534050    1.722466
     99          1           0        0.827918   -4.450132    0.560414
    100          1           0        0.016884   -4.791861   -1.059920
    101          1           0        0.066445   -5.959856    0.258706
    102          1           0        2.628450   -2.138234   -1.931278
    103          1           0        3.354561   -3.553977   -1.339551
    104          1           0        4.562087   -1.025102   -1.574975
    105          1           0        6.203922   -3.423605    1.394875
    106          1           0        6.149869   -4.423124   -0.119329
    107          1           0        4.628384   -3.949286    0.764181
    108          1           0        6.665899   -1.073696   -1.503865
    109          1           0        7.501592   -2.473007   -1.156038
    110          1           0        8.435704   -1.663294    0.954352
    111          1           0        6.917675   -1.130697    1.474421
    112          1           0        7.884812    0.894222    1.336544
    113          1           0        7.434886    0.825192   -0.438069
    114          1           0        9.687540   -0.253121   -0.734916
    115          1           0       10.798536   -0.715317    1.196679
    116          1           0       10.000826    0.662599    2.044908
    117          1           0       11.361271    0.919561    1.025258
    118          1           0       10.494393    2.498122   -0.033142
    119          1           0        9.099586    2.558242   -1.070706
    120          1           0       10.400777    1.622276   -2.751251
    121          1           0       11.448714    0.621903   -1.676759
    122          1           0       12.269584    3.237067   -0.915244
    123          1           0       11.972496    3.453314   -2.561755
    124          1           0       13.163961    0.958525   -2.602223
    125          1           0       13.626632    3.659273   -3.792049
    126          1           0       13.966392    2.031013   -4.452831
    127          1           0       15.118371    2.731967   -3.475164
    128          1           0       14.312454    2.646126   -0.401173
    129          1           0       15.471443    2.039923   -1.461113
    130          1           0       15.520286    0.048642   -1.082901
    131          1           0       13.881042   -0.232302   -1.002557
    132          1           0       14.412684   -0.516553    1.333653
    133          1           0       14.500313    1.202631    1.354700
    134          1           0       16.789959   -0.747301    0.516347
    135          1           0       17.188073   -1.410220    2.625792
    136          1           0       15.743077   -0.792582    3.134723
    137          1           0       17.268625    0.265022    3.148430
    138          1           0       17.596139    1.563424   -0.047577
    139          1           0       18.321547    1.274727    1.529577
    140          1           0       16.716201    2.128092    1.312432
 ---------------------------------------------------------------------

 SCF Done:  E(RCAM-B3LYP) =  -3007.16446423     A.U. after   17 cycles

 Excitation energies and oscillator strengths:

 Excited State   1:      Singlet-A      1.7277 eV  717.62 nm  f=0.3745  <S**2>=0.000
     245 -> 248       -0.19747
     246 -> 247        0.68095
     245 <- 248       -0.11058
 This state for optimization and/or second-order correction.
 Total Energy, E(TD-HF/TD-DFT) =  -3007.10097200
 Copying the excited state density for this state as the 1-particle RhoCI density.

 Excited State   2:      Singlet-A      2.2495 eV  551.15 nm  f=0.0665  <S**2>=0.000
     245 -> 247        0.61720
     246 -> 248        0.33528

 Excited State   3:      Singlet-A      3.4098 eV  363.61 nm  f=0.3946  <S**2>=0.000
     243 -> 247       -0.14341
     244 -> 247       -0.37149
     245 -> 247       -0.24831
     246 -> 248        0.50930

 Excited State   4:      Singlet-A      3.4540 eV  358.96 nm  f=0.2063  <S**2>=0.000
     241 -> 247        0.13170
     243 -> 247       -0.14949
     244 -> 247        0.55073
     245 -> 247       -0.17320
     246 -> 248        0.30350

 Excited State   5:      Singlet-A      3.5867 eV  345.67 nm  f=0.0298  <S**2>=0.000
     241 -> 247        0.49051
     241 -> 249       -0.20753
     241 -> 250        0.20219
     243 -> 247        0.32105
     244 -> 247       -0.12960

 The electronic state is 1-A.
 Alpha  occ. eigenvalues --  -46.87467 -19.24744 -19.24713 -19.19812 -19.19574
 Alpha  occ. eigenvalues --  -19.18955 -19.18427 -14.42494 -14.41631 -14.39352
 Alpha  occ. eigenvalues --  -14.38307 -10.39567 -10.38526 -10.35898 -10.34580
 Alpha  occ. eigenvalues --  -10.31611 -10.31399 -10.31090 -10.30699 -10.30510
 Alpha  occ. eigenvalues --  -10.30506 -10.30174 -10.30014 -10.29943 -10.29126
 Alpha  occ. eigenvalues --  -10.28645 -10.28442 -10.28442 -10.28253 -10.27764
 Alpha  occ. eigenvalues --  -10.27736 -10.27652 -10.27649 -10.27631 -10.27551
 Alpha  occ. eigenvalues --  -10.27498 -10.27229 -10.27112 -10.26785 -10.26570
 Alpha  occ. eigenvalues --  -10.26413 -10.26353 -10.26161 -10.26122 -10.26047
 Alpha  occ. eigenvalues --  -10.25963 -10.25962 -10.25799 -10.25740 -10.25724
 Alpha  occ. eigenvalues --  -10.25293 -10.25244 -10.25172 -10.25109 -10.24917
 Alpha  occ. eigenvalues --  -10.24784 -10.24780 -10.24776 -10.24427 -10.24399
 Alpha  occ. eigenvalues --  -10.24344 -10.24343 -10.24210 -10.24148 -10.24036
 Alpha  occ. eigenvalues --  -10.24030  -3.16310  -1.91195  -1.90777  -1.90624
 Alpha  occ. eigenvalues --   -1.15835  -1.14963  -1.10691  -1.09296  -1.06812
 Alpha  occ. eigenvalues --   -1.05515  -1.05094  -1.04203  -1.03494  -1.02310
 Alpha  occ. eigenvalues --   -0.92626  -0.90162  -0.89639  -0.89012  -0.88816
 Alpha  occ. eigenvalues --   -0.88413  -0.87965  -0.87460  -0.87397  -0.86875
 Alpha  occ. eigenvalues --   -0.86192  -0.84966  -0.83943  -0.83737  -0.83024
 Alpha  occ. eigenvalues --   -0.82382  -0.82302  -0.81350  -0.80826  -0.80362
 Alpha  occ. eigenvalues --   -0.79064  -0.78124  -0.77936  -0.77172  -0.75926
 Alpha  occ. eigenvalues --   -0.75739  -0.75347  -0.75305  -0.74618  -0.74278
 Alpha  occ. eigenvalues --   -0.72890  -0.72558  -0.72000  -0.70155  -0.68935
 Alpha  occ. eigenvalues --   -0.68648  -0.68261  -0.67208  -0.66656  -0.65992
 Alpha  occ. eigenvalues --   -0.65459  -0.65328  -0.64761  -0.64344  -0.63954
 Alpha  occ. eigenvalues --   -0.63203  -0.62988  -0.62436  -0.61615  -0.60138
 Alpha  occ. eigenvalues --   -0.59946  -0.59130  -0.58595  -0.57957  -0.57873
 Alpha  occ. eigenvalues --   -0.57090  -0.56549  -0.56245  -0.55798  -0.55267
 Alpha  occ. eigenvalues --   -0.54604  -0.54144  -0.54063  -0.53903  -0.53664
 Alpha  occ. eigenvalues --   -0.53389  -0.53285  -0.53247  -0.53101  -0.52559
 Alpha  occ. eigenvalues --   -0.52524  -0.52344  -0.52224  -0.51879  -0.51687
 Alpha  occ. eigenvalues --   -0.51485  -0.51298  -0.50943  -0.50743  -0.50542
 Alpha  occ. eigenvalues --   -0.50285  -0.50172  -0.50074  -0.49964  -0.49602
 Alpha  occ. eigenvalues --   -0.49501  -0.49027  -0.48917  -0.48815  -0.48769
 Alpha  occ. eigenvalues --   -0.48239  -0.48052  -0.48012  -0.47542  -0.47380
 Alpha  occ. eigenvalues --   -0.47234  -0.46995  -0.46880  -0.46677  -0.46396
 Alpha  occ. eigenvalues --   -0.46339  -0.46118  -0.45811  -0.45604  -0.45440
 Alpha  occ. eigenvalues --   -0.45343  -0.45128  -0.44985  -0.44760  -0.44599
 Alpha  occ. eigenvalues --   -0.44313  -0.44111  -0.43930  -0.43626  -0.43600
 Alpha  occ. eigenvalues --   -0.43444  -0.43387  -0.43003  -0.42783  -0.42743
 Alpha  occ. eigenvalues --   -0.42655  -0.42430  -0.42251  -0.42123  -0.41923
 Alpha  occ. eigenvalues --   -0.41795  -0.41639  -0.41231  -0.41181  -0.40994
 Alpha  occ. eigenvalues --   -0.40796  -0.40715  -0.40499  -0.40448  -0.40221
 Alpha  occ. eigenvalues --   -0.39885  -0.39681  -0.39558  -0.38964  -0.38571
 Alpha  occ. eigenvalues --   -0.38461  -0.38207  -0.37902  -0.37724  -0.37307
 Alpha  occ. eigenvalues --   -0.37236  -0.37085  -0.36682  -0.36294  -0.35898
 Alpha  occ. eigenvalues --   -0.35792  -0.35129  -0.34767  -0.33980  -0.33944
 Alpha  occ. eigenvalues --   -0.33855  -0.33778  -0.32939  -0.31631  -0.31241
 Alpha  occ. eigenvalues --   -0.30463  -0.30384  -0.30234  -0.29516  -0.24087
 Alpha  occ. eigenvalues --   -0.21023
 Alpha virt. eigenvalues --   -0.08340  -0.02201  -0.00196   0.02495   0.03326
 Alpha virt. eigenvalues --    0.04841   0.05191   0.05920   0.06332   0.06771
 Alpha virt. eigenvalues --    0.08161   0.08405   0.08513   0.09223   0.09380

 Mulliken charges:
               1
     1  Mg   0.853842
     2  C    0.058993
     3  C   -0.070088
     4  C   -0.057629
     5  C   -0.106872
     6  N   -0.270974
     7  C    0.001444
     8  C   -0.048998
     9  C   -0.031124
    10  C    0.007233
    11  C    0.073765
    12  C    0.039736
    13  C    0.024314
    14  C    0.189959
    15  O   -0.232644
    16  O   -0.351784
    17  N   -0.473422
    18  C    0.176057
    19  C   -0.107613
    20  C   -0.095605
    21  C    0.154631
    22  C    0.088956
    23  C    0.047471
    24  O   -0.209135
    25  C    0.040349
    26  N   -0.291867
    27  C    0.056911
    28  C   -0.031519
    29  C   -0.009854
    30  C    0.036951
    31  C    0.062979
    32  C    0.033938
    33  C   -0.009041
    34  N   -0.270598
    35  C    0.124360
    36  C   -0.199967
    37  C    0.032680
    38  C    0.058838
    39  C    0.139530
    40  C    0.025732
    41  O   -0.148623
    42  C   -0.068426
    43  C    0.197927
    44  O   -0.257471
    45  O   -0.319982
    46  C    0.166143
    47  C    0.269810
    48  C   -0.103810
    49  C   -0.210566
    50  C    0.093519
    51  C    0.081795
    52  C    0.007036
    53  C    0.065356
    54  C   -0.141454
    55  C    0.050894
    56  C    0.083117
    57  C   -0.023205
    58  C    0.068314
    59  C   -0.145362
    60  C    0.046603
    61  C    0.068774
    62  C    0.005195
    63  C    0.028442
    64  C   -0.142797
    65  C    0.080898
    66  C    0.013674
    67  H   -0.038660
    68  H    0.000445
    69  H   -0.043133
    70  H    0.012911
    71  H    0.004865
    72  H    0.020582
    73  H    0.016147
    74  H    0.020105
    75  H    0.019595
    76  H    0.036261
    77  H    0.027585
    78  H    0.038474
    79  H    0.031056
    80  H    0.006285
    81  H    0.032448
    82  H    0.052945
    83  H    0.030618
    84  H    0.020526
    85  H    0.015856
    86  H    0.001188
    87  H   -0.000460
    88  H    0.021395
    89  H    0.019794
    90  H    0.012474
    91  H    0.017787
    92  H    0.013099
    93  H    0.020437
    94  H    0.010174
    95  H    0.013273
    96  H    0.042960
    97  H    0.041170
    98  H    0.043529
    99  H    0.042167
   100  H    0.054128
   101  H    0.026102
   102  H    0.027084
   103  H    0.024231
   104  H    0.003173
   105  H    0.024415
   106  H    0.029033
   107  H    0.022524
   108  H   -0.008540
   109  H   -0.001376
   110  H   -0.006784
   111  H    0.007083
   112  H   -0.007320
   113  H    0.000390
   114  H   -0.006963
   115  H    0.011577
   116  H    0.001170
   117  H    0.000487
   118  H   -0.019420
   119  H   -0.003324
   120  H    0.010508
   121  H    0.017074
   122  H   -0.004133
   123  H   -0.018659
   124  H    0.001967
   125  H    0.015480
   126  H    0.001468
   127  H   -0.008615
   128  H   -0.008940
   129  H   -0.017883
   130  H   -0.018844
   131  H   -0.011375
   132  H   -0.012698
   133  H   -0.000367
   134  H    0.000204
   135  H   -0.004656
   136  H    0.003520
   137  H    0.009659
   138  H    0.011722
   139  H    0.017731
   140  H    0.009532
 Sum of Mulliken charges =  -0.00000

 Dipole moment (field-independent basis, Debye):
    X=              2.0481    Y=              1.5287    Z=              3.7407  Tot=              4.5304
 Quadrupole moment (field-independent basis, Debye-Ang):
   XX=           -369.1117   YY=           -405.7532   ZZ=           -402.3038
   XY=             -6.7963   XZ=            -10.4173   YZ=              9.4605

 Normal termination of Gaussian 16 at Fri Apr 29 06:03:31 2022.
