 Gaussian 16, Revision A.03,
 Gaussian 16:  ES64L-G16RevA.03 25-Dec-2016

 ---------------------------------
 #p PBE1PBE/Def2SVP td=(nstates=5)
 ---------------------------------

 ---------------------------------------------------
 step_1_chromophore_22 TDDFT with PBE1PBE functional
 ---------------------------------------------------
 Symbolic Z-matrix:
 Charge =  0 Multiplicity = 1

                         Standard orientation:
 ---------------------------------------------------------------------
 Center     Atomic      Atomic             Coordinates (Angstroms)
 Number     Number       Type             X           Y           Z
 ---------------------------------------------------------------------
      1         12           0       -6.221855    0.611053    0.086255
      2          6           0       -3.896809   -1.960816    0.629140
      3          6           0       -4.202835    2.836702    1.532475
      4          6           0       -8.521336    2.829356   -0.428662
      5          6           0       -8.626495   -2.032379   -0.478241
      6          7           0       -4.314742    0.379148    1.061665
      7          6           0       -3.470086   -0.659497    1.037497
      8          6           0       -2.194619   -0.366562    1.784628
      9          6           0       -2.492488    1.049886    2.421585
     10          6           0       -3.718678    1.464846    1.631736
     11          6           0       -2.705839    1.141737    3.967417
     12          6           0       -0.952164   -0.256135    0.761134
     13          6           0        0.301011   -1.075220    1.213242
     14          6           0        1.399353   -1.191602    0.023080
     15          8           0        1.581604   -0.344613   -0.839571
     16          8           0        2.174701   -2.344526    0.123156
     17          7           0       -6.242226    2.547170    0.260094
     18          6           0       -5.282793    3.346663    0.857639
     19          6           0       -5.586171    4.719885    0.562197
     20          6           0       -6.890720    4.808450   -0.075717
     21          6           0       -7.259392    3.348812   -0.227009
     22          6           0       -4.635513    5.830755    1.093756
     23          6           0       -7.788796    5.934058   -0.576098
     24          8           0       -8.862035    5.804013   -1.192140
     25          6           0       -7.193253    7.279605   -0.356665
     26          7           0       -8.286070    0.340587   -0.226872
     27          6           0       -8.988613    1.507406   -0.400674
     28          6           0      -10.483138    1.227213   -0.562110
     29          6           0      -10.474512   -0.288197   -0.893559
     30          6           0       -9.074387   -0.724031   -0.457208
     31          6           0      -11.266801    1.719576    0.718748
     32          6           0      -10.779307   -0.674159   -2.403097
     33          6           0      -11.333286   -2.085032   -2.658334
     34          7           0       -6.292534   -1.561971    0.029540
     35          6           0       -7.316199   -2.427952   -0.209599
     36          6           0       -6.842522   -3.792403   -0.274434
     37          6           0       -5.471125   -3.616117   -0.014404
     38          6           0       -5.191863   -2.263240    0.226314
     39          6           0       -7.567645   -5.130071   -0.548345
     40          6           0       -4.233978   -4.337865    0.092922
     41          8           0       -3.907872   -5.464882   -0.173679
     42          6           0       -3.178662   -3.270745    0.692266
     43          6           0       -2.004018   -3.555147   -0.136229
     44          8           0       -1.730411   -3.140555   -1.290915
     45          8           0       -1.253782   -4.391153    0.602075
     46          6           0       -0.008409   -4.898117    0.024072
     47          6           0        3.105188   -2.536756   -1.035614
     48          6           0        4.416606   -1.838203   -0.864578
     49          6           0        5.532468   -2.385051   -0.360139
     50          6           0        5.647590   -3.673907    0.491684
     51          6           0        6.873593   -1.732919   -0.661494
     52          6           0        7.582310   -1.077255    0.611963
     53          6           0        8.049818    0.423103    0.367131
     54          6           0        9.521331    0.575816   -0.047579
     55          6           0       10.457865    0.317090    1.117823
     56          6           0        9.901576    1.904446   -0.727544
     57          6           0       10.968179    1.590240   -1.821387
     58          6           0       12.159626    2.663634   -1.835138
     59          6           0       13.438886    1.965867   -2.290787
     60          6           0       14.034689    2.671886   -3.574278
     61          6           0       14.445596    1.856319   -1.140697
     62          6           0       14.629795    0.448135   -0.597289
     63          6           0       14.968603    0.322689    0.914698
     64          6           0       16.470113    0.009468    1.232775
     65          6           0       16.648324   -0.463456    2.625256
     66          6           0       17.374699    1.321120    0.992306
     67          1           0       -3.511424    3.587374    1.921307
     68          1           0       -9.278772    3.576259   -0.676205
     69          1           0       -9.373552   -2.781216   -0.749539
     70          1           0       -1.906884   -1.114991    2.523502
     71          1           0       -1.765721    1.833693    2.207310
     72          1           0       -3.756757    1.371504    4.143053
     73          1           0       -2.082351    1.975902    4.288705
     74          1           0       -2.490556    0.265468    4.577893
     75          1           0       -0.631853    0.755336    0.508501
     76          1           0       -1.333638   -0.569537   -0.210711
     77          1           0        0.012330   -2.083431    1.509634
     78          1           0        0.878932   -0.630386    2.022966
     79          1           0       -3.880079    6.016760    0.331570
     80          1           0       -3.971442    5.494384    1.890923
     81          1           0       -5.099108    6.695483    1.567970
     82          1           0       -6.245249    7.445623   -0.867132
     83          1           0       -7.123112    7.319448    0.731031
     84          1           0       -7.853855    8.101714   -0.633507
     85          1           0      -10.796955    1.835228   -1.410703
     86          1           0      -11.255004   -0.785044   -0.317372
     87          1           0      -11.592934    0.865592    1.312288
     88          1           0      -12.172887    2.309564    0.583284
     89          1           0      -10.692750    2.273160    1.462083
     90          1           0       -9.783728   -0.698956   -2.846991
     91          1           0      -11.417081   -0.001918   -2.977468
     92          1           0      -10.633062   -2.706243   -3.218306
     93          1           0      -12.282829   -2.196735   -3.182177
     94          1           0      -11.371121   -2.558729   -1.678378
     95          1           0       -8.607078   -4.964535   -0.265004
     96          1           0       -7.128274   -5.941420    0.033479
     97          1           0       -7.499883   -5.298914   -1.623003
     98          1           0       -2.938303   -3.534050    1.722466
     99          1           0        0.827918   -4.450132    0.560414
    100          1           0        0.016884   -4.791861   -1.059920
    101          1           0        0.066445   -5.959856    0.258706
    102          1           0        2.628450   -2.138234   -1.931278
    103          1           0        3.354561   -3.553977   -1.339551
    104          1           0        4.562087   -1.025102   -1.574975
    105          1           0        6.203922   -3.423605    1.394875
    106          1           0        6.149869   -4.423124   -0.119329
    107          1           0        4.628384   -3.949286    0.764181
    108          1           0        6.665899   -1.073696   -1.503865
    109          1           0        7.501592   -2.473007   -1.156038
    110          1           0        8.435704   -1.663294    0.954352
    111          1           0        6.917675   -1.130697    1.474421
    112          1           0        7.884812    0.894222    1.336544
    113          1           0        7.434886    0.825192   -0.438069
    114          1           0        9.687540   -0.253121   -0.734916
    115          1           0       10.798536   -0.715317    1.196679
    116          1           0       10.000826    0.662599    2.044908
    117          1           0       11.361271    0.919561    1.025258
    118          1           0       10.494393    2.498122   -0.033142
    119          1           0        9.099586    2.558242   -1.070706
    120          1           0       10.400777    1.622276   -2.751251
    121          1           0       11.448714    0.621903   -1.676759
    122          1           0       12.269584    3.237067   -0.915244
    123          1           0       11.972496    3.453314   -2.561755
    124          1           0       13.163961    0.958525   -2.602223
    125          1           0       13.626632    3.659273   -3.792049
    126          1           0       13.966392    2.031013   -4.452831
    127          1           0       15.118371    2.731967   -3.475164
    128          1           0       14.312454    2.646126   -0.401173
    129          1           0       15.471443    2.039923   -1.461113
    130          1           0       15.520286    0.048642   -1.082901
    131          1           0       13.881042   -0.232302   -1.002557
    132          1           0       14.412684   -0.516553    1.333653
    133          1           0       14.500313    1.202631    1.354700
    134          1           0       16.789959   -0.747301    0.516347
    135          1           0       17.188073   -1.410220    2.625792
    136          1           0       15.743077   -0.792582    3.134723
    137          1           0       17.268625    0.265022    3.148430
    138          1           0       17.596139    1.563424   -0.047577
    139          1           0       18.321547    1.274727    1.529577
    140          1           0       16.716201    2.128092    1.312432
 ---------------------------------------------------------------------

 SCF Done:  E(RPBE1PBE) =  -3005.35263023     A.U. after   15 cycles

 Excitation energies and oscillator strengths:

 Excited State   1:      Singlet-A      1.8762 eV  660.81 nm  f=0.3667  <S**2>=0.000
     245 -> 248       -0.18941
     246 -> 247        0.68806
 This state for optimization and/or second-order correction.
 Total Energy, E(TD-HF/TD-DFT) =  -3005.28367972
 Copying the excited state density for this state as the 1-particle RhoCI density.

 Excited State   2:      Singlet-A      2.2460 eV  552.03 nm  f=0.0717  <S**2>=0.000
     245 -> 247        0.63565
     246 -> 248        0.29904

 Excited State   3:      Singlet-A      3.0083 eV  412.14 nm  f=0.0001  <S**2>=0.000
     243 -> 247        0.31921
     244 -> 247        0.59965

 Excited State   4:      Singlet-A      3.1399 eV  394.87 nm  f=0.0029  <S**2>=0.000
     243 -> 247        0.59925
     244 -> 247       -0.33353

 Excited State   5:      Singlet-A      3.2053 eV  386.81 nm  f=0.0426  <S**2>=0.000
     240 -> 247        0.48776
     240 -> 249        0.18537
     241 -> 247       -0.35024
     246 -> 248        0.25099

 The electronic state is 1-A.
 Alpha  occ. eigenvalues --  -46.90881 -19.25395 -19.25391 -19.20100 -19.19715
 Alpha  occ. eigenvalues --  -19.19210 -19.18673 -14.41959 -14.41186 -14.39010
 Alpha  occ. eigenvalues --  -14.37995 -10.36655 -10.35504 -10.32928 -10.31760
 Alpha  occ. eigenvalues --  -10.29337 -10.28883 -10.28788 -10.28394 -10.28121
 Alpha  occ. eigenvalues --  -10.27973 -10.27737 -10.27615 -10.27501 -10.26924
 Alpha  occ. eigenvalues --  -10.26492 -10.26113 -10.26060 -10.25932 -10.25571
 Alpha  occ. eigenvalues --  -10.25521 -10.25480 -10.25461 -10.25412 -10.25084
 Alpha  occ. eigenvalues --  -10.24920 -10.24857 -10.24785 -10.24453 -10.24054
 Alpha  occ. eigenvalues --  -10.24024 -10.23885 -10.23844 -10.23718 -10.23552
 Alpha  occ. eigenvalues --  -10.23504 -10.23397 -10.23320 -10.23300 -10.23155
 Alpha  occ. eigenvalues --  -10.22979 -10.22857 -10.22765 -10.22695 -10.22492
 Alpha  occ. eigenvalues --  -10.22357 -10.22346 -10.22199 -10.22140 -10.22006
 Alpha  occ. eigenvalues --  -10.22002 -10.21883 -10.21598 -10.21589 -10.21580
 Alpha  occ. eigenvalues --  -10.21408  -3.13295  -1.86122  -1.85682  -1.85534
 Alpha  occ. eigenvalues --   -1.10602  -1.09754  -1.05482  -1.03926  -1.01687
 Alpha  occ. eigenvalues --   -1.00276  -0.99749  -0.98887  -0.98174  -0.96931
 Alpha  occ. eigenvalues --   -0.87014  -0.84266  -0.83759  -0.83324  -0.82935
 Alpha  occ. eigenvalues --   -0.82656  -0.82271  -0.81743  -0.81575  -0.81079
 Alpha  occ. eigenvalues --   -0.80537  -0.79200  -0.78158  -0.77996  -0.77238
 Alpha  occ. eigenvalues --   -0.76576  -0.76457  -0.75701  -0.75089  -0.74618
 Alpha  occ. eigenvalues --   -0.73230  -0.72382  -0.72179  -0.71491  -0.70245
 Alpha  occ. eigenvalues --   -0.69923  -0.69674  -0.69387  -0.68773  -0.68426
 Alpha  occ. eigenvalues --   -0.67302  -0.66912  -0.66442  -0.64448  -0.63287
 Alpha  occ. eigenvalues --   -0.63066  -0.62545  -0.61673  -0.60887  -0.60439
 Alpha  occ. eigenvalues --   -0.59919  -0.59494  -0.59329  -0.58911  -0.58154
 Alpha  occ. eigenvalues --   -0.57549  -0.57339  -0.56654  -0.56196  -0.54676
 Alpha  occ. eigenvalues --   -0.54449  -0.53740  -0.53206  -0.52539  -0.52349
 Alpha  occ. eigenvalues --   -0.51490  -0.50944  -0.50815  -0.50232  -0.49841
 Alpha  occ. eigenvalues --   -0.49121  -0.48572  -0.48503  -0.48447  -0.48271
 Alpha  occ. eigenvalues --   -0.47836  -0.47773  -0.47628  -0.47535  -0.47207
 Alpha  occ. eigenvalues --   -0.47051  -0.46868  -0.46714  -0.46390  -0.46258
 Alpha  occ. eigenvalues --   -0.46081  -0.45833  -0.45504  -0.45223  -0.45053
 Alpha  occ. eigenvalues --   -0.44938  -0.44695  -0.44666  -0.44525  -0.44203
 Alpha  occ. eigenvalues --   -0.44042  -0.43663  -0.43501  -0.43446  -0.43354
 Alpha  occ. eigenvalues --   -0.42857  -0.42676  -0.42581  -0.42151  -0.42052
 Alpha  occ. eigenvalues --   -0.41926  -0.41643  -0.41576  -0.41394  -0.41083
 Alpha  occ. eigenvalues --   -0.41006  -0.40778  -0.40484  -0.40358  -0.40184
 Alpha  occ. eigenvalues --   -0.40000  -0.39869  -0.39755  -0.39481  -0.39242
 Alpha  occ. eigenvalues --   -0.39024  -0.38811  -0.38751  -0.38475  -0.38271
 Alpha  occ. eigenvalues --   -0.38231  -0.38196  -0.37846  -0.37585  -0.37509
 Alpha  occ. eigenvalues --   -0.37342  -0.37212  -0.37055  -0.36929  -0.36722
 Alpha  occ. eigenvalues --   -0.36585  -0.36473  -0.36094  -0.35932  -0.35804
 Alpha  occ. eigenvalues --   -0.35596  -0.35588  -0.35379  -0.35217  -0.34999
 Alpha  occ. eigenvalues --   -0.34816  -0.34490  -0.34367  -0.33868  -0.33411
 Alpha  occ. eigenvalues --   -0.33378  -0.33006  -0.32761  -0.32699  -0.32297
 Alpha  occ. eigenvalues --   -0.32064  -0.31923  -0.31728  -0.31125  -0.30847
 Alpha  occ. eigenvalues --   -0.30732  -0.30102  -0.29620  -0.29365  -0.29114
 Alpha  occ. eigenvalues --   -0.28915  -0.28666  -0.27845  -0.26899  -0.26310
 Alpha  occ. eigenvalues --   -0.25875  -0.25703  -0.25484  -0.25120  -0.21007
 Alpha  occ. eigenvalues --   -0.18693
 Alpha virt. eigenvalues --   -0.10904  -0.05641  -0.04366  -0.01861   0.00362
 Alpha virt. eigenvalues --    0.00548   0.00950   0.01317   0.01677   0.03287
 Alpha virt. eigenvalues --    0.04000   0.04605   0.05184   0.05574   0.05814

 Mulliken charges:
               1
     1  Mg   1.008442
     2  C    0.059125
     3  C   -0.067371
     4  C   -0.051419
     5  C   -0.093335
     6  N   -0.378273
     7  C    0.082383
     8  C   -0.132964
     9  C   -0.101319
    10  C    0.042532
    11  C    0.018854
    12  C    0.004880
    13  C   -0.056679
    14  C    0.256250
    15  O   -0.262583
    16  O   -0.380752
    17  N   -0.589154
    18  C    0.193382
    19  C   -0.134713
    20  C   -0.132338
    21  C    0.192730
    22  C    0.032890
    23  C    0.088392
    24  O   -0.248449
    25  C   -0.031305
    26  N   -0.397920
    27  C    0.078325
    28  C   -0.107494
    29  C   -0.087864
    30  C    0.078933
    31  C    0.009316
    32  C   -0.023889
    33  C   -0.080498
    34  N   -0.403408
    35  C    0.133765
    36  C   -0.197085
    37  C   -0.022361
    38  C    0.107831
    39  C    0.083684
    40  C    0.117208
    41  O   -0.193261
    42  C   -0.173976
    43  C    0.284658
    44  O   -0.294017
    45  O   -0.352541
    46  C    0.113752
    47  C    0.213164
    48  C   -0.109538
    49  C   -0.247570
    50  C    0.028398
    51  C    0.023284
    52  C   -0.055284
    53  C    0.008370
    54  C   -0.229247
    55  C   -0.006923
    56  C    0.024060
    57  C   -0.086950
    58  C    0.022893
    59  C   -0.238480
    60  C   -0.010419
    61  C    0.017885
    62  C   -0.054355
    63  C   -0.027587
    64  C   -0.236478
    65  C    0.020306
    66  C   -0.047976
    67  H   -0.006305
    68  H    0.031518
    69  H   -0.007677
    70  H    0.049027
    71  H    0.041214
    72  H    0.048839
    73  H    0.042956
    74  H    0.046883
    75  H    0.050056
    76  H    0.068619
    77  H    0.061599
    78  H    0.070386
    79  H    0.059133
    80  H    0.032493
    81  H    0.057670
    82  H    0.078651
    83  H    0.057897
    84  H    0.048024
    85  H    0.051994
    86  H    0.038995
    87  H    0.027350
    88  H    0.048412
    89  H    0.047411
    90  H    0.047256
    91  H    0.049631
    92  H    0.040919
    93  H    0.048572
    94  H    0.036129
    95  H    0.040592
    96  H    0.069832
    97  H    0.069239
    98  H    0.080072
    99  H    0.064541
   100  H    0.074066
   101  H    0.048443
   102  H    0.054809
   103  H    0.051563
   104  H    0.031472
   105  H    0.052080
   106  H    0.056482
   107  H    0.050695
   108  H    0.021837
   109  H    0.031607
   110  H    0.025931
   111  H    0.039419
   112  H    0.025873
   113  H    0.033411
   114  H    0.033139
   115  H    0.037804
   116  H    0.028576
   117  H    0.031184
   118  H    0.015774
   119  H    0.027411
   120  H    0.044233
   121  H    0.048906
   122  H    0.024865
   123  H    0.014915
   124  H    0.039688
   125  H    0.041308
   126  H    0.029186
   127  H    0.018999
   128  H    0.020849
   129  H    0.016153
   130  H    0.015371
   131  H    0.019720
   132  H    0.021547
   133  H    0.031039
   134  H    0.037221
   135  H    0.023853
   136  H    0.030009
   137  H    0.036857
   138  H    0.039046
   139  H    0.045042
   140  H    0.037774
 Sum of Mulliken charges =  -0.00000

 Dipole moment (field-independent basis, Debye):
    X=              2.0456    Y=              1.2954    Z=              3.7362  Tot=              4.4521
 Quadrupole moment (field-independent basis, Debye-Ang):
   XX=           -362.6660   YY=           -403.4173   ZZ=           -399.4475
   XY=             -4.8444   XZ=             -9.8806   YZ=              9.7505

 Normal termination of Gaussian 16 at Fri Apr 29 06:23:06 2022.
