 Gaussian 16, Revision A.03,
 Gaussian 16:  ES64L-G16RevA.03 25-Dec-2016

 --------------------------------
 #p wB97XD/Def2SVP td=(nstates=5)
 --------------------------------

 --------------------------------------------------
 step_1_chromophore_22 TDDFT with wB97XD functional
 --------------------------------------------------
 Symbolic Z-matrix:
 Charge =  0 Multiplicity = 1

                         Standard orientation:
 ---------------------------------------------------------------------
 Center     Atomic      Atomic             Coordinates (Angstroms)
 Number     Number       Type             X           Y           Z
 ---------------------------------------------------------------------
      1         12           0       -6.221855    0.611053    0.086255
      2          6           0       -3.896809   -1.960816    0.629140
      3          6           0       -4.202835    2.836702    1.532475
      4          6           0       -8.521336    2.829356   -0.428662
      5          6           0       -8.626495   -2.032379   -0.478241
      6          7           0       -4.314742    0.379148    1.061665
      7          6           0       -3.470086   -0.659497    1.037497
      8          6           0       -2.194619   -0.366562    1.784628
      9          6           0       -2.492488    1.049886    2.421585
     10          6           0       -3.718678    1.464846    1.631736
     11          6           0       -2.705839    1.141737    3.967417
     12          6           0       -0.952164   -0.256135    0.761134
     13          6           0        0.301011   -1.075220    1.213242
     14          6           0        1.399353   -1.191602    0.023080
     15          8           0        1.581604   -0.344613   -0.839571
     16          8           0        2.174701   -2.344526    0.123156
     17          7           0       -6.242226    2.547170    0.260094
     18          6           0       -5.282793    3.346663    0.857639
     19          6           0       -5.586171    4.719885    0.562197
     20          6           0       -6.890720    4.808450   -0.075717
     21          6           0       -7.259392    3.348812   -0.227009
     22          6           0       -4.635513    5.830755    1.093756
     23          6           0       -7.788796    5.934058   -0.576098
     24          8           0       -8.862035    5.804013   -1.192140
     25          6           0       -7.193253    7.279605   -0.356665
     26          7           0       -8.286070    0.340587   -0.226872
     27          6           0       -8.988613    1.507406   -0.400674
     28          6           0      -10.483138    1.227213   -0.562110
     29          6           0      -10.474512   -0.288197   -0.893559
     30          6           0       -9.074387   -0.724031   -0.457208
     31          6           0      -11.266801    1.719576    0.718748
     32          6           0      -10.779307   -0.674159   -2.403097
     33          6           0      -11.333286   -2.085032   -2.658334
     34          7           0       -6.292534   -1.561971    0.029540
     35          6           0       -7.316199   -2.427952   -0.209599
     36          6           0       -6.842522   -3.792403   -0.274434
     37          6           0       -5.471125   -3.616117   -0.014404
     38          6           0       -5.191863   -2.263240    0.226314
     39          6           0       -7.567645   -5.130071   -0.548345
     40          6           0       -4.233978   -4.337865    0.092922
     41          8           0       -3.907872   -5.464882   -0.173679
     42          6           0       -3.178662   -3.270745    0.692266
     43          6           0       -2.004018   -3.555147   -0.136229
     44          8           0       -1.730411   -3.140555   -1.290915
     45          8           0       -1.253782   -4.391153    0.602075
     46          6           0       -0.008409   -4.898117    0.024072
     47          6           0        3.105188   -2.536756   -1.035614
     48          6           0        4.416606   -1.838203   -0.864578
     49          6           0        5.532468   -2.385051   -0.360139
     50          6           0        5.647590   -3.673907    0.491684
     51          6           0        6.873593   -1.732919   -0.661494
     52          6           0        7.582310   -1.077255    0.611963
     53          6           0        8.049818    0.423103    0.367131
     54          6           0        9.521331    0.575816   -0.047579
     55          6           0       10.457865    0.317090    1.117823
     56          6           0        9.901576    1.904446   -0.727544
     57          6           0       10.968179    1.590240   -1.821387
     58          6           0       12.159626    2.663634   -1.835138
     59          6           0       13.438886    1.965867   -2.290787
     60          6           0       14.034689    2.671886   -3.574278
     61          6           0       14.445596    1.856319   -1.140697
     62          6           0       14.629795    0.448135   -0.597289
     63          6           0       14.968603    0.322689    0.914698
     64          6           0       16.470113    0.009468    1.232775
     65          6           0       16.648324   -0.463456    2.625256
     66          6           0       17.374699    1.321120    0.992306
     67          1           0       -3.511424    3.587374    1.921307
     68          1           0       -9.278772    3.576259   -0.676205
     69          1           0       -9.373552   -2.781216   -0.749539
     70          1           0       -1.906884   -1.114991    2.523502
     71          1           0       -1.765721    1.833693    2.207310
     72          1           0       -3.756757    1.371504    4.143053
     73          1           0       -2.082351    1.975902    4.288705
     74          1           0       -2.490556    0.265468    4.577893
     75          1           0       -0.631853    0.755336    0.508501
     76          1           0       -1.333638   -0.569537   -0.210711
     77          1           0        0.012330   -2.083431    1.509634
     78          1           0        0.878932   -0.630386    2.022966
     79          1           0       -3.880079    6.016760    0.331570
     80          1           0       -3.971442    5.494384    1.890923
     81          1           0       -5.099108    6.695483    1.567970
     82          1           0       -6.245249    7.445623   -0.867132
     83          1           0       -7.123112    7.319448    0.731031
     84          1           0       -7.853855    8.101714   -0.633507
     85          1           0      -10.796955    1.835228   -1.410703
     86          1           0      -11.255004   -0.785044   -0.317372
     87          1           0      -11.592934    0.865592    1.312288
     88          1           0      -12.172887    2.309564    0.583284
     89          1           0      -10.692750    2.273160    1.462083
     90          1           0       -9.783728   -0.698956   -2.846991
     91          1           0      -11.417081   -0.001918   -2.977468
     92          1           0      -10.633062   -2.706243   -3.218306
     93          1           0      -12.282829   -2.196735   -3.182177
     94          1           0      -11.371121   -2.558729   -1.678378
     95          1           0       -8.607078   -4.964535   -0.265004
     96          1           0       -7.128274   -5.941420    0.033479
     97          1           0       -7.499883   -5.298914   -1.623003
     98          1           0       -2.938303   -3.534050    1.722466
     99          1           0        0.827918   -4.450132    0.560414
    100          1           0        0.016884   -4.791861   -1.059920
    101          1           0        0.066445   -5.959856    0.258706
    102          1           0        2.628450   -2.138234   -1.931278
    103          1           0        3.354561   -3.553977   -1.339551
    104          1           0        4.562087   -1.025102   -1.574975
    105          1           0        6.203922   -3.423605    1.394875
    106          1           0        6.149869   -4.423124   -0.119329
    107          1           0        4.628384   -3.949286    0.764181
    108          1           0        6.665899   -1.073696   -1.503865
    109          1           0        7.501592   -2.473007   -1.156038
    110          1           0        8.435704   -1.663294    0.954352
    111          1           0        6.917675   -1.130697    1.474421
    112          1           0        7.884812    0.894222    1.336544
    113          1           0        7.434886    0.825192   -0.438069
    114          1           0        9.687540   -0.253121   -0.734916
    115          1           0       10.798536   -0.715317    1.196679
    116          1           0       10.000826    0.662599    2.044908
    117          1           0       11.361271    0.919561    1.025258
    118          1           0       10.494393    2.498122   -0.033142
    119          1           0        9.099586    2.558242   -1.070706
    120          1           0       10.400777    1.622276   -2.751251
    121          1           0       11.448714    0.621903   -1.676759
    122          1           0       12.269584    3.237067   -0.915244
    123          1           0       11.972496    3.453314   -2.561755
    124          1           0       13.163961    0.958525   -2.602223
    125          1           0       13.626632    3.659273   -3.792049
    126          1           0       13.966392    2.031013   -4.452831
    127          1           0       15.118371    2.731967   -3.475164
    128          1           0       14.312454    2.646126   -0.401173
    129          1           0       15.471443    2.039923   -1.461113
    130          1           0       15.520286    0.048642   -1.082901
    131          1           0       13.881042   -0.232302   -1.002557
    132          1           0       14.412684   -0.516553    1.333653
    133          1           0       14.500313    1.202631    1.354700
    134          1           0       16.789959   -0.747301    0.516347
    135          1           0       17.188073   -1.410220    2.625792
    136          1           0       15.743077   -0.792582    3.134723
    137          1           0       17.268625    0.265022    3.148430
    138          1           0       17.596139    1.563424   -0.047577
    139          1           0       18.321547    1.274727    1.529577
    140          1           0       16.716201    2.128092    1.312432
 ---------------------------------------------------------------------

 SCF Done:  E(RwB97XD) =  -3007.86176000     A.U. after   18 cycles

 Excitation energies and oscillator strengths:

 Excited State   1:      Singlet-A      1.6715 eV  741.76 nm  f=0.3718  <S**2>=0.000
     245 -> 248       -0.20300
     246 -> 247        0.67879
     245 <- 248       -0.11995
 This state for optimization and/or second-order correction.
 Total Energy, E(TD-HF/TD-DFT) =  -3007.80033379
 Copying the excited state density for this state as the 1-particle RhoCI density.

 Excited State   2:      Singlet-A      2.1930 eV  565.35 nm  f=0.0648  <S**2>=0.000
     245 -> 247        0.61608
     246 -> 248        0.33567

 Excited State   3:      Singlet-A      3.4199 eV  362.54 nm  f=0.4563  <S**2>=0.000
     243 -> 247       -0.11431
     244 -> 247       -0.31492
     245 -> 247       -0.26170
     246 -> 248        0.53804
     245 <- 247        0.10089

 Excited State   4:      Singlet-A      3.4701 eV  357.29 nm  f=0.1391  <S**2>=0.000
     241 -> 247        0.20271
     244 -> 247        0.57704
     245 -> 247       -0.13904
     246 -> 248        0.24010

 Excited State   5:      Singlet-A      3.6204 eV  342.46 nm  f=0.0449  <S**2>=0.000
     241 -> 247        0.18546
     241 -> 249       -0.14823
     241 -> 250       -0.14108
     242 -> 247        0.39276
     242 -> 249       -0.13335
     242 -> 250       -0.13720
     243 -> 247        0.38955
     243 -> 249       -0.11664
     243 -> 250       -0.12094

 The electronic state is 1-A.
 Alpha  occ. eigenvalues --  -46.93815 -19.29965 -19.29937 -19.24725 -19.24639
 Alpha  occ. eigenvalues --  -19.23987 -19.23402 -14.47081 -14.46218 -14.43991
 Alpha  occ. eigenvalues --  -14.42900 -10.43396 -10.42381 -10.39895 -10.38582
 Alpha  occ. eigenvalues --  -10.35661 -10.35301 -10.35098 -10.34738 -10.34578
 Alpha  occ. eigenvalues --  -10.34270 -10.34156 -10.34155 -10.34054 -10.33119
 Alpha  occ. eigenvalues --  -10.32723 -10.32595 -10.32366 -10.32304 -10.31891
 Alpha  occ. eigenvalues --  -10.31793 -10.31693 -10.31692 -10.31675 -10.31573
 Alpha  occ. eigenvalues --  -10.31525 -10.31264 -10.31108 -10.30778 -10.30441
 Alpha  occ. eigenvalues --  -10.30275 -10.30268 -10.30166 -10.29992 -10.29954
 Alpha  occ. eigenvalues --  -10.29915 -10.29835 -10.29773 -10.29681 -10.29656
 Alpha  occ. eigenvalues --  -10.29239 -10.29138 -10.29117 -10.29048 -10.28852
 Alpha  occ. eigenvalues --  -10.28706 -10.28701 -10.28623 -10.28384 -10.28353
 Alpha  occ. eigenvalues --  -10.28346 -10.28250 -10.28028 -10.27988 -10.27960
 Alpha  occ. eigenvalues --  -10.27833  -3.20059  -1.93641  -1.93203  -1.93048
 Alpha  occ. eigenvalues --   -1.18019  -1.17114  -1.12922  -1.11536  -1.09006
 Alpha  occ. eigenvalues --   -1.07690  -1.07102  -1.06213  -1.05516  -1.04370
 Alpha  occ. eigenvalues --   -0.94605  -0.91933  -0.91421  -0.90960  -0.90593
 Alpha  occ. eigenvalues --   -0.90268  -0.89814  -0.89329  -0.89228  -0.88836
 Alpha  occ. eigenvalues --   -0.88142  -0.86853  -0.85799  -0.85629  -0.84900
 Alpha  occ. eigenvalues --   -0.84294  -0.84151  -0.83294  -0.82740  -0.82261
 Alpha  occ. eigenvalues --   -0.80896  -0.80087  -0.79842  -0.79081  -0.77859
 Alpha  occ. eigenvalues --   -0.77593  -0.77263  -0.77091  -0.76438  -0.76100
 Alpha  occ. eigenvalues --   -0.74848  -0.74499  -0.73975  -0.72072  -0.70882
 Alpha  occ. eigenvalues --   -0.70588  -0.70158  -0.69209  -0.68516  -0.67941
 Alpha  occ. eigenvalues --   -0.67378  -0.67155  -0.66780  -0.66339  -0.65791
 Alpha  occ. eigenvalues --   -0.65059  -0.64928  -0.64278  -0.63606  -0.62166
 Alpha  occ. eigenvalues --   -0.61889  -0.61117  -0.60578  -0.59909  -0.59845
 Alpha  occ. eigenvalues --   -0.59043  -0.58448  -0.58238  -0.57698  -0.57262
 Alpha  occ. eigenvalues --   -0.56536  -0.56006  -0.55947  -0.55833  -0.55623
 Alpha  occ. eigenvalues --   -0.55272  -0.55205  -0.55136  -0.54986  -0.54531
 Alpha  occ. eigenvalues --   -0.54437  -0.54273  -0.54102  -0.53756  -0.53620
 Alpha  occ. eigenvalues --   -0.53397  -0.53175  -0.52895  -0.52693  -0.52411
 Alpha  occ. eigenvalues --   -0.52209  -0.52052  -0.52029  -0.51899  -0.51520
 Alpha  occ. eigenvalues --   -0.51371  -0.50989  -0.50799  -0.50729  -0.50678
 Alpha  occ. eigenvalues --   -0.50143  -0.50003  -0.49937  -0.49415  -0.49272
 Alpha  occ. eigenvalues --   -0.49149  -0.48890  -0.48798  -0.48595  -0.48296
 Alpha  occ. eigenvalues --   -0.48224  -0.47999  -0.47740  -0.47529  -0.47375
 Alpha  occ. eigenvalues --   -0.47209  -0.47044  -0.46894  -0.46697  -0.46454
 Alpha  occ. eigenvalues --   -0.46200  -0.45962  -0.45855  -0.45579  -0.45443
 Alpha  occ. eigenvalues --   -0.45381  -0.45321  -0.44925  -0.44699  -0.44649
 Alpha  occ. eigenvalues --   -0.44514  -0.44323  -0.44211  -0.44084  -0.43853
 Alpha  occ. eigenvalues --   -0.43706  -0.43563  -0.43138  -0.43055  -0.42904
 Alpha  occ. eigenvalues --   -0.42673  -0.42604  -0.42367  -0.42324  -0.42074
 Alpha  occ. eigenvalues --   -0.41768  -0.41533  -0.41455  -0.40917  -0.40448
 Alpha  occ. eigenvalues --   -0.40366  -0.40057  -0.39771  -0.39643  -0.39252
 Alpha  occ. eigenvalues --   -0.39139  -0.38931  -0.38702  -0.38144  -0.37833
 Alpha  occ. eigenvalues --   -0.37653  -0.37118  -0.36613  -0.36068  -0.35933
 Alpha  occ. eigenvalues --   -0.35821  -0.35692  -0.34933  -0.33627  -0.33431
 Alpha  occ. eigenvalues --   -0.32535  -0.32421  -0.32351  -0.31681  -0.26020
 Alpha  occ. eigenvalues --   -0.22839
 Alpha virt. eigenvalues --   -0.06687  -0.00297   0.01848   0.04646   0.06436
 Alpha virt. eigenvalues --    0.07071   0.07596   0.08109   0.08542   0.09663
 Alpha virt. eigenvalues --    0.10561   0.11440   0.11834   0.12334   0.12470

 Mulliken charges:
               1
     1  Mg   0.995253
     2  C    0.048223
     3  C   -0.082124
     4  C   -0.069032
     5  C   -0.109017
     6  N   -0.341630
     7  C    0.047780
     8  C   -0.105357
     9  C   -0.076186
    10  C    0.029641
    11  C    0.026887
    12  C    0.009247
    13  C   -0.030991
    14  C    0.243806
    15  O   -0.261356
    16  O   -0.380140
    17  N   -0.559343
    18  C    0.189826
    19  C   -0.125942
    20  C   -0.130605
    21  C    0.181677
    22  C    0.043674
    23  C    0.089307
    24  O   -0.240829
    25  C   -0.020871
    26  N   -0.364117
    27  C    0.073283
    28  C   -0.083726
    29  C   -0.059543
    30  C    0.063248
    31  C    0.017298
    32  C   -0.011360
    33  C   -0.064782
    34  N   -0.360154
    35  C    0.130656
    36  C   -0.202946
    37  C   -0.018102
    38  C    0.092148
    39  C    0.097798
    40  C    0.101603
    41  O   -0.185278
    42  C   -0.132301
    43  C    0.258080
    44  O   -0.285659
    45  O   -0.350150
    46  C    0.130595
    47  C    0.233607
    48  C   -0.122259
    49  C   -0.235344
    50  C    0.042935
    51  C    0.039395
    52  C   -0.040790
    53  C    0.025524
    54  C   -0.195976
    55  C    0.004473
    56  C    0.042482
    57  C   -0.065577
    58  C    0.032401
    59  C   -0.204613
    60  C    0.003473
    61  C    0.033138
    62  C   -0.036242
    63  C   -0.012723
    64  C   -0.204215
    65  C    0.029857
    66  C   -0.034704
    67  H   -0.013609
    68  H    0.026497
    69  H   -0.019597
    70  H    0.038224
    71  H    0.030507
    72  H    0.042012
    73  H    0.037904
    74  H    0.042556
    75  H    0.044020
    76  H    0.059379
    77  H    0.047643
    78  H    0.065146
    79  H    0.055200
    80  H    0.028195
    81  H    0.053886
    82  H    0.074977
    83  H    0.050106
    84  H    0.047307
    85  H    0.043246
    86  H    0.027114
    87  H    0.021053
    88  H    0.043840
    89  H    0.041000
    90  H    0.036579
    91  H    0.043158
    92  H    0.035184
    93  H    0.044434
    94  H    0.027465
    95  H    0.034056
    96  H    0.066010
    97  H    0.064267
    98  H    0.073428
    99  H    0.057350
   100  H    0.070887
   101  H    0.045236
   102  H    0.050082
   103  H    0.046505
   104  H    0.028558
   105  H    0.046090
   106  H    0.051223
   107  H    0.045011
   108  H    0.012901
   109  H    0.024059
   110  H    0.016689
   111  H    0.030933
   112  H    0.017108
   113  H    0.023846
   114  H    0.016988
   115  H    0.032982
   116  H    0.022237
   117  H    0.020601
   118  H    0.001487
   119  H    0.022584
   120  H    0.036857
   121  H    0.032732
   122  H    0.015779
   123  H    0.005967
   124  H    0.025283
   125  H    0.035324
   126  H    0.023687
   127  H    0.012100
   128  H    0.011416
   129  H    0.003073
   130  H    0.004092
   131  H    0.010961
   132  H    0.012339
   133  H    0.020709
   134  H    0.026379
   135  H    0.018323
   136  H    0.024778
   137  H    0.030684
   138  H    0.032907
   139  H    0.039715
   140  H    0.029013
 Sum of Mulliken charges =  -0.00000

 Dipole moment (field-independent basis, Debye):
    X=              2.0955    Y=              1.6005    Z=              3.7734  Tot=              4.6034
 Quadrupole moment (field-independent basis, Debye-Ang):
   XX=           -364.3483   YY=           -400.8030   ZZ=           -399.1957
   XY=             -7.1976   XZ=            -10.0122   YZ=              9.6799

 Normal termination of Gaussian 16 at Fri Apr 29 06:50:39 2022.
