 Gaussian 16, Revision A.03,
 Gaussian 16:  ES64L-G16RevA.03 25-Dec-2016

 --------------------
 #p ZINDO=(nstates=5)
 --------------------

 ---------------------------
 step_1_chromophore_22 ZINDO
 ---------------------------
 Symbolic Z-matrix:
 Charge =  0 Multiplicity = 1

                         Standard orientation:
 ---------------------------------------------------------------------
 Center     Atomic      Atomic             Coordinates (Angstroms)
 Number     Number       Type             X           Y           Z
 ---------------------------------------------------------------------
      1         12           0       -6.221855    0.611053    0.086255
      2          6           0       -3.896809   -1.960816    0.629140
      3          6           0       -4.202835    2.836702    1.532475
      4          6           0       -8.521336    2.829356   -0.428662
      5          6           0       -8.626495   -2.032379   -0.478241
      6          7           0       -4.314742    0.379148    1.061665
      7          6           0       -3.470086   -0.659497    1.037497
      8          6           0       -2.194619   -0.366562    1.784628
      9          6           0       -2.492488    1.049886    2.421585
     10          6           0       -3.718678    1.464846    1.631736
     11          6           0       -2.705839    1.141737    3.967417
     12          6           0       -0.952164   -0.256135    0.761134
     13          6           0        0.301011   -1.075220    1.213242
     14          6           0        1.399353   -1.191602    0.023080
     15          8           0        1.581604   -0.344613   -0.839571
     16          8           0        2.174701   -2.344526    0.123156
     17          7           0       -6.242226    2.547170    0.260094
     18          6           0       -5.282793    3.346663    0.857639
     19          6           0       -5.586171    4.719885    0.562197
     20          6           0       -6.890720    4.808450   -0.075717
     21          6           0       -7.259392    3.348812   -0.227009
     22          6           0       -4.635513    5.830755    1.093756
     23          6           0       -7.788796    5.934058   -0.576098
     24          8           0       -8.862035    5.804013   -1.192140
     25          6           0       -7.193253    7.279605   -0.356665
     26          7           0       -8.286070    0.340587   -0.226872
     27          6           0       -8.988613    1.507406   -0.400674
     28          6           0      -10.483138    1.227213   -0.562110
     29          6           0      -10.474512   -0.288197   -0.893559
     30          6           0       -9.074387   -0.724031   -0.457208
     31          6           0      -11.266801    1.719576    0.718748
     32          6           0      -10.779307   -0.674159   -2.403097
     33          6           0      -11.333286   -2.085032   -2.658334
     34          7           0       -6.292534   -1.561971    0.029540
     35          6           0       -7.316199   -2.427952   -0.209599
     36          6           0       -6.842522   -3.792403   -0.274434
     37          6           0       -5.471125   -3.616117   -0.014404
     38          6           0       -5.191863   -2.263240    0.226314
     39          6           0       -7.567645   -5.130071   -0.548345
     40          6           0       -4.233978   -4.337865    0.092922
     41          8           0       -3.907872   -5.464882   -0.173679
     42          6           0       -3.178662   -3.270745    0.692266
     43          6           0       -2.004018   -3.555147   -0.136229
     44          8           0       -1.730411   -3.140555   -1.290915
     45          8           0       -1.253782   -4.391153    0.602075
     46          6           0       -0.008409   -4.898117    0.024072
     47          6           0        3.105188   -2.536756   -1.035614
     48          6           0        4.416606   -1.838203   -0.864578
     49          6           0        5.532468   -2.385051   -0.360139
     50          6           0        5.647590   -3.673907    0.491684
     51          6           0        6.873593   -1.732919   -0.661494
     52          6           0        7.582310   -1.077255    0.611963
     53          6           0        8.049818    0.423103    0.367131
     54          6           0        9.521331    0.575816   -0.047579
     55          6           0       10.457865    0.317090    1.117823
     56          6           0        9.901576    1.904446   -0.727544
     57          6           0       10.968179    1.590240   -1.821387
     58          6           0       12.159626    2.663634   -1.835138
     59          6           0       13.438886    1.965867   -2.290787
     60          6           0       14.034689    2.671886   -3.574278
     61          6           0       14.445596    1.856319   -1.140697
     62          6           0       14.629795    0.448135   -0.597289
     63          6           0       14.968603    0.322689    0.914698
     64          6           0       16.470113    0.009468    1.232775
     65          6           0       16.648324   -0.463456    2.625256
     66          6           0       17.374699    1.321120    0.992306
     67          1           0       -3.511424    3.587374    1.921307
     68          1           0       -9.278772    3.576259   -0.676205
     69          1           0       -9.373552   -2.781216   -0.749539
     70          1           0       -1.906884   -1.114991    2.523502
     71          1           0       -1.765721    1.833693    2.207310
     72          1           0       -3.756757    1.371504    4.143053
     73          1           0       -2.082351    1.975902    4.288705
     74          1           0       -2.490556    0.265468    4.577893
     75          1           0       -0.631853    0.755336    0.508501
     76          1           0       -1.333638   -0.569537   -0.210711
     77          1           0        0.012330   -2.083431    1.509634
     78          1           0        0.878932   -0.630386    2.022966
     79          1           0       -3.880079    6.016760    0.331570
     80          1           0       -3.971442    5.494384    1.890923
     81          1           0       -5.099108    6.695483    1.567970
     82          1           0       -6.245249    7.445623   -0.867132
     83          1           0       -7.123112    7.319448    0.731031
     84          1           0       -7.853855    8.101714   -0.633507
     85          1           0      -10.796955    1.835228   -1.410703
     86          1           0      -11.255004   -0.785044   -0.317372
     87          1           0      -11.592934    0.865592    1.312288
     88          1           0      -12.172887    2.309564    0.583284
     89          1           0      -10.692750    2.273160    1.462083
     90          1           0       -9.783728   -0.698956   -2.846991
     91          1           0      -11.417081   -0.001918   -2.977468
     92          1           0      -10.633062   -2.706243   -3.218306
     93          1           0      -12.282829   -2.196735   -3.182177
     94          1           0      -11.371121   -2.558729   -1.678378
     95          1           0       -8.607078   -4.964535   -0.265004
     96          1           0       -7.128274   -5.941420    0.033479
     97          1           0       -7.499883   -5.298914   -1.623003
     98          1           0       -2.938303   -3.534050    1.722466
     99          1           0        0.827918   -4.450132    0.560414
    100          1           0        0.016884   -4.791861   -1.059920
    101          1           0        0.066445   -5.959856    0.258706
    102          1           0        2.628450   -2.138234   -1.931278
    103          1           0        3.354561   -3.553977   -1.339551
    104          1           0        4.562087   -1.025102   -1.574975
    105          1           0        6.203922   -3.423605    1.394875
    106          1           0        6.149869   -4.423124   -0.119329
    107          1           0        4.628384   -3.949286    0.764181
    108          1           0        6.665899   -1.073696   -1.503865
    109          1           0        7.501592   -2.473007   -1.156038
    110          1           0        8.435704   -1.663294    0.954352
    111          1           0        6.917675   -1.130697    1.474421
    112          1           0        7.884812    0.894222    1.336544
    113          1           0        7.434886    0.825192   -0.438069
    114          1           0        9.687540   -0.253121   -0.734916
    115          1           0       10.798536   -0.715317    1.196679
    116          1           0       10.000826    0.662599    2.044908
    117          1           0       11.361271    0.919561    1.025258
    118          1           0       10.494393    2.498122   -0.033142
    119          1           0        9.099586    2.558242   -1.070706
    120          1           0       10.400777    1.622276   -2.751251
    121          1           0       11.448714    0.621903   -1.676759
    122          1           0       12.269584    3.237067   -0.915244
    123          1           0       11.972496    3.453314   -2.561755
    124          1           0       13.163961    0.958525   -2.602223
    125          1           0       13.626632    3.659273   -3.792049
    126          1           0       13.966392    2.031013   -4.452831
    127          1           0       15.118371    2.731967   -3.475164
    128          1           0       14.312454    2.646126   -0.401173
    129          1           0       15.471443    2.039923   -1.461113
    130          1           0       15.520286    0.048642   -1.082901
    131          1           0       13.881042   -0.232302   -1.002557
    132          1           0       14.412684   -0.516553    1.333653
    133          1           0       14.500313    1.202631    1.354700
    134          1           0       16.789959   -0.747301    0.516347
    135          1           0       17.188073   -1.410220    2.625792
    136          1           0       15.743077   -0.792582    3.134723
    137          1           0       17.268625    0.265022    3.148430
    138          1           0       17.596139    1.563424   -0.047577
    139          1           0       18.321547    1.274727    1.529577
    140          1           0       16.716201    2.128092    1.312432
 ---------------------------------------------------------------------

 SCF Done:  E(RZINDO/S) =  -474.216416491     A.U. after   20 cycles

 Excitation energies and oscillator strengths:

 Excited State   1:      Singlet-A      1.2551 eV  987.85 nm  f=0.5772  <S**2>=0.000
     175 ->178         0.20441
     176 ->177         0.65959
 This state for optimization and/or second-order correction.
 Total Energy, E(CIS/TDA) =  -474.170292707
 Copying the excited state density for this state as the 1-particle RhoCI density.

 Excited State   2:      Singlet-A      1.8901 eV  655.98 nm  f=0.0067  <S**2>=0.000
     175 ->177         0.50364
     176 ->178        -0.47550

 Excited State   3:      Singlet-A      2.9062 eV  426.62 nm  f=0.0304  <S**2>=0.000
     170 ->177        -0.10034
     170 ->180        -0.12071
     176 ->179         0.62086

 Excited State   4:      Singlet-A      2.9618 eV  418.62 nm  f=0.7970  <S**2>=0.000
     170 ->177         0.11451
     170 ->179         0.11775
     170 ->180         0.13980
     171 ->177         0.12082
     175 ->177         0.37912
     176 ->178         0.41779
     176 ->179         0.16012
     176 ->180        -0.12230

 Excited State   5:      Singlet-A      3.0160 eV  411.09 nm  f=0.3640  <S**2>=0.000
     170 ->177        -0.27628
     170 ->178         0.11313
     170 ->179        -0.23205
     170 ->180        -0.32511
     170 ->185        -0.15057
     170 ->187        -0.14966
     175 ->177         0.22187
     176 ->178         0.24460
     176 ->179        -0.12166

 The electronic state is 1-A.
 Alpha  occ. eigenvalues --   -1.86020  -1.81662  -1.81294  -1.73994  -1.71553
 Alpha  occ. eigenvalues --   -1.69532  -1.65454  -1.60464  -1.58550  -1.57358
 Alpha  occ. eigenvalues --   -1.54617  -1.51307  -1.48241  -1.46770  -1.45955
 Alpha  occ. eigenvalues --   -1.42725  -1.41238  -1.39880  -1.39179  -1.38053
 Alpha  occ. eigenvalues --   -1.36096  -1.32667  -1.32540  -1.31619  -1.27479
 Alpha  occ. eigenvalues --   -1.25826  -1.25566  -1.23414  -1.20498  -1.18925
 Alpha  occ. eigenvalues --   -1.18056  -1.15703  -1.15104  -1.13488  -1.12567
 Alpha  occ. eigenvalues --   -1.12413  -1.11695  -1.10592  -1.05651  -1.03403
 Alpha  occ. eigenvalues --   -1.02572  -1.01613  -0.99001  -0.98013  -0.97374
 Alpha  occ. eigenvalues --   -0.96218  -0.94852  -0.93686  -0.92408  -0.91725
 Alpha  occ. eigenvalues --   -0.90450  -0.89929  -0.88344  -0.88165  -0.86705
 Alpha  occ. eigenvalues --   -0.86369  -0.84044  -0.83131  -0.81860  -0.79937
 Alpha  occ. eigenvalues --   -0.79193  -0.77411  -0.76557  -0.76320  -0.75620
 Alpha  occ. eigenvalues --   -0.75087  -0.74590  -0.74017  -0.73495  -0.73234
 Alpha  occ. eigenvalues --   -0.72782  -0.72291  -0.71945  -0.71703  -0.71199
 Alpha  occ. eigenvalues --   -0.70243  -0.69244  -0.68754  -0.68133  -0.67995
 Alpha  occ. eigenvalues --   -0.67722  -0.67351  -0.66711  -0.66302  -0.66118
 Alpha  occ. eigenvalues --   -0.65255  -0.64449  -0.64285  -0.64114  -0.63313
 Alpha  occ. eigenvalues --   -0.62870  -0.62765  -0.62436  -0.62091  -0.61664
 Alpha  occ. eigenvalues --   -0.61173  -0.60900  -0.60747  -0.60227  -0.59845
 Alpha  occ. eigenvalues --   -0.59586  -0.58826  -0.58680  -0.58385  -0.57870
 Alpha  occ. eigenvalues --   -0.57693  -0.57314  -0.56782  -0.56581  -0.55883
 Alpha  occ. eigenvalues --   -0.55470  -0.55226  -0.54899  -0.54837  -0.54065
 Alpha  occ. eigenvalues --   -0.53829  -0.53589  -0.53228  -0.52898  -0.52809
 Alpha  occ. eigenvalues --   -0.52403  -0.52139  -0.51940  -0.51630  -0.51436
 Alpha  occ. eigenvalues --   -0.51091  -0.50865  -0.50520  -0.50361  -0.50009
 Alpha  occ. eigenvalues --   -0.49707  -0.49620  -0.49233  -0.49099  -0.48739
 Alpha  occ. eigenvalues --   -0.48531  -0.48421  -0.47997  -0.47545  -0.47123
 Alpha  occ. eigenvalues --   -0.46924  -0.46830  -0.46749  -0.46289  -0.46159
 Alpha  occ. eigenvalues --   -0.45838  -0.45679  -0.45609  -0.45422  -0.45241
 Alpha  occ. eigenvalues --   -0.44986  -0.44939  -0.44908  -0.44447  -0.43842
 Alpha  occ. eigenvalues --   -0.43826  -0.43729  -0.42768  -0.42103  -0.42000
 Alpha  occ. eigenvalues --   -0.41190  -0.41101  -0.40205  -0.39227  -0.38242
 Alpha  occ. eigenvalues --   -0.37733  -0.36545  -0.35921  -0.35088  -0.34441
 Alpha  occ. eigenvalues --   -0.33532  -0.32379  -0.32280  -0.32129  -0.26618
 Alpha  occ. eigenvalues --   -0.21560
 Alpha virt. eigenvalues --   -0.08141  -0.02558  -0.00916   0.01257   0.02619
 Alpha virt. eigenvalues --    0.02695   0.02947   0.03279   0.04856   0.05052
 Alpha virt. eigenvalues --    0.06257   0.06473   0.07430   0.07834   0.08286

 Mulliken charges:
               1
     1  Mg   0.426613
     2  C   -0.038327
     3  C   -0.081452
     4  C   -0.063261
     5  C   -0.068450
     6  N   -0.259963
     7  C    0.115530
     8  C    0.004809
     9  C    0.003272
    10  C    0.132922
    11  C   -0.051074
    12  C   -0.030709
    13  C    0.008048
    14  C    0.454055
    15  O   -0.502915
    16  O   -0.271716
    17  N   -0.336310
    18  C    0.119462
    19  C    0.018558
    20  C   -0.055544
    21  C    0.136907
    22  C   -0.053740
    23  C    0.342917
    24  O   -0.522063
    25  C   -0.029568
    26  N   -0.269564
    27  C    0.149204
    28  C    0.006915
    29  C    0.009242
    30  C    0.120687
    31  C   -0.052113
    32  C   -0.031173
    33  C   -0.061914
    34  N   -0.323342
    35  C    0.103789
    36  C    0.008362
    37  C   -0.056605
    38  C    0.114645
    39  C   -0.034606
    40  C    0.332815
    41  O   -0.508601
    42  C    0.053411
    43  C    0.499791
    44  O   -0.553562
    45  O   -0.262752
    46  C    0.070467
    47  C    0.102335
    48  C   -0.092323
    49  C    0.001897
    50  C   -0.045851
    51  C   -0.028491
    52  C   -0.037054
    53  C   -0.036153
    54  C   -0.003463
    55  C   -0.054832
    56  C   -0.040328
    57  C   -0.044080
    58  C   -0.043168
    59  C   -0.009389
    60  C   -0.066352
    61  C   -0.032710
    62  C   -0.042766
    63  C   -0.035348
    64  C   -0.002322
    65  C   -0.055011
    66  C   -0.066795
    67  H    0.023480
    68  H    0.041815
    69  H    0.029246
    70  H    0.032669
    71  H    0.029208
    72  H    0.023098
    73  H    0.020441
    74  H    0.026612
    75  H    0.033584
    76  H    0.040293
    77  H    0.038753
    78  H    0.044229
    79  H    0.037069
    80  H    0.017997
    81  H    0.032780
    82  H    0.045137
    83  H    0.034486
    84  H    0.030542
    85  H    0.032613
    86  H    0.024503
    87  H    0.012092
    88  H    0.025621
    89  H    0.024259
    90  H    0.020975
    91  H    0.027453
    92  H    0.015978
    93  H    0.025341
    94  H    0.014749
    95  H    0.021139
    96  H    0.040147
    97  H    0.040901
    98  H    0.051530
    99  H    0.037431
   100  H    0.061048
   101  H    0.029794
   102  H    0.044035
   103  H    0.038901
   104  H    0.031090
   105  H    0.029764
   106  H    0.035900
   107  H    0.023997
   108  H    0.022760
   109  H    0.021047
   110  H    0.018908
   111  H    0.019320
   112  H    0.019892
   113  H    0.022773
   114  H    0.016088
   115  H    0.017875
   116  H    0.017398
   117  H    0.011703
   118  H    0.014846
   119  H    0.026813
   120  H    0.021552
   121  H    0.030356
   122  H    0.025774
   123  H    0.012673
   124  H    0.023851
   125  H    0.027176
   126  H    0.015160
   127  H    0.012029
   128  H    0.022425
   129  H    0.009614
   130  H    0.006393
   131  H    0.021724
   132  H    0.007271
   133  H    0.024720
   134  H    0.023823
   135  H    0.007486
   136  H    0.022424
   137  H    0.025351
   138  H    0.016579
   139  H    0.023367
   140  H    0.019234
 Sum of Mulliken charges =  -0.00000

 Dipole moment (field-independent basis, Debye):
    X=              2.3980    Y=              2.9000    Z=              7.2846  Tot=              8.1991
 N-N= 4.218999005396D+03 E-N= 0.000000000000D+00  KE=-9.112890384785D+03
 Leave Link  601 at Fri Apr 29 07:02:48 2022, MaxMem=  6710886400 cpu:               0.8 elap:               0.0
 (Enter /sw/apps/gaussian-16.0/g16/l9999.exe)
 1\1\GINC-BP1-COMPUTE102\SP\RZINDO CIS\STO-3G\C55H74Mg1N4O6\OF15641\29-
 Apr-2022\0\\#p ZINDO=(nstates=5)\\step_1_chromophore_22 ZINDO\\0,1\Mg,
 0,9.201,48.633,24.807\C,0,7.006,48.653,27.545\C,0,11.642,49.941,26.665
 \C,0,11.05,48.611,22.151\C,0,6.242,48.219,22.767\N,0,9.225,49.311,26.8
 52\C,0,8.336,49.092,27.829\C,0,8.789,49.672,29.144\C,0,10.106,50.447,2
 8.737\C,0,10.361,49.87,27.358\C,0,10.084,52.01,28.747\C,0,9.147,48.495
 ,30.188\C,0,8.515,48.705,31.603\C,0,8.635,47.367,32.515\O,0,9.543,46.5

 Normal termination of Gaussian 16 at Fri Apr 29 07:02:48 2022.
