 Gaussian 16, Revision A.03,
 Gaussian 16:  ES64L-G16RevA.03 25-Dec-2016

 ------------------------------
 #p blyp/Def2SVP td=(nstates=5)
 ------------------------------

 --------------------------------------------------
 step_201_chromophore_13 TDDFT with blyp functional
 --------------------------------------------------
 Symbolic Z-matrix:
 Charge =  0 Multiplicity = 1

                         Standard orientation:
 ---------------------------------------------------------------------
 Center     Atomic      Atomic             Coordinates (Angstroms)
 Number     Number       Type             X           Y           Z
 ---------------------------------------------------------------------
      1         12           0       -5.670349    0.289340   -0.247097
      2          6           0       -3.441230   -2.311181   -0.140547
      3          6           0       -3.066279    2.504738    0.337836
      4          6           0       -7.960432    2.836062    0.303062
      5          6           0       -8.291968   -1.966409   -0.541922
      6          7           0       -3.523089    0.073511    0.022296
      7          6           0       -2.853016   -1.087396   -0.044582
      8          6           0       -1.368725   -0.845041    0.002303
      9          6           0       -1.261291    0.679994    0.426595
     10          6           0       -2.706018    1.100325    0.237093
     11          6           0       -0.677900    0.959402    1.861637
     12          6           0       -0.513001   -1.215086   -1.295164
     13          6           0        0.705791   -2.208525   -1.046213
     14          6           0        2.162196   -1.726035   -1.216666
     15          8           0        2.459880   -1.014111   -2.164448
     16          8           0        2.929578   -2.440007   -0.418672
     17          7           0       -5.536726    2.357377    0.100199
     18          6           0       -4.343698    3.055288    0.342260
     19          6           0       -4.624833    4.500891    0.482594
     20          6           0       -6.037142    4.554230    0.525119
     21          6           0       -6.618763    3.170713    0.287646
     22          6           0       -3.590546    5.554163    0.517748
     23          6           0       -6.910942    5.863484    0.622171
     24          8           0       -8.137552    5.815915    0.445144
     25          6           0       -6.272820    7.247412    0.896201
     26          7           0       -7.812179    0.478821   -0.068519
     27          6           0       -8.533406    1.621502    0.105285
     28          6           0      -10.053272    1.366283    0.271069
     29          6           0      -10.128080   -0.158484   -0.237274
     30          6           0       -8.664483   -0.586404   -0.394199
     31          6           0      -10.547775    1.626899    1.821631
     32          6           0      -10.939803   -0.402409   -1.448641
     33          6           0      -10.384372    0.016039   -2.845041
     34          7           0       -5.905844   -1.763987   -0.362147
     35          6           0       -7.009972   -2.545651   -0.616701
     36          6           0       -6.610806   -3.983539   -0.727030
     37          6           0       -5.204436   -3.903018   -0.497490
     38          6           0       -4.842409   -2.557521   -0.292815
     39          6           0       -7.448721   -5.163302   -1.029240
     40          6           0       -4.033876   -4.633563   -0.405826
     41          8           0       -3.900323   -5.863360   -0.457035
     42          6           0       -2.830552   -3.626570   -0.192451
     43          6           0       -2.304065   -4.070417    1.181676
     44          8           0       -3.029037   -4.268598    2.175898
     45          8           0       -0.985106   -4.022279    1.226082
     46          6           0       -0.346264   -4.386439    2.519318
     47          6           0        4.346213   -2.307171   -0.786036
     48          6           0        4.963743   -1.352828    0.149605
     49          6           0        6.247283   -0.999845    0.255288
     50          6           0        7.330618   -1.741811   -0.419075
     51          6           0        6.646372    0.068112    1.304583
     52          6           0        6.928429    1.398582    0.687524
     53          6           0        8.431383    1.696747    0.740963
     54          6           0        8.841936    2.926235   -0.099199
     55          6           0        7.755710    4.039133   -0.116405
     56          6           0        9.253113    2.498549   -1.523854
     57          6           0       10.838907    2.788860   -1.583733
     58          6           0       11.499181    1.763590   -2.493263
     59          6           0       12.921045    1.335014   -2.037696
     60          6           0       13.991981    1.257789   -3.111758
     61          6           0       12.932217   -0.054788   -1.327895
     62          6           0       12.171508   -0.050373   -0.008529
     63          6           0       13.085961   -0.654000    1.068513
     64          6           0       12.212574   -1.218674    2.208711
     65          6           0       11.316161   -0.192285    3.002525
     66          6           0       13.138342   -1.944005    3.240606
     67          1           0       -2.247962    3.203356    0.520800
     68          1           0       -8.710306    3.534462    0.680993
     69          1           0       -9.101763   -2.698457   -0.572512
     70          1           0       -0.920661   -1.481890    0.766444
     71          1           0       -0.602276    1.270417   -0.210157
     72          1           0       -0.270563    0.024366    2.244627
     73          1           0       -1.423084    1.443161    2.493538
     74          1           0        0.114721    1.705353    1.808401
     75          1           0       -0.070092   -0.295675   -1.676465
     76          1           0       -1.144450   -1.727477   -2.021101
     77          1           0        0.644070   -3.125792   -1.630794
     78          1           0        0.606239   -2.602669   -0.034950
     79          1           0       -3.710329    6.072039    1.469774
     80          1           0       -3.771858    6.246198   -0.304872
     81          1           0       -2.571333    5.218293    0.327881
     82          1           0       -7.107840    7.893309    1.169812
     83          1           0       -6.010221    7.626553   -0.091654
     84          1           0       -5.362404    7.338864    1.487760
     85          1           0      -10.625407    2.071197   -0.331832
     86          1           0      -10.635928   -0.696600    0.563892
     87          1           0       -9.789406    2.207418    2.346037
     88          1           0      -10.694672    0.671095    2.325858
     89          1           0      -11.434605    2.251897    1.720420
     90          1           0      -11.855790    0.166012   -1.285337
     91          1           0      -11.190284   -1.462738   -1.417589
     92          1           0      -10.137617   -0.918297   -3.350196
     93          1           0       -9.418455    0.521491   -2.861807
     94          1           0      -11.047756    0.620475   -3.462494
     95          1           0       -7.314306   -5.516781   -2.051467
     96          1           0       -8.491296   -5.029541   -0.740403
     97          1           0       -6.960009   -5.984893   -0.504972
     98          1           0       -2.102391   -3.765626   -0.991595
     99          1           0       -0.705345   -3.704460    3.290759
    100          1           0        0.702277   -4.253184    2.254971
    101          1           0       -0.529701   -5.417539    2.822935
    102          1           0        4.541478   -2.015337   -1.817487
    103          1           0        4.799644   -3.280688   -0.597970
    104          1           0        4.273087   -0.845364    0.822904
    105          1           0        7.916738   -2.172541    0.393592
    106          1           0        7.841716   -1.045839   -1.084079
    107          1           0        7.082179   -2.633838   -0.993436
    108          1           0        7.475151   -0.304176    1.906647
    109          1           0        5.804653    0.172907    1.987830
    110          1           0        6.297424    2.122259    1.203825
    111          1           0        6.657058    1.225024   -0.353963
    112          1           0        9.074721    0.827584    0.602189
    113          1           0        8.661501    1.972489    1.770713
    114          1           0        9.714471    3.393499    0.357170
    115          1           0        8.038721    4.975097   -0.598353
    116          1           0        7.489677    4.210759    0.927416
    117          1           0        6.815138    3.737837   -0.577641
    118          1           0        8.772323    3.209217   -2.195705
    119          1           0        8.994570    1.458726   -1.724717
    120          1           0       11.395371    2.849139   -0.648515
    121          1           0       10.889568    3.772458   -2.050450
    122          1           0       11.701617    2.285461   -3.428167
    123          1           0       10.808477    0.954723   -2.728042
    124          1           0       13.360970    1.984812   -1.282213
    125          1           0       14.938497    1.464593   -2.613347
    126          1           0       13.809905    1.909857   -3.966283
    127          1           0       13.919776    0.266438   -3.558528
    128          1           0       13.920692   -0.512004   -1.349785
    129          1           0       12.213823   -0.577289   -1.960477
    130          1           0       11.249042   -0.602513   -0.185872
    131          1           0       11.929545    0.975235    0.270474
    132          1           0       13.532367    0.276537    1.419070
    133          1           0       13.885626   -1.357220    0.834271
    134          1           0       11.512646   -1.981370    1.867798
    135          1           0       11.979708    0.505558    3.514687
    136          1           0       10.858273   -0.804209    3.778482
    137          1           0       10.632192    0.278646    2.296739
    138          1           0       14.086415   -1.425015    3.383203
    139          1           0       13.419126   -2.806908    2.636314
    140          1           0       12.587861   -2.245099    4.131703
 ---------------------------------------------------------------------

 SCF Done:  E(RB-LYP) =  -3007.37473194     A.U. after   21 cycles

 Excitation energies and oscillator strengths:

 Excited State   1:      Singlet-A      1.7749 eV  698.53 nm  f=0.1538  <S**2>=0.000
     244 -> 247       -0.38882
     245 -> 247        0.22752
     245 -> 248       -0.13214
     246 -> 247        0.53302
     246 <- 247       -0.11137
 This state for optimization and/or second-order correction.
 Total Energy, E(TD-HF/TD-DFT) =  -3007.30950437
 Copying the excited state density for this state as the 1-particle RhoCI density.

 Excited State   2:      Singlet-A      1.8180 eV  682.00 nm  f=0.1429  <S**2>=0.000
     244 -> 247        0.48429
     245 -> 247       -0.24654
     245 -> 248       -0.11590
     246 -> 247        0.43884

 Excited State   3:      Singlet-A      2.0565 eV  602.88 nm  f=0.0536  <S**2>=0.000
     243 -> 247       -0.26343
     244 -> 247        0.29813
     245 -> 247        0.51619
     246 -> 248        0.25041

 Excited State   4:      Singlet-A      2.1536 eV  575.70 nm  f=0.0122  <S**2>=0.000
     243 -> 247        0.65323
     244 -> 247        0.10175
     245 -> 247        0.19486
     246 -> 248        0.13463

 Excited State   5:      Singlet-A      2.5657 eV  483.23 nm  f=0.0000  <S**2>=0.000
     240 -> 247        0.69564
     241 -> 247        0.12430

 The electronic state is 1-A.
 Alpha  occ. eigenvalues --  -46.26701 -18.83918 -18.83276 -18.76630 -18.75910
 Alpha  occ. eigenvalues --  -18.75863 -18.74123 -14.03395 -14.02695 -14.01193
 Alpha  occ. eigenvalues --  -14.00507 -10.04065 -10.03807 -10.00595  -9.98543
 Alpha  occ. eigenvalues --   -9.98365  -9.97817  -9.96819  -9.96291  -9.96086
 Alpha  occ. eigenvalues --   -9.95874  -9.95787  -9.95430  -9.95256  -9.94104
 Alpha  occ. eigenvalues --   -9.93976  -9.93953  -9.93897  -9.93728  -9.93712
 Alpha  occ. eigenvalues --   -9.93691  -9.93349  -9.93231  -9.93203  -9.93141
 Alpha  occ. eigenvalues --   -9.93128  -9.92827  -9.92786  -9.92757  -9.92713
 Alpha  occ. eigenvalues --   -9.92687  -9.92608  -9.92595  -9.92512  -9.92127
 Alpha  occ. eigenvalues --   -9.92062  -9.91933  -9.91762  -9.91687  -9.91520
 Alpha  occ. eigenvalues --   -9.91465  -9.91443  -9.91418  -9.91414  -9.91353
 Alpha  occ. eigenvalues --   -9.91339  -9.91326  -9.91101  -9.91073  -9.91062
 Alpha  occ. eigenvalues --   -9.90924  -9.90899  -9.90721  -9.90498  -9.90466
 Alpha  occ. eigenvalues --   -9.89952  -2.91327  -1.71768  -1.71181  -1.71055
 Alpha  occ. eigenvalues --   -1.00378  -0.99016  -0.90768  -0.90722  -0.89564
 Alpha  occ. eigenvalues --   -0.88371  -0.87508  -0.85722  -0.84715  -0.83738
 Alpha  occ. eigenvalues --   -0.76057  -0.74689  -0.73576  -0.72501  -0.72384
 Alpha  occ. eigenvalues --   -0.71697  -0.71442  -0.71192  -0.70604  -0.70148
 Alpha  occ. eigenvalues --   -0.69630  -0.69452  -0.68066  -0.67440  -0.66953
 Alpha  occ. eigenvalues --   -0.66391  -0.65790  -0.65448  -0.65263  -0.64797
 Alpha  occ. eigenvalues --   -0.64576  -0.62509  -0.62308  -0.61545  -0.61116
 Alpha  occ. eigenvalues --   -0.60782  -0.59972  -0.59645  -0.59548  -0.59028
 Alpha  occ. eigenvalues --   -0.58579  -0.57520  -0.56688  -0.55598  -0.55129
 Alpha  occ. eigenvalues --   -0.53694  -0.53366  -0.52760  -0.52250  -0.51566
 Alpha  occ. eigenvalues --   -0.51434  -0.50592  -0.50192  -0.50050  -0.49743
 Alpha  occ. eigenvalues --   -0.49539  -0.48860  -0.48830  -0.48106  -0.47406
 Alpha  occ. eigenvalues --   -0.46172  -0.46091  -0.45476  -0.44952  -0.44612
 Alpha  occ. eigenvalues --   -0.44492  -0.43599  -0.43465  -0.42951  -0.42477
 Alpha  occ. eigenvalues --   -0.42377  -0.41839  -0.41679  -0.41545  -0.41372
 Alpha  occ. eigenvalues --   -0.41172  -0.40998  -0.40707  -0.40343  -0.40257
 Alpha  occ. eigenvalues --   -0.39986  -0.39848  -0.39617  -0.39559  -0.39290
 Alpha  occ. eigenvalues --   -0.39108  -0.38930  -0.38808  -0.38483  -0.38195
 Alpha  occ. eigenvalues --   -0.38159  -0.37766  -0.37611  -0.37394  -0.37127
 Alpha  occ. eigenvalues --   -0.37097  -0.36942  -0.36833  -0.36707  -0.36633
 Alpha  occ. eigenvalues --   -0.36367  -0.36190  -0.36022  -0.35774  -0.35691
 Alpha  occ. eigenvalues --   -0.35493  -0.35206  -0.35079  -0.34847  -0.34772
 Alpha  occ. eigenvalues --   -0.34733  -0.34349  -0.34154  -0.33995  -0.33793
 Alpha  occ. eigenvalues --   -0.33650  -0.33502  -0.33433  -0.33092  -0.32880
 Alpha  occ. eigenvalues --   -0.32621  -0.32565  -0.32489  -0.32356  -0.32307
 Alpha  occ. eigenvalues --   -0.32001  -0.31861  -0.31729  -0.31646  -0.31371
 Alpha  occ. eigenvalues --   -0.31346  -0.31274  -0.30941  -0.30853  -0.30617
 Alpha  occ. eigenvalues --   -0.30429  -0.30294  -0.30261  -0.29903  -0.29838
 Alpha  occ. eigenvalues --   -0.29648  -0.29560  -0.29480  -0.29456  -0.29248
 Alpha  occ. eigenvalues --   -0.28738  -0.28479  -0.28372  -0.28304  -0.28124
 Alpha  occ. eigenvalues --   -0.27896  -0.27657  -0.27055  -0.26708  -0.26222
 Alpha  occ. eigenvalues --   -0.26154  -0.25970  -0.25710  -0.25582  -0.25553
 Alpha  occ. eigenvalues --   -0.25132  -0.24742  -0.23745  -0.23627  -0.23170
 Alpha  occ. eigenvalues --   -0.23068  -0.22048  -0.21646  -0.21142  -0.20496
 Alpha  occ. eigenvalues --   -0.20462  -0.19927  -0.18819  -0.17653  -0.17183
 Alpha  occ. eigenvalues --   -0.15335
 Alpha virt. eigenvalues --   -0.11066  -0.06771  -0.05852  -0.04462  -0.02707
 Alpha virt. eigenvalues --   -0.02211  -0.01781  -0.01512  -0.01391   0.00490
 Alpha virt. eigenvalues --    0.01030   0.01465   0.01513   0.02202   0.02513

 Mulliken charges:
               1
     1  Mg   0.692465
     2  C    0.059344
     3  C   -0.086291
     4  C   -0.045750
     5  C   -0.079696
     6  N   -0.175592
     7  C   -0.086593
     8  C    0.026838
     9  C   -0.033362
    10  C    0.031324
    11  C    0.122451
    12  C    0.147191
    13  C    0.056578
    14  C    0.065538
    15  O   -0.200110
    16  O   -0.221788
    17  N   -0.293265
    18  C    0.154904
    19  C   -0.141446
    20  C   -0.002819
    21  C    0.158894
    22  C    0.182109
    23  C   -0.058690
    24  O   -0.181495
    25  C    0.139886
    26  N   -0.236971
    27  C   -0.008756
    28  C   -0.006253
    29  C    0.049081
    30  C    0.077950
    31  C    0.101427
    32  C    0.081488
    33  C    0.063275
    34  N   -0.252492
    35  C    0.086668
    36  C   -0.169332
    37  C    0.192329
    38  C    0.029487
    39  C    0.180861
    40  C   -0.153278
    41  O   -0.160826
    42  C    0.084494
    43  C    0.102598
    44  O   -0.213895
    45  O   -0.231932
    46  C    0.212935
    47  C    0.345287
    48  C   -0.139128
    49  C   -0.175245
    50  C    0.148289
    51  C    0.158607
    52  C    0.101310
    53  C    0.024562
    54  C   -0.059175
    55  C    0.101431
    56  C    0.108069
    57  C    0.025835
    58  C    0.161960
    59  C   -0.128174
    60  C    0.123767
    61  C    0.110853
    62  C    0.051982
    63  C    0.107766
    64  C   -0.116642
    65  C    0.078521
    66  C    0.103569
    67  H   -0.069904
    68  H   -0.040528
    69  H   -0.062392
    70  H   -0.027804
    71  H   -0.018556
    72  H   -0.002884
    73  H   -0.002335
    74  H   -0.016046
    75  H   -0.006582
    76  H   -0.018591
    77  H    0.008885
    78  H   -0.018405
    79  H    0.020502
    80  H    0.002880
    81  H   -0.010437
    82  H   -0.003883
    83  H    0.001739
    84  H   -0.003375
    85  H   -0.020266
    86  H   -0.034617
    87  H    0.003509
    88  H    0.002639
    89  H    0.003639
    90  H   -0.027085
    91  H   -0.019636
    92  H   -0.013398
    93  H   -0.004290
    94  H   -0.004395
    95  H    0.003524
    96  H   -0.001750
    97  H    0.003707
    98  H   -0.016770
    99  H    0.024775
   100  H    0.020965
   101  H    0.032506
   102  H    0.021927
   103  H   -0.001441
   104  H   -0.041957
   105  H    0.002751
   106  H    0.006600
   107  H   -0.023738
   108  H   -0.034368
   109  H   -0.050847
   110  H   -0.018955
   111  H   -0.017598
   112  H   -0.004596
   113  H   -0.030856
   114  H   -0.037900
   115  H   -0.015951
   116  H   -0.029782
   117  H   -0.013749
   118  H   -0.035103
   119  H   -0.016007
   120  H   -0.005189
   121  H   -0.030226
   122  H   -0.050108
   123  H   -0.033009
   124  H   -0.046967
   125  H   -0.009530
   126  H   -0.030242
   127  H   -0.024465
   128  H   -0.027215
   129  H   -0.050338
   130  H   -0.020141
   131  H   -0.019517
   132  H   -0.037831
   133  H   -0.022190
   134  H   -0.036291
   135  H   -0.018304
   136  H   -0.017003
   137  H    0.000195
   138  H   -0.017723
   139  H   -0.027430
   140  H   -0.013171
 Sum of Mulliken charges =  -0.00000

 Dipole moment (field-independent basis, Debye):
    X=              4.2314    Y=              3.3422    Z=              0.7566  Tot=              5.4449
 Quadrupole moment (field-independent basis, Debye-Ang):
   XX=           -385.7485   YY=           -423.8028   ZZ=           -410.3950
   XY=             -5.0150   XZ=             11.3456   YZ=              4.1541

 Normal termination of Gaussian 16 at Fri Apr 29 08:17:23 2022.
