 Gaussian 16, Revision A.03,
 Gaussian 16:  ES64L-G16RevA.03 25-Dec-2016

 -----------------------------------
 #p cam-b3lyp/Def2SVP td=(nstates=5)
 -----------------------------------

 -------------------------------------------------------
 step_201_chromophore_13 TDDFT with cam-b3lyp functional
 -------------------------------------------------------
 Symbolic Z-matrix:
 Charge =  0 Multiplicity = 1

                         Standard orientation:
 ---------------------------------------------------------------------
 Center     Atomic      Atomic             Coordinates (Angstroms)
 Number     Number       Type             X           Y           Z
 ---------------------------------------------------------------------
      1         12           0       -5.670349    0.289340   -0.247097
      2          6           0       -3.441230   -2.311181   -0.140547
      3          6           0       -3.066279    2.504738    0.337836
      4          6           0       -7.960432    2.836062    0.303062
      5          6           0       -8.291968   -1.966409   -0.541922
      6          7           0       -3.523089    0.073511    0.022296
      7          6           0       -2.853016   -1.087396   -0.044582
      8          6           0       -1.368725   -0.845041    0.002303
      9          6           0       -1.261291    0.679994    0.426595
     10          6           0       -2.706018    1.100325    0.237093
     11          6           0       -0.677900    0.959402    1.861637
     12          6           0       -0.513001   -1.215086   -1.295164
     13          6           0        0.705791   -2.208525   -1.046213
     14          6           0        2.162196   -1.726035   -1.216666
     15          8           0        2.459880   -1.014111   -2.164448
     16          8           0        2.929578   -2.440007   -0.418672
     17          7           0       -5.536726    2.357377    0.100199
     18          6           0       -4.343698    3.055288    0.342260
     19          6           0       -4.624833    4.500891    0.482594
     20          6           0       -6.037142    4.554230    0.525119
     21          6           0       -6.618763    3.170713    0.287646
     22          6           0       -3.590546    5.554163    0.517748
     23          6           0       -6.910942    5.863484    0.622171
     24          8           0       -8.137552    5.815915    0.445144
     25          6           0       -6.272820    7.247412    0.896201
     26          7           0       -7.812179    0.478821   -0.068519
     27          6           0       -8.533406    1.621502    0.105285
     28          6           0      -10.053272    1.366283    0.271069
     29          6           0      -10.128080   -0.158484   -0.237274
     30          6           0       -8.664483   -0.586404   -0.394199
     31          6           0      -10.547775    1.626899    1.821631
     32          6           0      -10.939803   -0.402409   -1.448641
     33          6           0      -10.384372    0.016039   -2.845041
     34          7           0       -5.905844   -1.763987   -0.362147
     35          6           0       -7.009972   -2.545651   -0.616701
     36          6           0       -6.610806   -3.983539   -0.727030
     37          6           0       -5.204436   -3.903018   -0.497490
     38          6           0       -4.842409   -2.557521   -0.292815
     39          6           0       -7.448721   -5.163302   -1.029240
     40          6           0       -4.033876   -4.633563   -0.405826
     41          8           0       -3.900323   -5.863360   -0.457035
     42          6           0       -2.830552   -3.626570   -0.192451
     43          6           0       -2.304065   -4.070417    1.181676
     44          8           0       -3.029037   -4.268598    2.175898
     45          8           0       -0.985106   -4.022279    1.226082
     46          6           0       -0.346264   -4.386439    2.519318
     47          6           0        4.346213   -2.307171   -0.786036
     48          6           0        4.963743   -1.352828    0.149605
     49          6           0        6.247283   -0.999845    0.255288
     50          6           0        7.330618   -1.741811   -0.419075
     51          6           0        6.646372    0.068112    1.304583
     52          6           0        6.928429    1.398582    0.687524
     53          6           0        8.431383    1.696747    0.740963
     54          6           0        8.841936    2.926235   -0.099199
     55          6           0        7.755710    4.039133   -0.116405
     56          6           0        9.253113    2.498549   -1.523854
     57          6           0       10.838907    2.788860   -1.583733
     58          6           0       11.499181    1.763590   -2.493263
     59          6           0       12.921045    1.335014   -2.037696
     60          6           0       13.991981    1.257789   -3.111758
     61          6           0       12.932217   -0.054788   -1.327895
     62          6           0       12.171508   -0.050373   -0.008529
     63          6           0       13.085961   -0.654000    1.068513
     64          6           0       12.212574   -1.218674    2.208711
     65          6           0       11.316161   -0.192285    3.002525
     66          6           0       13.138342   -1.944005    3.240606
     67          1           0       -2.247962    3.203356    0.520800
     68          1           0       -8.710306    3.534462    0.680993
     69          1           0       -9.101763   -2.698457   -0.572512
     70          1           0       -0.920661   -1.481890    0.766444
     71          1           0       -0.602276    1.270417   -0.210157
     72          1           0       -0.270563    0.024366    2.244627
     73          1           0       -1.423084    1.443161    2.493538
     74          1           0        0.114721    1.705353    1.808401
     75          1           0       -0.070092   -0.295675   -1.676465
     76          1           0       -1.144450   -1.727477   -2.021101
     77          1           0        0.644070   -3.125792   -1.630794
     78          1           0        0.606239   -2.602669   -0.034950
     79          1           0       -3.710329    6.072039    1.469774
     80          1           0       -3.771858    6.246198   -0.304872
     81          1           0       -2.571333    5.218293    0.327881
     82          1           0       -7.107840    7.893309    1.169812
     83          1           0       -6.010221    7.626553   -0.091654
     84          1           0       -5.362404    7.338864    1.487760
     85          1           0      -10.625407    2.071197   -0.331832
     86          1           0      -10.635928   -0.696600    0.563892
     87          1           0       -9.789406    2.207418    2.346037
     88          1           0      -10.694672    0.671095    2.325858
     89          1           0      -11.434605    2.251897    1.720420
     90          1           0      -11.855790    0.166012   -1.285337
     91          1           0      -11.190284   -1.462738   -1.417589
     92          1           0      -10.137617   -0.918297   -3.350196
     93          1           0       -9.418455    0.521491   -2.861807
     94          1           0      -11.047756    0.620475   -3.462494
     95          1           0       -7.314306   -5.516781   -2.051467
     96          1           0       -8.491296   -5.029541   -0.740403
     97          1           0       -6.960009   -5.984893   -0.504972
     98          1           0       -2.102391   -3.765626   -0.991595
     99          1           0       -0.705345   -3.704460    3.290759
    100          1           0        0.702277   -4.253184    2.254971
    101          1           0       -0.529701   -5.417539    2.822935
    102          1           0        4.541478   -2.015337   -1.817487
    103          1           0        4.799644   -3.280688   -0.597970
    104          1           0        4.273087   -0.845364    0.822904
    105          1           0        7.916738   -2.172541    0.393592
    106          1           0        7.841716   -1.045839   -1.084079
    107          1           0        7.082179   -2.633838   -0.993436
    108          1           0        7.475151   -0.304176    1.906647
    109          1           0        5.804653    0.172907    1.987830
    110          1           0        6.297424    2.122259    1.203825
    111          1           0        6.657058    1.225024   -0.353963
    112          1           0        9.074721    0.827584    0.602189
    113          1           0        8.661501    1.972489    1.770713
    114          1           0        9.714471    3.393499    0.357170
    115          1           0        8.038721    4.975097   -0.598353
    116          1           0        7.489677    4.210759    0.927416
    117          1           0        6.815138    3.737837   -0.577641
    118          1           0        8.772323    3.209217   -2.195705
    119          1           0        8.994570    1.458726   -1.724717
    120          1           0       11.395371    2.849139   -0.648515
    121          1           0       10.889568    3.772458   -2.050450
    122          1           0       11.701617    2.285461   -3.428167
    123          1           0       10.808477    0.954723   -2.728042
    124          1           0       13.360970    1.984812   -1.282213
    125          1           0       14.938497    1.464593   -2.613347
    126          1           0       13.809905    1.909857   -3.966283
    127          1           0       13.919776    0.266438   -3.558528
    128          1           0       13.920692   -0.512004   -1.349785
    129          1           0       12.213823   -0.577289   -1.960477
    130          1           0       11.249042   -0.602513   -0.185872
    131          1           0       11.929545    0.975235    0.270474
    132          1           0       13.532367    0.276537    1.419070
    133          1           0       13.885626   -1.357220    0.834271
    134          1           0       11.512646   -1.981370    1.867798
    135          1           0       11.979708    0.505558    3.514687
    136          1           0       10.858273   -0.804209    3.778482
    137          1           0       10.632192    0.278646    2.296739
    138          1           0       14.086415   -1.425015    3.383203
    139          1           0       13.419126   -2.806908    2.636314
    140          1           0       12.587861   -2.245099    4.131703
 ---------------------------------------------------------------------

 SCF Done:  E(RCAM-B3LYP) =  -3007.17474265     A.U. after   17 cycles

 Excitation energies and oscillator strengths:

 Excited State   1:      Singlet-A      1.7563 eV  705.95 nm  f=0.3640  <S**2>=0.000
     245 -> 248       -0.17223
     246 -> 247        0.68741
     245 <- 248       -0.10324
 This state for optimization and/or second-order correction.
 Total Energy, E(TD-HF/TD-DFT) =  -3007.11020120
 Copying the excited state density for this state as the 1-particle RhoCI density.

 Excited State   2:      Singlet-A      2.3299 eV  532.15 nm  f=0.0616  <S**2>=0.000
     245 -> 247        0.60575
     246 -> 248        0.35134

 Excited State   3:      Singlet-A      3.4525 eV  359.11 nm  f=0.5749  <S**2>=0.000
     242 -> 247       -0.20475
     243 -> 247        0.20358
     243 -> 249        0.11876
     243 -> 250        0.11384
     244 -> 247       -0.10136
     245 -> 247       -0.28507
     246 -> 248        0.52907

 Excited State   4:      Singlet-A      3.4868 eV  355.58 nm  f=0.0728  <S**2>=0.000
     240 -> 247        0.10288
     242 -> 247        0.22163
     243 -> 247        0.48565
     243 -> 249        0.20223
     243 -> 250        0.21711
     244 -> 247       -0.21834
     246 -> 248       -0.17405

 Excited State   5:      Singlet-A      3.5610 eV  348.17 nm  f=0.0504  <S**2>=0.000
     242 -> 247       -0.33246
     243 -> 247        0.21948
     243 -> 249        0.12326
     243 -> 250        0.12957
     244 -> 247        0.50892
     246 -> 248       -0.14840

 The electronic state is 1-A.
 Alpha  occ. eigenvalues --  -46.88218 -19.26854 -19.26128 -19.19565 -19.19526
 Alpha  occ. eigenvalues --  -19.18660 -19.16740 -14.42407 -14.41412 -14.39890
 Alpha  occ. eigenvalues --  -14.38644 -10.39250 -10.38982 -10.36382 -10.32686
 Alpha  occ. eigenvalues --  -10.32544 -10.32420 -10.31867 -10.31093 -10.30955
 Alpha  occ. eigenvalues --  -10.30279 -10.30141 -10.29943 -10.29384 -10.28842
 Alpha  occ. eigenvalues --  -10.28316 -10.28139 -10.28060 -10.27934 -10.27750
 Alpha  occ. eigenvalues --  -10.27728 -10.27592 -10.27565 -10.27552 -10.27146
 Alpha  occ. eigenvalues --  -10.27021 -10.26951 -10.26843 -10.26736 -10.26643
 Alpha  occ. eigenvalues --  -10.26626 -10.26600 -10.26422 -10.26355 -10.25710
 Alpha  occ. eigenvalues --  -10.25627 -10.25525 -10.25441 -10.25415 -10.25288
 Alpha  occ. eigenvalues --  -10.25189 -10.25180 -10.25131 -10.25118 -10.25109
 Alpha  occ. eigenvalues --  -10.25065 -10.25011 -10.24780 -10.24771 -10.24732
 Alpha  occ. eigenvalues --  -10.24581 -10.24560 -10.24357 -10.24130 -10.24100
 Alpha  occ. eigenvalues --  -10.23409  -3.16749  -1.91667  -1.91179  -1.91068
 Alpha  occ. eigenvalues --   -1.18873  -1.17378  -1.09603  -1.08634  -1.07463
 Alpha  occ. eigenvalues --   -1.06060  -1.05407  -1.02930  -1.02538  -1.01331
 Alpha  occ. eigenvalues --   -0.93004  -0.91661  -0.90440  -0.89330  -0.89237
 Alpha  occ. eigenvalues --   -0.88432  -0.88119  -0.87835  -0.87414  -0.86728
 Alpha  occ. eigenvalues --   -0.85912  -0.85676  -0.84372  -0.83408  -0.83109
 Alpha  occ. eigenvalues --   -0.82492  -0.81639  -0.81617  -0.81165  -0.80771
 Alpha  occ. eigenvalues --   -0.80550  -0.78607  -0.77967  -0.76955  -0.76486
 Alpha  occ. eigenvalues --   -0.76182  -0.75345  -0.74894  -0.74854  -0.74277
 Alpha  occ. eigenvalues --   -0.73678  -0.72375  -0.71662  -0.70447  -0.69692
 Alpha  occ. eigenvalues --   -0.68199  -0.67856  -0.67223  -0.66787  -0.65862
 Alpha  occ. eigenvalues --   -0.65766  -0.64562  -0.64290  -0.63936  -0.63574
 Alpha  occ. eigenvalues --   -0.63549  -0.62806  -0.62505  -0.61924  -0.61058
 Alpha  occ. eigenvalues --   -0.60060  -0.59742  -0.58880  -0.58362  -0.58164
 Alpha  occ. eigenvalues --   -0.57971  -0.56955  -0.56644  -0.55982  -0.55826
 Alpha  occ. eigenvalues --   -0.55563  -0.55060  -0.54537  -0.54509  -0.54130
 Alpha  occ. eigenvalues --   -0.54049  -0.53905  -0.53461  -0.53103  -0.52868
 Alpha  occ. eigenvalues --   -0.52691  -0.52514  -0.52360  -0.52188  -0.51941
 Alpha  occ. eigenvalues --   -0.51723  -0.51428  -0.51119  -0.50909  -0.50695
 Alpha  occ. eigenvalues --   -0.50411  -0.50192  -0.50027  -0.49900  -0.49695
 Alpha  occ. eigenvalues --   -0.49588  -0.49372  -0.49228  -0.48912  -0.48774
 Alpha  occ. eigenvalues --   -0.48736  -0.48403  -0.48257  -0.47906  -0.47743
 Alpha  occ. eigenvalues --   -0.47683  -0.47607  -0.47239  -0.47064  -0.46821
 Alpha  occ. eigenvalues --   -0.46666  -0.46477  -0.45971  -0.45724  -0.45625
 Alpha  occ. eigenvalues --   -0.45410  -0.45328  -0.45126  -0.44868  -0.44716
 Alpha  occ. eigenvalues --   -0.44316  -0.44223  -0.44034  -0.43929  -0.43886
 Alpha  occ. eigenvalues --   -0.43797  -0.43669  -0.43437  -0.43087  -0.43051
 Alpha  occ. eigenvalues --   -0.42834  -0.42707  -0.42555  -0.42206  -0.41968
 Alpha  occ. eigenvalues --   -0.41867  -0.41766  -0.41700  -0.41631  -0.41009
 Alpha  occ. eigenvalues --   -0.41007  -0.40784  -0.40718  -0.40522  -0.40441
 Alpha  occ. eigenvalues --   -0.39885  -0.39508  -0.39468  -0.39303  -0.39084
 Alpha  occ. eigenvalues --   -0.38762  -0.38564  -0.37885  -0.37754  -0.37147
 Alpha  occ. eigenvalues --   -0.37101  -0.36877  -0.36677  -0.36482  -0.36297
 Alpha  occ. eigenvalues --   -0.36104  -0.35319  -0.34159  -0.34030  -0.34020
 Alpha  occ. eigenvalues --   -0.33616  -0.33431  -0.32677  -0.31493  -0.31062
 Alpha  occ. eigenvalues --   -0.30188  -0.30097  -0.29328  -0.28705  -0.24199
 Alpha  occ. eigenvalues --   -0.20544
 Alpha virt. eigenvalues --   -0.07964  -0.01653   0.00513   0.02582   0.03240
 Alpha virt. eigenvalues --    0.05025   0.05365   0.05792   0.06033   0.06793
 Alpha virt. eigenvalues --    0.07019   0.08359   0.08406   0.08502   0.08780

 Mulliken charges:
               1
     1  Mg   0.825527
     2  C    0.023979
     3  C   -0.101957
     4  C   -0.069696
     5  C   -0.081182
     6  N   -0.250902
     7  C   -0.045271
     8  C   -0.017841
     9  C   -0.087059
    10  C    0.055496
    11  C    0.066644
    12  C    0.092728
    13  C   -0.005375
    14  C    0.144860
    15  O   -0.243027
    16  O   -0.284676
    17  N   -0.383839
    18  C    0.171588
    19  C   -0.146104
    20  C   -0.061201
    21  C    0.188404
    22  C    0.118940
    23  C    0.018730
    24  O   -0.218510
    25  C    0.056941
    26  N   -0.307311
    27  C    0.016446
    28  C   -0.056427
    29  C   -0.006712
    30  C    0.082063
    31  C    0.047914
    32  C    0.030552
    33  C   -0.000733
    34  N   -0.341909
    35  C    0.085912
    36  C   -0.161949
    37  C    0.107717
    38  C    0.069115
    39  C    0.128412
    40  C   -0.056091
    41  O   -0.204983
    42  C    0.007784
    43  C    0.193947
    44  O   -0.253679
    45  O   -0.298385
    46  C    0.175040
    47  C    0.300084
    48  C   -0.150436
    49  C   -0.199718
    50  C    0.087324
    51  C    0.100006
    52  C    0.043267
    53  C   -0.019995
    54  C   -0.111200
    55  C    0.039879
    56  C    0.057563
    57  C   -0.024688
    58  C    0.101226
    59  C   -0.178460
    60  C    0.064122
    61  C    0.055026
    62  C    0.006414
    63  C    0.051861
    64  C   -0.173632
    65  C    0.031076
    66  C    0.042665
    67  H   -0.034287
    68  H   -0.002264
    69  H   -0.029283
    70  H    0.005246
    71  H    0.017032
    72  H    0.021962
    73  H    0.023819
    74  H    0.008675
    75  H    0.024816
    76  H    0.012771
    77  H    0.039458
    78  H    0.012399
    79  H    0.046258
    80  H    0.031881
    81  H    0.020984
    82  H    0.033291
    83  H    0.031643
    84  H    0.026271
    85  H    0.013933
    86  H    0.001253
    87  H    0.026606
    88  H    0.027008
    89  H    0.026590
    90  H    0.000245
    91  H    0.007990
    92  H    0.011095
    93  H    0.017404
    94  H    0.019195
    95  H    0.028659
    96  H    0.019280
    97  H    0.030255
    98  H    0.025377
    99  H    0.048369
   100  H    0.042719
   101  H    0.056059
   102  H    0.056095
   103  H    0.028070
   104  H   -0.008719
   105  H    0.025737
   106  H    0.026375
   107  H    0.003244
   108  H   -0.004801
   109  H   -0.016698
   110  H    0.009920
   111  H    0.009939
   112  H    0.014557
   113  H   -0.002751
   114  H   -0.004540
   115  H    0.009812
   116  H   -0.004632
   117  H    0.009636
   118  H   -0.004404
   119  H    0.006078
   120  H    0.017574
   121  H   -0.001031
   122  H   -0.018285
   123  H   -0.005356
   124  H   -0.015818
   125  H    0.014908
   126  H   -0.004216
   127  H   -0.000422
   128  H    0.002993
   129  H   -0.020881
   130  H    0.003726
   131  H    0.002816
   132  H   -0.009743
   133  H    0.006364
   134  H   -0.006594
   135  H    0.004938
   136  H    0.006383
   137  H    0.014652
   138  H    0.006873
   139  H   -0.002281
   140  H    0.011468
 Sum of Mulliken charges =  -0.00000

 Dipole moment (field-independent basis, Debye):
    X=              4.6578    Y=              5.0752    Z=              1.0818  Tot=              6.9730
 Quadrupole moment (field-independent basis, Debye-Ang):
   XX=           -387.3182   YY=           -418.5794   ZZ=           -410.6215
   XY=            -14.7925   XZ=             10.5067   YZ=              5.3787

 Normal termination of Gaussian 16 at Fri Apr 29 07:14:02 2022.
