 Gaussian 16, Revision A.03,
 Gaussian 16:  ES64L-G16RevA.03 25-Dec-2016

 ---------------------------------
 #p PBE1PBE/Def2SVP td=(nstates=5)
 ---------------------------------

 -----------------------------------------------------
 step_201_chromophore_13 TDDFT with PBE1PBE functional
 -----------------------------------------------------
 Symbolic Z-matrix:
 Charge =  0 Multiplicity = 1

                         Standard orientation:
 ---------------------------------------------------------------------
 Center     Atomic      Atomic             Coordinates (Angstroms)
 Number     Number       Type             X           Y           Z
 ---------------------------------------------------------------------
      1         12           0       -5.670349    0.289340   -0.247097
      2          6           0       -3.441230   -2.311181   -0.140547
      3          6           0       -3.066279    2.504738    0.337836
      4          6           0       -7.960432    2.836062    0.303062
      5          6           0       -8.291968   -1.966409   -0.541922
      6          7           0       -3.523089    0.073511    0.022296
      7          6           0       -2.853016   -1.087396   -0.044582
      8          6           0       -1.368725   -0.845041    0.002303
      9          6           0       -1.261291    0.679994    0.426595
     10          6           0       -2.706018    1.100325    0.237093
     11          6           0       -0.677900    0.959402    1.861637
     12          6           0       -0.513001   -1.215086   -1.295164
     13          6           0        0.705791   -2.208525   -1.046213
     14          6           0        2.162196   -1.726035   -1.216666
     15          8           0        2.459880   -1.014111   -2.164448
     16          8           0        2.929578   -2.440007   -0.418672
     17          7           0       -5.536726    2.357377    0.100199
     18          6           0       -4.343698    3.055288    0.342260
     19          6           0       -4.624833    4.500891    0.482594
     20          6           0       -6.037142    4.554230    0.525119
     21          6           0       -6.618763    3.170713    0.287646
     22          6           0       -3.590546    5.554163    0.517748
     23          6           0       -6.910942    5.863484    0.622171
     24          8           0       -8.137552    5.815915    0.445144
     25          6           0       -6.272820    7.247412    0.896201
     26          7           0       -7.812179    0.478821   -0.068519
     27          6           0       -8.533406    1.621502    0.105285
     28          6           0      -10.053272    1.366283    0.271069
     29          6           0      -10.128080   -0.158484   -0.237274
     30          6           0       -8.664483   -0.586404   -0.394199
     31          6           0      -10.547775    1.626899    1.821631
     32          6           0      -10.939803   -0.402409   -1.448641
     33          6           0      -10.384372    0.016039   -2.845041
     34          7           0       -5.905844   -1.763987   -0.362147
     35          6           0       -7.009972   -2.545651   -0.616701
     36          6           0       -6.610806   -3.983539   -0.727030
     37          6           0       -5.204436   -3.903018   -0.497490
     38          6           0       -4.842409   -2.557521   -0.292815
     39          6           0       -7.448721   -5.163302   -1.029240
     40          6           0       -4.033876   -4.633563   -0.405826
     41          8           0       -3.900323   -5.863360   -0.457035
     42          6           0       -2.830552   -3.626570   -0.192451
     43          6           0       -2.304065   -4.070417    1.181676
     44          8           0       -3.029037   -4.268598    2.175898
     45          8           0       -0.985106   -4.022279    1.226082
     46          6           0       -0.346264   -4.386439    2.519318
     47          6           0        4.346213   -2.307171   -0.786036
     48          6           0        4.963743   -1.352828    0.149605
     49          6           0        6.247283   -0.999845    0.255288
     50          6           0        7.330618   -1.741811   -0.419075
     51          6           0        6.646372    0.068112    1.304583
     52          6           0        6.928429    1.398582    0.687524
     53          6           0        8.431383    1.696747    0.740963
     54          6           0        8.841936    2.926235   -0.099199
     55          6           0        7.755710    4.039133   -0.116405
     56          6           0        9.253113    2.498549   -1.523854
     57          6           0       10.838907    2.788860   -1.583733
     58          6           0       11.499181    1.763590   -2.493263
     59          6           0       12.921045    1.335014   -2.037696
     60          6           0       13.991981    1.257789   -3.111758
     61          6           0       12.932217   -0.054788   -1.327895
     62          6           0       12.171508   -0.050373   -0.008529
     63          6           0       13.085961   -0.654000    1.068513
     64          6           0       12.212574   -1.218674    2.208711
     65          6           0       11.316161   -0.192285    3.002525
     66          6           0       13.138342   -1.944005    3.240606
     67          1           0       -2.247962    3.203356    0.520800
     68          1           0       -8.710306    3.534462    0.680993
     69          1           0       -9.101763   -2.698457   -0.572512
     70          1           0       -0.920661   -1.481890    0.766444
     71          1           0       -0.602276    1.270417   -0.210157
     72          1           0       -0.270563    0.024366    2.244627
     73          1           0       -1.423084    1.443161    2.493538
     74          1           0        0.114721    1.705353    1.808401
     75          1           0       -0.070092   -0.295675   -1.676465
     76          1           0       -1.144450   -1.727477   -2.021101
     77          1           0        0.644070   -3.125792   -1.630794
     78          1           0        0.606239   -2.602669   -0.034950
     79          1           0       -3.710329    6.072039    1.469774
     80          1           0       -3.771858    6.246198   -0.304872
     81          1           0       -2.571333    5.218293    0.327881
     82          1           0       -7.107840    7.893309    1.169812
     83          1           0       -6.010221    7.626553   -0.091654
     84          1           0       -5.362404    7.338864    1.487760
     85          1           0      -10.625407    2.071197   -0.331832
     86          1           0      -10.635928   -0.696600    0.563892
     87          1           0       -9.789406    2.207418    2.346037
     88          1           0      -10.694672    0.671095    2.325858
     89          1           0      -11.434605    2.251897    1.720420
     90          1           0      -11.855790    0.166012   -1.285337
     91          1           0      -11.190284   -1.462738   -1.417589
     92          1           0      -10.137617   -0.918297   -3.350196
     93          1           0       -9.418455    0.521491   -2.861807
     94          1           0      -11.047756    0.620475   -3.462494
     95          1           0       -7.314306   -5.516781   -2.051467
     96          1           0       -8.491296   -5.029541   -0.740403
     97          1           0       -6.960009   -5.984893   -0.504972
     98          1           0       -2.102391   -3.765626   -0.991595
     99          1           0       -0.705345   -3.704460    3.290759
    100          1           0        0.702277   -4.253184    2.254971
    101          1           0       -0.529701   -5.417539    2.822935
    102          1           0        4.541478   -2.015337   -1.817487
    103          1           0        4.799644   -3.280688   -0.597970
    104          1           0        4.273087   -0.845364    0.822904
    105          1           0        7.916738   -2.172541    0.393592
    106          1           0        7.841716   -1.045839   -1.084079
    107          1           0        7.082179   -2.633838   -0.993436
    108          1           0        7.475151   -0.304176    1.906647
    109          1           0        5.804653    0.172907    1.987830
    110          1           0        6.297424    2.122259    1.203825
    111          1           0        6.657058    1.225024   -0.353963
    112          1           0        9.074721    0.827584    0.602189
    113          1           0        8.661501    1.972489    1.770713
    114          1           0        9.714471    3.393499    0.357170
    115          1           0        8.038721    4.975097   -0.598353
    116          1           0        7.489677    4.210759    0.927416
    117          1           0        6.815138    3.737837   -0.577641
    118          1           0        8.772323    3.209217   -2.195705
    119          1           0        8.994570    1.458726   -1.724717
    120          1           0       11.395371    2.849139   -0.648515
    121          1           0       10.889568    3.772458   -2.050450
    122          1           0       11.701617    2.285461   -3.428167
    123          1           0       10.808477    0.954723   -2.728042
    124          1           0       13.360970    1.984812   -1.282213
    125          1           0       14.938497    1.464593   -2.613347
    126          1           0       13.809905    1.909857   -3.966283
    127          1           0       13.919776    0.266438   -3.558528
    128          1           0       13.920692   -0.512004   -1.349785
    129          1           0       12.213823   -0.577289   -1.960477
    130          1           0       11.249042   -0.602513   -0.185872
    131          1           0       11.929545    0.975235    0.270474
    132          1           0       13.532367    0.276537    1.419070
    133          1           0       13.885626   -1.357220    0.834271
    134          1           0       11.512646   -1.981370    1.867798
    135          1           0       11.979708    0.505558    3.514687
    136          1           0       10.858273   -0.804209    3.778482
    137          1           0       10.632192    0.278646    2.296739
    138          1           0       14.086415   -1.425015    3.383203
    139          1           0       13.419126   -2.806908    2.636314
    140          1           0       12.587861   -2.245099    4.131703
 ---------------------------------------------------------------------

 SCF Done:  E(RPBE1PBE) =  -3005.36268767     A.U. after   16 cycles

 Excitation energies and oscillator strengths:

 Excited State   1:      Singlet-A      1.8566 eV  667.79 nm  f=0.3500  <S**2>=0.000
     245 -> 248       -0.16997
     246 -> 247        0.69339
     246 <- 247       -0.10475
 This state for optimization and/or second-order correction.
 Total Energy, E(TD-HF/TD-DFT) =  -3005.29445787
 Copying the excited state density for this state as the 1-particle RhoCI density.

 Excited State   2:      Singlet-A      2.3097 eV  536.79 nm  f=0.0727  <S**2>=0.000
     245 -> 247        0.62595
     246 -> 248        0.31709

 Excited State   3:      Singlet-A      2.8996 eV  427.58 nm  f=0.0014  <S**2>=0.000
     244 -> 247        0.67333
     244 -> 249        0.15212
     244 -> 250        0.12443

 Excited State   4:      Singlet-A      3.1323 eV  395.83 nm  f=0.0012  <S**2>=0.000
     241 -> 247       -0.25487
     243 -> 247        0.64440

 Excited State   5:      Singlet-A      3.2058 eV  386.75 nm  f=0.0396  <S**2>=0.000
     239 -> 247        0.14947
     240 -> 247       -0.37063
     240 -> 249        0.13127
     241 -> 247        0.41223
     242 -> 247        0.10632
     243 -> 247        0.20655
     246 -> 248       -0.25266

 The electronic state is 1-A.
 Alpha  occ. eigenvalues --  -46.91616 -19.27567 -19.26818 -19.19870 -19.19498
 Alpha  occ. eigenvalues --  -19.19044 -19.17328 -14.41782 -14.41049 -14.39424
 Alpha  occ. eigenvalues --  -14.38463 -10.36312 -10.36126 -10.33275 -10.30103
 Alpha  occ. eigenvalues --  -10.29835 -10.29801 -10.29216 -10.28403 -10.28399
 Alpha  occ. eigenvalues --  -10.28191 -10.27794 -10.27631 -10.27037 -10.26602
 Alpha  occ. eigenvalues --  -10.25834 -10.25782 -10.25781 -10.25745 -10.25660
 Alpha  occ. eigenvalues --  -10.25583 -10.25276 -10.25191 -10.25044 -10.24842
 Alpha  occ. eigenvalues --  -10.24772 -10.24758 -10.24438 -10.24392 -10.24231
 Alpha  occ. eigenvalues --  -10.24084 -10.23986 -10.23854 -10.23790 -10.23381
 Alpha  occ. eigenvalues --  -10.23336 -10.23141 -10.23072 -10.23022 -10.22937
 Alpha  occ. eigenvalues --  -10.22834 -10.22737 -10.22718 -10.22701 -10.22684
 Alpha  occ. eigenvalues --  -10.22651 -10.22556 -10.22295 -10.22272 -10.22119
 Alpha  occ. eigenvalues --  -10.22118 -10.21980 -10.21761 -10.21708 -10.21499
 Alpha  occ. eigenvalues --  -10.21486  -3.13727  -1.86587  -1.86076  -1.85970
 Alpha  occ. eigenvalues --   -1.13757  -1.12248  -1.04048  -1.03529  -1.02441
 Alpha  occ. eigenvalues --   -1.00998  -0.99953  -0.97884  -0.96997  -0.95902
 Alpha  occ. eigenvalues --   -0.87540  -0.85790  -0.84521  -0.83486  -0.83357
 Alpha  occ. eigenvalues --   -0.82633  -0.82378  -0.81932  -0.81599  -0.81028
 Alpha  occ. eigenvalues --   -0.80272  -0.80081  -0.78567  -0.77773  -0.77335
 Alpha  occ. eigenvalues --   -0.76695  -0.75877  -0.75640  -0.75535  -0.74936
 Alpha  occ. eigenvalues --   -0.74775  -0.72655  -0.72269  -0.71343  -0.70823
 Alpha  occ. eigenvalues --   -0.70385  -0.69415  -0.69230  -0.68992  -0.68441
 Alpha  occ. eigenvalues --   -0.67984  -0.66924  -0.66040  -0.64761  -0.64122
 Alpha  occ. eigenvalues --   -0.62757  -0.62149  -0.61407  -0.61063  -0.60187
 Alpha  occ. eigenvalues --   -0.60014  -0.59172  -0.58813  -0.58466  -0.58085
 Alpha  occ. eigenvalues --   -0.57699  -0.57123  -0.56959  -0.56141  -0.55397
 Alpha  occ. eigenvalues --   -0.54432  -0.54244  -0.53524  -0.52938  -0.52625
 Alpha  occ. eigenvalues --   -0.52415  -0.51605  -0.51058  -0.50625  -0.50336
 Alpha  occ. eigenvalues --   -0.50068  -0.49634  -0.49212  -0.48871  -0.48634
 Alpha  occ. eigenvalues --   -0.48485  -0.48450  -0.47969  -0.47682  -0.47332
 Alpha  occ. eigenvalues --   -0.47040  -0.46948  -0.46806  -0.46697  -0.46487
 Alpha  occ. eigenvalues --   -0.46359  -0.45972  -0.45753  -0.45468  -0.45212
 Alpha  occ. eigenvalues --   -0.44964  -0.44863  -0.44579  -0.44297  -0.44169
 Alpha  occ. eigenvalues --   -0.44025  -0.43822  -0.43771  -0.43479  -0.43457
 Alpha  occ. eigenvalues --   -0.43319  -0.43070  -0.42867  -0.42599  -0.42327
 Alpha  occ. eigenvalues --   -0.42226  -0.42181  -0.41895  -0.41755  -0.41554
 Alpha  occ. eigenvalues --   -0.41326  -0.41132  -0.40638  -0.40596  -0.40436
 Alpha  occ. eigenvalues --   -0.40210  -0.40051  -0.39678  -0.39655  -0.39391
 Alpha  occ. eigenvalues --   -0.39114  -0.39079  -0.38767  -0.38713  -0.38666
 Alpha  occ. eigenvalues --   -0.38501  -0.38420  -0.38146  -0.38002  -0.37758
 Alpha  occ. eigenvalues --   -0.37732  -0.37518  -0.37400  -0.36919  -0.36845
 Alpha  occ. eigenvalues --   -0.36684  -0.36595  -0.36343  -0.36278  -0.35904
 Alpha  occ. eigenvalues --   -0.35798  -0.35663  -0.35637  -0.35371  -0.35310
 Alpha  occ. eigenvalues --   -0.34811  -0.34415  -0.34324  -0.34162  -0.33994
 Alpha  occ. eigenvalues --   -0.33569  -0.33350  -0.32922  -0.32685  -0.32195
 Alpha  occ. eigenvalues --   -0.31980  -0.31882  -0.31571  -0.31507  -0.31190
 Alpha  occ. eigenvalues --   -0.31144  -0.30110  -0.29267  -0.29156  -0.29073
 Alpha  occ. eigenvalues --   -0.28527  -0.28377  -0.28127  -0.26622  -0.25990
 Alpha  occ. eigenvalues --   -0.25479  -0.25464  -0.24688  -0.24425  -0.21012
 Alpha  occ. eigenvalues --   -0.18197
 Alpha virt. eigenvalues --   -0.10564  -0.05144  -0.03620  -0.01879   0.00481
 Alpha virt. eigenvalues --    0.00546   0.01124   0.01273   0.01552   0.03311
 Alpha virt. eigenvalues --    0.03752   0.04238   0.04587   0.05090   0.05371

 Mulliken charges:
               1
     1  Mg   0.973234
     2  C   -0.001590
     3  C   -0.085499
     4  C   -0.059148
     5  C   -0.074731
     6  N   -0.367176
     7  C    0.034187
     8  C   -0.083971
     9  C   -0.158355
    10  C    0.089840
    11  C    0.010237
    12  C    0.043882
    13  C   -0.085829
    14  C    0.214832
    15  O   -0.273981
    16  O   -0.316438
    17  N   -0.496544
    18  C    0.185384
    19  C   -0.174024
    20  C   -0.104934
    21  C    0.213115
    22  C    0.056552
    23  C    0.065929
    24  O   -0.254979
    25  C   -0.017327
    26  N   -0.407092
    27  C    0.048320
    28  C   -0.119571
    29  C   -0.087101
    30  C    0.116082
    31  C   -0.011015
    32  C   -0.031974
    33  C   -0.071797
    34  N   -0.472854
    35  C    0.113920
    36  C   -0.170219
    37  C    0.047837
    38  C    0.143856
    39  C    0.074384
    40  C    0.041535
    41  O   -0.247914
    42  C   -0.113623
    43  C    0.290607
    44  O   -0.285232
    45  O   -0.333361
    46  C    0.118915
    47  C    0.249953
    48  C   -0.146194
    49  C   -0.256399
    50  C    0.024329
    51  C    0.041074
    52  C   -0.021774
    53  C   -0.083237
    54  C   -0.194026
    55  C   -0.025426
    56  C    0.002125
    57  C   -0.086527
    58  C    0.047705
    59  C   -0.264328
    60  C    0.002720
    61  C   -0.001673
    62  C   -0.057807
    63  C   -0.001967
    64  C   -0.265785
    65  C   -0.038271
    66  C   -0.021112
    67  H   -0.002598
    68  H    0.029023
    69  H    0.003923
    70  H    0.047721
    71  H    0.052263
    72  H    0.047789
    73  H    0.051523
    74  H    0.035297
    75  H    0.057544
    76  H    0.045368
    77  H    0.071106
    78  H    0.049370
    79  H    0.072249
    80  H    0.058970
    81  H    0.045836
    82  H    0.059501
    83  H    0.058893
    84  H    0.051292
    85  H    0.049758
    86  H    0.039289
    87  H    0.054911
    88  H    0.052879
    89  H    0.053428
    90  H    0.035319
    91  H    0.039974
    92  H    0.038877
    93  H    0.047053
    94  H    0.047141
    95  H    0.058602
    96  H    0.046845
    97  H    0.059584
    98  H    0.063458
    99  H    0.069869
   100  H    0.062871
   101  H    0.077453
   102  H    0.082329
   103  H    0.055220
   104  H    0.020919
   105  H    0.052647
   106  H    0.055762
   107  H    0.029793
   108  H    0.027685
   109  H    0.016410
   110  H    0.040984
   111  H    0.045826
   112  H    0.052184
   113  H    0.031923
   114  H    0.034621
   115  H    0.038523
   116  H    0.025136
   117  H    0.037513
   118  H    0.029575
   119  H    0.039380
   120  H    0.044184
   121  H    0.033273
   122  H    0.016440
   123  H    0.024087
   124  H    0.023960
   125  H    0.042781
   126  H    0.023722
   127  H    0.027606
   128  H    0.033555
   129  H    0.015865
   130  H    0.035259
   131  H    0.038967
   132  H    0.025010
   133  H    0.035937
   134  H    0.031782
   135  H    0.033198
   136  H    0.034740
   137  H    0.049620
   138  H    0.035175
   139  H    0.027621
   140  H    0.038664
 Sum of Mulliken charges =  -0.00000

 Dipole moment (field-independent basis, Debye):
    X=              4.4339    Y=              4.2380    Z=              0.9316  Tot=              6.2039
 Quadrupole moment (field-independent basis, Debye-Ang):
   XX=           -379.3159   YY=           -416.3505   ZZ=           -408.1743
   XY=             -9.3502   XZ=             11.5343   YZ=              5.4805

 Normal termination of Gaussian 16 at Fri Apr 29 07:35:41 2022.
