 Gaussian 16, Revision A.03,
 Gaussian 16:  ES64L-G16RevA.03 25-Dec-2016

 --------------------------------
 #p wB97XD/Def2SVP td=(nstates=5)
 --------------------------------

 ----------------------------------------------------
 step_201_chromophore_13 TDDFT with wB97XD functional
 ----------------------------------------------------
 Symbolic Z-matrix:
 Charge =  0 Multiplicity = 1

                         Standard orientation:
 ---------------------------------------------------------------------
 Center     Atomic      Atomic             Coordinates (Angstroms)
 Number     Number       Type             X           Y           Z
 ---------------------------------------------------------------------
      1         12           0       -5.670349    0.289340   -0.247097
      2          6           0       -3.441230   -2.311181   -0.140547
      3          6           0       -3.066279    2.504738    0.337836
      4          6           0       -7.960432    2.836062    0.303062
      5          6           0       -8.291968   -1.966409   -0.541922
      6          7           0       -3.523089    0.073511    0.022296
      7          6           0       -2.853016   -1.087396   -0.044582
      8          6           0       -1.368725   -0.845041    0.002303
      9          6           0       -1.261291    0.679994    0.426595
     10          6           0       -2.706018    1.100325    0.237093
     11          6           0       -0.677900    0.959402    1.861637
     12          6           0       -0.513001   -1.215086   -1.295164
     13          6           0        0.705791   -2.208525   -1.046213
     14          6           0        2.162196   -1.726035   -1.216666
     15          8           0        2.459880   -1.014111   -2.164448
     16          8           0        2.929578   -2.440007   -0.418672
     17          7           0       -5.536726    2.357377    0.100199
     18          6           0       -4.343698    3.055288    0.342260
     19          6           0       -4.624833    4.500891    0.482594
     20          6           0       -6.037142    4.554230    0.525119
     21          6           0       -6.618763    3.170713    0.287646
     22          6           0       -3.590546    5.554163    0.517748
     23          6           0       -6.910942    5.863484    0.622171
     24          8           0       -8.137552    5.815915    0.445144
     25          6           0       -6.272820    7.247412    0.896201
     26          7           0       -7.812179    0.478821   -0.068519
     27          6           0       -8.533406    1.621502    0.105285
     28          6           0      -10.053272    1.366283    0.271069
     29          6           0      -10.128080   -0.158484   -0.237274
     30          6           0       -8.664483   -0.586404   -0.394199
     31          6           0      -10.547775    1.626899    1.821631
     32          6           0      -10.939803   -0.402409   -1.448641
     33          6           0      -10.384372    0.016039   -2.845041
     34          7           0       -5.905844   -1.763987   -0.362147
     35          6           0       -7.009972   -2.545651   -0.616701
     36          6           0       -6.610806   -3.983539   -0.727030
     37          6           0       -5.204436   -3.903018   -0.497490
     38          6           0       -4.842409   -2.557521   -0.292815
     39          6           0       -7.448721   -5.163302   -1.029240
     40          6           0       -4.033876   -4.633563   -0.405826
     41          8           0       -3.900323   -5.863360   -0.457035
     42          6           0       -2.830552   -3.626570   -0.192451
     43          6           0       -2.304065   -4.070417    1.181676
     44          8           0       -3.029037   -4.268598    2.175898
     45          8           0       -0.985106   -4.022279    1.226082
     46          6           0       -0.346264   -4.386439    2.519318
     47          6           0        4.346213   -2.307171   -0.786036
     48          6           0        4.963743   -1.352828    0.149605
     49          6           0        6.247283   -0.999845    0.255288
     50          6           0        7.330618   -1.741811   -0.419075
     51          6           0        6.646372    0.068112    1.304583
     52          6           0        6.928429    1.398582    0.687524
     53          6           0        8.431383    1.696747    0.740963
     54          6           0        8.841936    2.926235   -0.099199
     55          6           0        7.755710    4.039133   -0.116405
     56          6           0        9.253113    2.498549   -1.523854
     57          6           0       10.838907    2.788860   -1.583733
     58          6           0       11.499181    1.763590   -2.493263
     59          6           0       12.921045    1.335014   -2.037696
     60          6           0       13.991981    1.257789   -3.111758
     61          6           0       12.932217   -0.054788   -1.327895
     62          6           0       12.171508   -0.050373   -0.008529
     63          6           0       13.085961   -0.654000    1.068513
     64          6           0       12.212574   -1.218674    2.208711
     65          6           0       11.316161   -0.192285    3.002525
     66          6           0       13.138342   -1.944005    3.240606
     67          1           0       -2.247962    3.203356    0.520800
     68          1           0       -8.710306    3.534462    0.680993
     69          1           0       -9.101763   -2.698457   -0.572512
     70          1           0       -0.920661   -1.481890    0.766444
     71          1           0       -0.602276    1.270417   -0.210157
     72          1           0       -0.270563    0.024366    2.244627
     73          1           0       -1.423084    1.443161    2.493538
     74          1           0        0.114721    1.705353    1.808401
     75          1           0       -0.070092   -0.295675   -1.676465
     76          1           0       -1.144450   -1.727477   -2.021101
     77          1           0        0.644070   -3.125792   -1.630794
     78          1           0        0.606239   -2.602669   -0.034950
     79          1           0       -3.710329    6.072039    1.469774
     80          1           0       -3.771858    6.246198   -0.304872
     81          1           0       -2.571333    5.218293    0.327881
     82          1           0       -7.107840    7.893309    1.169812
     83          1           0       -6.010221    7.626553   -0.091654
     84          1           0       -5.362404    7.338864    1.487760
     85          1           0      -10.625407    2.071197   -0.331832
     86          1           0      -10.635928   -0.696600    0.563892
     87          1           0       -9.789406    2.207418    2.346037
     88          1           0      -10.694672    0.671095    2.325858
     89          1           0      -11.434605    2.251897    1.720420
     90          1           0      -11.855790    0.166012   -1.285337
     91          1           0      -11.190284   -1.462738   -1.417589
     92          1           0      -10.137617   -0.918297   -3.350196
     93          1           0       -9.418455    0.521491   -2.861807
     94          1           0      -11.047756    0.620475   -3.462494
     95          1           0       -7.314306   -5.516781   -2.051467
     96          1           0       -8.491296   -5.029541   -0.740403
     97          1           0       -6.960009   -5.984893   -0.504972
     98          1           0       -2.102391   -3.765626   -0.991595
     99          1           0       -0.705345   -3.704460    3.290759
    100          1           0        0.702277   -4.253184    2.254971
    101          1           0       -0.529701   -5.417539    2.822935
    102          1           0        4.541478   -2.015337   -1.817487
    103          1           0        4.799644   -3.280688   -0.597970
    104          1           0        4.273087   -0.845364    0.822904
    105          1           0        7.916738   -2.172541    0.393592
    106          1           0        7.841716   -1.045839   -1.084079
    107          1           0        7.082179   -2.633838   -0.993436
    108          1           0        7.475151   -0.304176    1.906647
    109          1           0        5.804653    0.172907    1.987830
    110          1           0        6.297424    2.122259    1.203825
    111          1           0        6.657058    1.225024   -0.353963
    112          1           0        9.074721    0.827584    0.602189
    113          1           0        8.661501    1.972489    1.770713
    114          1           0        9.714471    3.393499    0.357170
    115          1           0        8.038721    4.975097   -0.598353
    116          1           0        7.489677    4.210759    0.927416
    117          1           0        6.815138    3.737837   -0.577641
    118          1           0        8.772323    3.209217   -2.195705
    119          1           0        8.994570    1.458726   -1.724717
    120          1           0       11.395371    2.849139   -0.648515
    121          1           0       10.889568    3.772458   -2.050450
    122          1           0       11.701617    2.285461   -3.428167
    123          1           0       10.808477    0.954723   -2.728042
    124          1           0       13.360970    1.984812   -1.282213
    125          1           0       14.938497    1.464593   -2.613347
    126          1           0       13.809905    1.909857   -3.966283
    127          1           0       13.919776    0.266438   -3.558528
    128          1           0       13.920692   -0.512004   -1.349785
    129          1           0       12.213823   -0.577289   -1.960477
    130          1           0       11.249042   -0.602513   -0.185872
    131          1           0       11.929545    0.975235    0.270474
    132          1           0       13.532367    0.276537    1.419070
    133          1           0       13.885626   -1.357220    0.834271
    134          1           0       11.512646   -1.981370    1.867798
    135          1           0       11.979708    0.505558    3.514687
    136          1           0       10.858273   -0.804209    3.778482
    137          1           0       10.632192    0.278646    2.296739
    138          1           0       14.086415   -1.425015    3.383203
    139          1           0       13.419126   -2.806908    2.636314
    140          1           0       12.587861   -2.245099    4.131703
 ---------------------------------------------------------------------

 SCF Done:  E(RwB97XD) =  -3007.87688157     A.U. after   19 cycles

 Excitation energies and oscillator strengths:

 Excited State   1:      Singlet-A      1.7248 eV  718.81 nm  f=0.3631  <S**2>=0.000
     245 -> 248       -0.17465
     246 -> 247        0.68540
     245 <- 248       -0.11015
 This state for optimization and/or second-order correction.
 Total Energy, E(TD-HF/TD-DFT) =  -3007.81349459
 Copying the excited state density for this state as the 1-particle RhoCI density.

 Excited State   2:      Singlet-A      2.2812 eV  543.50 nm  f=0.0617  <S**2>=0.000
     245 -> 247        0.60437
     246 -> 248        0.35063

 Excited State   3:      Singlet-A      3.4624 eV  358.09 nm  f=0.6167  <S**2>=0.000
     240 -> 247       -0.12112
     241 -> 247       -0.29283
     245 -> 247       -0.28298
     246 -> 248        0.54463

 Excited State   4:      Singlet-A      3.5312 eV  351.11 nm  f=0.0064  <S**2>=0.000
     241 -> 247        0.21747
     243 -> 247        0.47463
     243 -> 249        0.23760
     243 -> 250        0.25457
     244 -> 247       -0.24913

 Excited State   5:      Singlet-A      3.6052 eV  343.90 nm  f=0.1144  <S**2>=0.000
     241 -> 247       -0.35068
     243 -> 247        0.26379
     243 -> 249        0.15515
     243 -> 250        0.16478
     244 -> 247        0.41210
     245 -> 247        0.12362
     246 -> 248       -0.19579

 The electronic state is 1-A.
 Alpha  occ. eigenvalues --  -46.94556 -19.32106 -19.31308 -19.24667 -19.24503
 Alpha  occ. eigenvalues --  -19.23596 -19.21733 -14.47001 -14.45988 -14.44546
 Alpha  occ. eigenvalues --  -14.43172 -10.43070 -10.42810 -10.40451 -10.36630
 Alpha  occ. eigenvalues --  -10.36314 -10.36275 -10.35975 -10.35240 -10.35132
 Alpha  occ. eigenvalues --  -10.34244 -10.34209 -10.33906 -10.33621 -10.32759
 Alpha  occ. eigenvalues --  -10.32533 -10.32221 -10.32059 -10.32004 -10.31816
 Alpha  occ. eigenvalues --  -10.31676 -10.31649 -10.31620 -10.31553 -10.31152
 Alpha  occ. eigenvalues --  -10.31035 -10.30959 -10.30841 -10.30729 -10.30595
 Alpha  occ. eigenvalues --  -10.30581 -10.30516 -10.30245 -10.30242 -10.29662
 Alpha  occ. eigenvalues --  -10.29517 -10.29469 -10.29437 -10.29334 -10.29153
 Alpha  occ. eigenvalues --  -10.29144 -10.29132 -10.29099 -10.29083 -10.29049
 Alpha  occ. eigenvalues --  -10.29008 -10.28936 -10.28702 -10.28569 -10.28567
 Alpha  occ. eigenvalues --  -10.28486 -10.28446 -10.28189 -10.28063 -10.27922
 Alpha  occ. eigenvalues --  -10.27350  -3.20517  -1.94127  -1.93615  -1.93510
 Alpha  occ. eigenvalues --   -1.21102  -1.19541  -1.11887  -1.10841  -1.09605
 Alpha  occ. eigenvalues --   -1.08225  -1.07427  -1.04894  -1.04606  -1.03353
 Alpha  occ. eigenvalues --   -0.94952  -0.93470  -0.92195  -0.91294  -0.91032
 Alpha  occ. eigenvalues --   -0.90296  -0.90000  -0.89614  -0.89390  -0.88657
 Alpha  occ. eigenvalues --   -0.87778  -0.87555  -0.86242  -0.85311  -0.84997
 Alpha  occ. eigenvalues --   -0.84356  -0.83569  -0.83486  -0.83083  -0.82665
 Alpha  occ. eigenvalues --   -0.82421  -0.80641  -0.79868  -0.78853  -0.78377
 Alpha  occ. eigenvalues --   -0.78054  -0.77138  -0.76821  -0.76689  -0.76114
 Alpha  occ. eigenvalues --   -0.75597  -0.74331  -0.73633  -0.72395  -0.71595
 Alpha  occ. eigenvalues --   -0.70179  -0.69759  -0.69083  -0.68783  -0.67767
 Alpha  occ. eigenvalues --   -0.67693  -0.66557  -0.66306  -0.65909  -0.65500
 Alpha  occ. eigenvalues --   -0.65375  -0.64631  -0.64446  -0.63780  -0.62944
 Alpha  occ. eigenvalues --   -0.62122  -0.61680  -0.60880  -0.60343  -0.60082
 Alpha  occ. eigenvalues --   -0.59876  -0.58953  -0.58544  -0.57937  -0.57789
 Alpha  occ. eigenvalues --   -0.57457  -0.57027  -0.56475  -0.56378  -0.56043
 Alpha  occ. eigenvalues --   -0.55927  -0.55817  -0.55380  -0.55056  -0.54763
 Alpha  occ. eigenvalues --   -0.54681  -0.54385  -0.54297  -0.54100  -0.53843
 Alpha  occ. eigenvalues --   -0.53650  -0.53314  -0.52994  -0.52807  -0.52582
 Alpha  occ. eigenvalues --   -0.52293  -0.52065  -0.51966  -0.51908  -0.51634
 Alpha  occ. eigenvalues --   -0.51550  -0.51331  -0.51117  -0.50817  -0.50654
 Alpha  occ. eigenvalues --   -0.50638  -0.50346  -0.50156  -0.49861  -0.49705
 Alpha  occ. eigenvalues --   -0.49563  -0.49494  -0.49178  -0.48977  -0.48744
 Alpha  occ. eigenvalues --   -0.48556  -0.48414  -0.47875  -0.47646  -0.47530
 Alpha  occ. eigenvalues --   -0.47318  -0.47238  -0.46964  -0.46804  -0.46602
 Alpha  occ. eigenvalues --   -0.46251  -0.46095  -0.45897  -0.45845  -0.45777
 Alpha  occ. eigenvalues --   -0.45699  -0.45580  -0.45382  -0.45009  -0.44908
 Alpha  occ. eigenvalues --   -0.44697  -0.44578  -0.44453  -0.44068  -0.43896
 Alpha  occ. eigenvalues --   -0.43783  -0.43737  -0.43710  -0.43482  -0.42942
 Alpha  occ. eigenvalues --   -0.42872  -0.42730  -0.42634  -0.42387  -0.42320
 Alpha  occ. eigenvalues --   -0.41806  -0.41438  -0.41359  -0.41183  -0.40990
 Alpha  occ. eigenvalues --   -0.40608  -0.40411  -0.39772  -0.39705  -0.39101
 Alpha  occ. eigenvalues --   -0.38966  -0.38912  -0.38510  -0.38398  -0.38201
 Alpha  occ. eigenvalues --   -0.38152  -0.37159  -0.36015  -0.36001  -0.35991
 Alpha  occ. eigenvalues --   -0.35554  -0.35270  -0.34832  -0.33534  -0.33255
 Alpha  occ. eigenvalues --   -0.32308  -0.32224  -0.31237  -0.30808  -0.26142
 Alpha  occ. eigenvalues --   -0.22365
 Alpha virt. eigenvalues --   -0.06287   0.00264   0.02550   0.04706   0.06357
 Alpha virt. eigenvalues --    0.07385   0.07832   0.08105   0.08353   0.09608
 Alpha virt. eigenvalues --    0.10328   0.10781   0.11490   0.11688   0.12023

 Mulliken charges:
               1
     1  Mg   0.963153
     2  C    0.004246
     3  C   -0.109288
     4  C   -0.082060
     5  C   -0.087215
     6  N   -0.326977
     7  C   -0.005890
     8  C   -0.050568
     9  C   -0.136733
    10  C    0.079717
    11  C    0.020858
    12  C    0.052743
    13  C   -0.061133
    14  C    0.201988
    15  O   -0.272122
    16  O   -0.315576
    17  N   -0.467167
    18  C    0.188329
    19  C   -0.162440
    20  C   -0.098439
    21  C    0.212203
    22  C    0.068779
    23  C    0.062570
    24  O   -0.247301
    25  C   -0.006693
    26  N   -0.376750
    27  C    0.042209
    28  C   -0.105200
    29  C   -0.056069
    30  C    0.098887
    31  C    0.001877
    32  C   -0.017624
    33  C   -0.055541
    34  N   -0.431703
    35  C    0.098227
    36  C   -0.172521
    37  C    0.055907
    38  C    0.112600
    39  C    0.085352
    40  C    0.023416
    41  O   -0.241358
    42  C   -0.070269
    43  C    0.265777
    44  O   -0.281578
    45  O   -0.330226
    46  C    0.133124
    47  C    0.267583
    48  C   -0.162222
    49  C   -0.234497
    50  C    0.038216
    51  C    0.057693
    52  C   -0.002855
    53  C   -0.054317
    54  C   -0.164412
    55  C   -0.009842
    56  C    0.017098
    57  C   -0.067822
    58  C    0.060609
    59  C   -0.231177
    60  C    0.016069
    61  C    0.015727
    62  C   -0.032788
    63  C    0.011728
    64  C   -0.235043
    65  C   -0.013170
    66  C   -0.007460
    67  H   -0.009283
    68  H    0.023970
    69  H   -0.003606
    70  H    0.024661
    71  H    0.043558
    72  H    0.043973
    73  H    0.045078
    74  H    0.030584
    75  H    0.048680
    76  H    0.038054
    77  H    0.065955
    78  H    0.034302
    79  H    0.067740
    80  H    0.054894
    81  H    0.044693
    82  H    0.059588
    83  H    0.054928
    84  H    0.047704
    85  H    0.040956
    86  H    0.028296
    87  H    0.047098
    88  H    0.048458
    89  H    0.048427
    90  H    0.025707
    91  H    0.032697
    92  H    0.032798
    93  H    0.037380
    94  H    0.042143
    95  H    0.051842
    96  H    0.040571
    97  H    0.053387
    98  H    0.055539
    99  H    0.066065
   100  H    0.060215
   101  H    0.074174
   102  H    0.078260
   103  H    0.050541
   104  H    0.016328
   105  H    0.046436
   106  H    0.048086
   107  H    0.025538
   108  H    0.018438
   109  H    0.009917
   110  H    0.034047
   111  H    0.031167
   112  H    0.027848
   113  H    0.021908
   114  H    0.021884
   115  H    0.033642
   116  H    0.017171
   117  H    0.029373
   118  H    0.021651
   119  H    0.025841
   120  H    0.033185
   121  H    0.025676
   122  H    0.007135
   123  H    0.014965
   124  H    0.009420
   125  H    0.037600
   126  H    0.017896
   127  H    0.019810
   128  H    0.025627
   129  H    0.002471
   130  H    0.024852
   131  H    0.019201
   132  H    0.014121
   133  H    0.028719
   134  H    0.019951
   135  H    0.026046
   136  H    0.027857
   137  H    0.031645
   138  H    0.028682
   139  H    0.019592
   140  H    0.033607
 Sum of Mulliken charges =  -0.00000

 Dipole moment (field-independent basis, Debye):
    X=              4.7327    Y=              5.3550    Z=              1.1326  Tot=              7.2358
 Quadrupole moment (field-independent basis, Debye-Ang):
   XX=           -382.6703   YY=           -413.9030   ZZ=           -407.7699
   XY=            -16.0953   XZ=             10.5366   YZ=              5.6825

 Normal termination of Gaussian 16 at Fri Apr 29 08:03:03 2022.
