 Gaussian 16, Revision A.03,
 Gaussian 16:  ES64L-G16RevA.03 25-Dec-2016

 --------------------
 #p ZINDO=(nstates=5)
 --------------------

 -----------------------------
 step_201_chromophore_13 ZINDO
 -----------------------------
 Symbolic Z-matrix:
 Charge =  0 Multiplicity = 1

                         Standard orientation:
 ---------------------------------------------------------------------
 Center     Atomic      Atomic             Coordinates (Angstroms)
 Number     Number       Type             X           Y           Z
 ---------------------------------------------------------------------
      1         12           0       -5.670349    0.289340   -0.247097
      2          6           0       -3.441230   -2.311181   -0.140547
      3          6           0       -3.066279    2.504738    0.337836
      4          6           0       -7.960432    2.836062    0.303062
      5          6           0       -8.291968   -1.966409   -0.541922
      6          7           0       -3.523089    0.073511    0.022296
      7          6           0       -2.853016   -1.087396   -0.044582
      8          6           0       -1.368725   -0.845041    0.002303
      9          6           0       -1.261291    0.679994    0.426595
     10          6           0       -2.706018    1.100325    0.237093
     11          6           0       -0.677900    0.959402    1.861637
     12          6           0       -0.513001   -1.215086   -1.295164
     13          6           0        0.705791   -2.208525   -1.046213
     14          6           0        2.162196   -1.726035   -1.216666
     15          8           0        2.459880   -1.014111   -2.164448
     16          8           0        2.929578   -2.440007   -0.418672
     17          7           0       -5.536726    2.357377    0.100199
     18          6           0       -4.343698    3.055288    0.342260
     19          6           0       -4.624833    4.500891    0.482594
     20          6           0       -6.037142    4.554230    0.525119
     21          6           0       -6.618763    3.170713    0.287646
     22          6           0       -3.590546    5.554163    0.517748
     23          6           0       -6.910942    5.863484    0.622171
     24          8           0       -8.137552    5.815915    0.445144
     25          6           0       -6.272820    7.247412    0.896201
     26          7           0       -7.812179    0.478821   -0.068519
     27          6           0       -8.533406    1.621502    0.105285
     28          6           0      -10.053272    1.366283    0.271069
     29          6           0      -10.128080   -0.158484   -0.237274
     30          6           0       -8.664483   -0.586404   -0.394199
     31          6           0      -10.547775    1.626899    1.821631
     32          6           0      -10.939803   -0.402409   -1.448641
     33          6           0      -10.384372    0.016039   -2.845041
     34          7           0       -5.905844   -1.763987   -0.362147
     35          6           0       -7.009972   -2.545651   -0.616701
     36          6           0       -6.610806   -3.983539   -0.727030
     37          6           0       -5.204436   -3.903018   -0.497490
     38          6           0       -4.842409   -2.557521   -0.292815
     39          6           0       -7.448721   -5.163302   -1.029240
     40          6           0       -4.033876   -4.633563   -0.405826
     41          8           0       -3.900323   -5.863360   -0.457035
     42          6           0       -2.830552   -3.626570   -0.192451
     43          6           0       -2.304065   -4.070417    1.181676
     44          8           0       -3.029037   -4.268598    2.175898
     45          8           0       -0.985106   -4.022279    1.226082
     46          6           0       -0.346264   -4.386439    2.519318
     47          6           0        4.346213   -2.307171   -0.786036
     48          6           0        4.963743   -1.352828    0.149605
     49          6           0        6.247283   -0.999845    0.255288
     50          6           0        7.330618   -1.741811   -0.419075
     51          6           0        6.646372    0.068112    1.304583
     52          6           0        6.928429    1.398582    0.687524
     53          6           0        8.431383    1.696747    0.740963
     54          6           0        8.841936    2.926235   -0.099199
     55          6           0        7.755710    4.039133   -0.116405
     56          6           0        9.253113    2.498549   -1.523854
     57          6           0       10.838907    2.788860   -1.583733
     58          6           0       11.499181    1.763590   -2.493263
     59          6           0       12.921045    1.335014   -2.037696
     60          6           0       13.991981    1.257789   -3.111758
     61          6           0       12.932217   -0.054788   -1.327895
     62          6           0       12.171508   -0.050373   -0.008529
     63          6           0       13.085961   -0.654000    1.068513
     64          6           0       12.212574   -1.218674    2.208711
     65          6           0       11.316161   -0.192285    3.002525
     66          6           0       13.138342   -1.944005    3.240606
     67          1           0       -2.247962    3.203356    0.520800
     68          1           0       -8.710306    3.534462    0.680993
     69          1           0       -9.101763   -2.698457   -0.572512
     70          1           0       -0.920661   -1.481890    0.766444
     71          1           0       -0.602276    1.270417   -0.210157
     72          1           0       -0.270563    0.024366    2.244627
     73          1           0       -1.423084    1.443161    2.493538
     74          1           0        0.114721    1.705353    1.808401
     75          1           0       -0.070092   -0.295675   -1.676465
     76          1           0       -1.144450   -1.727477   -2.021101
     77          1           0        0.644070   -3.125792   -1.630794
     78          1           0        0.606239   -2.602669   -0.034950
     79          1           0       -3.710329    6.072039    1.469774
     80          1           0       -3.771858    6.246198   -0.304872
     81          1           0       -2.571333    5.218293    0.327881
     82          1           0       -7.107840    7.893309    1.169812
     83          1           0       -6.010221    7.626553   -0.091654
     84          1           0       -5.362404    7.338864    1.487760
     85          1           0      -10.625407    2.071197   -0.331832
     86          1           0      -10.635928   -0.696600    0.563892
     87          1           0       -9.789406    2.207418    2.346037
     88          1           0      -10.694672    0.671095    2.325858
     89          1           0      -11.434605    2.251897    1.720420
     90          1           0      -11.855790    0.166012   -1.285337
     91          1           0      -11.190284   -1.462738   -1.417589
     92          1           0      -10.137617   -0.918297   -3.350196
     93          1           0       -9.418455    0.521491   -2.861807
     94          1           0      -11.047756    0.620475   -3.462494
     95          1           0       -7.314306   -5.516781   -2.051467
     96          1           0       -8.491296   -5.029541   -0.740403
     97          1           0       -6.960009   -5.984893   -0.504972
     98          1           0       -2.102391   -3.765626   -0.991595
     99          1           0       -0.705345   -3.704460    3.290759
    100          1           0        0.702277   -4.253184    2.254971
    101          1           0       -0.529701   -5.417539    2.822935
    102          1           0        4.541478   -2.015337   -1.817487
    103          1           0        4.799644   -3.280688   -0.597970
    104          1           0        4.273087   -0.845364    0.822904
    105          1           0        7.916738   -2.172541    0.393592
    106          1           0        7.841716   -1.045839   -1.084079
    107          1           0        7.082179   -2.633838   -0.993436
    108          1           0        7.475151   -0.304176    1.906647
    109          1           0        5.804653    0.172907    1.987830
    110          1           0        6.297424    2.122259    1.203825
    111          1           0        6.657058    1.225024   -0.353963
    112          1           0        9.074721    0.827584    0.602189
    113          1           0        8.661501    1.972489    1.770713
    114          1           0        9.714471    3.393499    0.357170
    115          1           0        8.038721    4.975097   -0.598353
    116          1           0        7.489677    4.210759    0.927416
    117          1           0        6.815138    3.737837   -0.577641
    118          1           0        8.772323    3.209217   -2.195705
    119          1           0        8.994570    1.458726   -1.724717
    120          1           0       11.395371    2.849139   -0.648515
    121          1           0       10.889568    3.772458   -2.050450
    122          1           0       11.701617    2.285461   -3.428167
    123          1           0       10.808477    0.954723   -2.728042
    124          1           0       13.360970    1.984812   -1.282213
    125          1           0       14.938497    1.464593   -2.613347
    126          1           0       13.809905    1.909857   -3.966283
    127          1           0       13.919776    0.266438   -3.558528
    128          1           0       13.920692   -0.512004   -1.349785
    129          1           0       12.213823   -0.577289   -1.960477
    130          1           0       11.249042   -0.602513   -0.185872
    131          1           0       11.929545    0.975235    0.270474
    132          1           0       13.532367    0.276537    1.419070
    133          1           0       13.885626   -1.357220    0.834271
    134          1           0       11.512646   -1.981370    1.867798
    135          1           0       11.979708    0.505558    3.514687
    136          1           0       10.858273   -0.804209    3.778482
    137          1           0       10.632192    0.278646    2.296739
    138          1           0       14.086415   -1.425015    3.383203
    139          1           0       13.419126   -2.806908    2.636314
    140          1           0       12.587861   -2.245099    4.131703
 ---------------------------------------------------------------------

 SCF Done:  E(RZINDO/S) =  -474.405370006     A.U. after   18 cycles

 Excitation energies and oscillator strengths:

 Excited State   1:      Singlet-A      1.3615 eV  910.67 nm  f=0.5329  <S**2>=0.000
     175 ->178        -0.15718
     176 ->177         0.67349
 This state for optimization and/or second-order correction.
 Total Energy, E(CIS/TDA) =  -474.355337201
 Copying the excited state density for this state as the 1-particle RhoCI density.

 Excited State   2:      Singlet-A      1.9844 eV  624.81 nm  f=0.0025  <S**2>=0.000
     175 ->177         0.48056
     176 ->178         0.48778

 Excited State   3:      Singlet-A      2.9677 eV  417.78 nm  f=0.4443  <S**2>=0.000
     171 ->177         0.13702
     171 ->179         0.10662
     171 ->181         0.15770
     175 ->177        -0.31481
     176 ->178         0.35210
     176 ->179        -0.29568
     176 ->180         0.10885
     176 ->181        -0.20890

 Excited State   4:      Singlet-A      3.0131 eV  411.49 nm  f=0.1966  <S**2>=0.000
     167 ->177         0.13120
     167 ->179        -0.22072
     167 ->185        -0.11702
     168 ->177         0.22221
     168 ->179        -0.33163
     168 ->181         0.15467
     168 ->185        -0.16839
     175 ->177        -0.16329
     176 ->178         0.15450
     176 ->179         0.24282

 Excited State   5:      Singlet-A      3.0274 eV  409.54 nm  f=0.1326  <S**2>=0.000
     168 ->179        -0.10394
     171 ->177         0.25492
     171 ->178        -0.12862
     171 ->179         0.20716
     171 ->180        -0.15573
     171 ->181         0.30481
     171 ->184         0.14047
     171 ->185         0.12031
     171 ->188         0.14388
     175 ->177         0.15461
     176 ->178        -0.17434
     176 ->179         0.16113

 The electronic state is 1-A.
 Alpha  occ. eigenvalues --   -1.85137  -1.80097  -1.78823  -1.76862  -1.73117
 Alpha  occ. eigenvalues --   -1.69821  -1.67866  -1.63052  -1.59282  -1.57398
 Alpha  occ. eigenvalues --   -1.56421  -1.53017  -1.49735  -1.47155  -1.46662
 Alpha  occ. eigenvalues --   -1.43856  -1.42268  -1.40293  -1.39688  -1.37898
 Alpha  occ. eigenvalues --   -1.35630  -1.34118  -1.32287  -1.31835  -1.29847
 Alpha  occ. eigenvalues --   -1.27718  -1.24686  -1.22012  -1.21060  -1.18759
 Alpha  occ. eigenvalues --   -1.17115  -1.16451  -1.15035  -1.13679  -1.13155
 Alpha  occ. eigenvalues --   -1.12822  -1.11181  -1.10612  -1.05236  -1.04379
 Alpha  occ. eigenvalues --   -1.03636  -1.01265  -0.99526  -0.98500  -0.96936
 Alpha  occ. eigenvalues --   -0.96376  -0.94428  -0.92695  -0.92459  -0.92071
 Alpha  occ. eigenvalues --   -0.90368  -0.89668  -0.88190  -0.87485  -0.85199
 Alpha  occ. eigenvalues --   -0.85048  -0.83438  -0.82788  -0.81935  -0.81515
 Alpha  occ. eigenvalues --   -0.80132  -0.79802  -0.77877  -0.77213  -0.76762
 Alpha  occ. eigenvalues --   -0.75825  -0.75259  -0.74851  -0.74370  -0.73489
 Alpha  occ. eigenvalues --   -0.72734  -0.72440  -0.72169  -0.71769  -0.71416
 Alpha  occ. eigenvalues --   -0.71034  -0.70017  -0.69373  -0.68831  -0.68302
 Alpha  occ. eigenvalues --   -0.67652  -0.66690  -0.66585  -0.66151  -0.65983
 Alpha  occ. eigenvalues --   -0.65766  -0.65076  -0.64264  -0.64105  -0.63019
 Alpha  occ. eigenvalues --   -0.62710  -0.62446  -0.62144  -0.61861  -0.61632
 Alpha  occ. eigenvalues --   -0.61177  -0.60944  -0.60531  -0.60454  -0.60177
 Alpha  occ. eigenvalues --   -0.59652  -0.59547  -0.59130  -0.58983  -0.58634
 Alpha  occ. eigenvalues --   -0.57958  -0.57247  -0.57014  -0.56664  -0.56114
 Alpha  occ. eigenvalues --   -0.55181  -0.54951  -0.54717  -0.54433  -0.54323
 Alpha  occ. eigenvalues --   -0.53984  -0.53775  -0.53604  -0.53433  -0.53187
 Alpha  occ. eigenvalues --   -0.52911  -0.52684  -0.52261  -0.51923  -0.51692
 Alpha  occ. eigenvalues --   -0.51491  -0.51460  -0.51181  -0.50948  -0.50866
 Alpha  occ. eigenvalues --   -0.50428  -0.49997  -0.49894  -0.49434  -0.49154
 Alpha  occ. eigenvalues --   -0.48538  -0.48254  -0.48063  -0.47978  -0.47793
 Alpha  occ. eigenvalues --   -0.47663  -0.47629  -0.47516  -0.46721  -0.46618
 Alpha  occ. eigenvalues --   -0.46361  -0.46254  -0.45849  -0.45329  -0.45211
 Alpha  occ. eigenvalues --   -0.45091  -0.44822  -0.44657  -0.43950  -0.43763
 Alpha  occ. eigenvalues --   -0.43630  -0.42592  -0.42367  -0.41957  -0.41647
 Alpha  occ. eigenvalues --   -0.41581  -0.40455  -0.40451  -0.39027  -0.38657
 Alpha  occ. eigenvalues --   -0.37758  -0.36944  -0.36159  -0.34450  -0.34139
 Alpha  occ. eigenvalues --   -0.32940  -0.32350  -0.32070  -0.30961  -0.27040
 Alpha  occ. eigenvalues --   -0.21428
 Alpha virt. eigenvalues --   -0.07709  -0.02135  -0.00590   0.01499   0.01538
 Alpha virt. eigenvalues --    0.02640   0.02805   0.03185   0.04535   0.05053
 Alpha virt. eigenvalues --    0.05832   0.06749   0.06965   0.07436   0.08023

 Mulliken charges:
               1
     1  Mg   0.420987
     2  C   -0.014554
     3  C   -0.095915
     4  C   -0.069256
     5  C   -0.056710
     6  N   -0.254316
     7  C    0.092688
     8  C   -0.005988
     9  C   -0.003832
    10  C    0.178237
    11  C   -0.051056
    12  C   -0.027897
    13  C   -0.013234
    14  C    0.472402
    15  O   -0.530473
    16  O   -0.244403
    17  N   -0.341037
    18  C    0.133651
    19  C    0.035049
    20  C   -0.046211
    21  C    0.172887
    22  C   -0.032362
    23  C    0.319013
    24  O   -0.515014
    25  C   -0.036019
    26  N   -0.284385
    27  C    0.177440
    28  C   -0.015307
    29  C    0.012685
    30  C    0.068737
    31  C   -0.055632
    32  C   -0.017331
    33  C   -0.059063
    34  N   -0.301347
    35  C    0.054555
    36  C    0.011911
    37  C   -0.056455
    38  C    0.092440
    39  C   -0.034690
    40  C    0.328199
    41  O   -0.561023
    42  C    0.057292
    43  C    0.489381
    44  O   -0.535415
    45  O   -0.264673
    46  C    0.076778
    47  C    0.108979
    48  C   -0.088430
    49  C   -0.012130
    50  C   -0.041232
    51  C   -0.024132
    52  C   -0.024462
    53  C   -0.031364
    54  C   -0.016013
    55  C   -0.058509
    56  C   -0.043068
    57  C   -0.043781
    58  C   -0.034569
    59  C   -0.018020
    60  C   -0.059281
    61  C   -0.050829
    62  C   -0.035435
    63  C   -0.034411
    64  C   -0.025312
    65  C   -0.064514
    66  C   -0.070557
    67  H    0.029146
    68  H    0.044261
    69  H    0.023384
    70  H    0.029946
    71  H    0.034283
    72  H    0.031223
    73  H    0.026802
    74  H    0.017149
    75  H    0.035868
    76  H    0.030256
    77  H    0.048345
    78  H    0.027404
    79  H    0.038806
    80  H    0.031392
    81  H    0.031082
    82  H    0.044052
    83  H    0.036329
    84  H    0.041102
    85  H    0.035938
    86  H    0.023588
    87  H    0.027276
    88  H    0.032617
    89  H    0.026419
    90  H    0.008385
    91  H    0.020833
    92  H    0.014777
    93  H    0.022436
    94  H    0.023001
    95  H    0.035567
    96  H    0.029503
    97  H    0.034822
    98  H    0.051240
    99  H    0.049423
   100  H    0.028419
   101  H    0.054834
   102  H    0.065945
   103  H    0.036069
   104  H    0.024244
   105  H    0.027833
   106  H    0.031718
   107  H    0.018769
   108  H    0.019835
   109  H    0.012213
   110  H    0.032176
   111  H    0.026164
   112  H    0.026361
   113  H    0.003200
   114  H    0.017723
   115  H    0.020319
   116  H    0.008900
   117  H    0.017140
   118  H    0.023415
   119  H    0.031936
   120  H    0.033265
   121  H    0.015281
   122  H    0.010044
   123  H    0.029260
   124  H    0.015221
   125  H    0.023596
   126  H    0.013721
   127  H    0.015529
   128  H    0.031821
   129  H    0.010128
   130  H    0.018362
   131  H    0.024620
   132  H    0.014903
   133  H    0.034990
   134  H    0.016618
   135  H    0.020594
   136  H    0.020360
   137  H    0.025310
   138  H    0.025287
   139  H    0.007093
   140  H    0.026467
 Sum of Mulliken charges =  -0.00000

 Dipole moment (field-independent basis, Debye):
    X=              6.7561    Y=              9.2785    Z=              1.5000  Tot=             11.5752
 N-N= 4.340231441662D+03 E-N= 0.000000000000D+00  KE=-9.354910634264D+03
 Leave Link  601 at Fri Apr 29 08:17:31 2022, MaxMem=  6710886400 cpu:               0.8 elap:               0.1
 (Enter /sw/apps/gaussian-16.0/g16/l9999.exe)
 1\1\GINC-BP1-COMPUTE082\SP\RZINDO CIS\STO-3G\C55H74Mg1N4O6\OF15641\29-
 Apr-2022\0\\#p ZINDO=(nstates=5)\\step_201_chromophore_13 ZINDO\\0,1\M
 g,0,46.46,24.208,28.504\C,0,46.899,26.475,31.036\C,0,45.164,21.948,30.
 794\C,0,46.619,21.697,26.116\C,0,48.024,26.375,26.289\N,0,46.066,24.26
 8,30.642\C,0,46.273,25.333,31.432\C,0,45.719,25.086,32.809\C,0,45.404,
 23.531,32.802\C,0,45.547,23.248,31.319\C,0,46.307,22.638,33.732\C,0,44
 .493,25.99,33.291\C,0,44.715,26.761,34.666\C,0,43.886,26.396,35.916\O,

 Normal termination of Gaussian 16 at Fri Apr 29 08:17:31 2022.
