 Gaussian 16, Revision A.03,
 Gaussian 16:  ES64L-G16RevA.03 25-Dec-2016

 ------------------------------
 #p blyp/Def2SVP td=(nstates=5)
 ------------------------------

 --------------------------------------------------
 step_701_chromophore_12 TDDFT with blyp functional
 --------------------------------------------------
 Symbolic Z-matrix:
 Charge =  0 Multiplicity = 1

                         Standard orientation:
 ---------------------------------------------------------------------
 Center     Atomic      Atomic             Coordinates (Angstroms)
 Number     Number       Type             X           Y           Z
 ---------------------------------------------------------------------
      1         12           0       -4.639887    0.694077   -0.028838
      2          6           0       -3.808740   -2.715648    0.456270
      3          6           0       -1.239977    1.298018    0.430782
      4          6           0       -5.213255    3.926891   -0.596901
      5          6           0       -7.970237   -0.048806   -0.280743
      6          7           0       -2.715950   -0.639184    0.285012
      7          6           0       -2.596135   -1.974190    0.452813
      8          6           0       -1.162648   -2.416519    0.589000
      9          6           0       -0.416853   -1.126371    0.861741
     10          6           0       -1.510771   -0.058081    0.517157
     11          6           0        0.311976   -1.007583    2.202949
     12          6           0       -0.664372   -3.220974   -0.612228
     13          6           0        0.353490   -4.342367   -0.433357
     14          6           0        1.599593   -4.297553   -1.309845
     15          8           0        1.658583   -4.029318   -2.539739
     16          8           0        2.697131   -4.590011   -0.518187
     17          7           0       -3.452247    2.329423   -0.021031
     18          6           0       -2.072103    2.341096    0.199879
     19          6           0       -1.585494    3.705796   -0.022730
     20          6           0       -2.716371    4.568904   -0.268281
     21          6           0       -3.893147    3.618198   -0.206645
     22          6           0       -0.103460    4.105259   -0.009538
     23          6           0       -2.804752    6.069540   -0.375020
     24          8           0       -3.844906    6.652146   -0.563141
     25          6           0       -1.533870    6.916229   -0.394581
     26          7           0       -6.351337    1.804019   -0.346094
     27          6           0       -6.328661    3.126365   -0.688969
     28          6           0       -7.699230    3.557395   -1.184683
     29          6           0       -8.595056    2.395444   -0.911438
     30          6           0       -7.625198    1.265494   -0.530178
     31          6           0       -8.274096    4.831534   -0.558096
     32          6           0       -9.549303    2.056095   -2.136609
     33          6           0      -11.018186    2.697916   -2.010491
     34          7           0       -5.719861   -1.005376    0.139629
     35          6           0       -7.122544   -1.122911    0.074880
     36          6           0       -7.450636   -2.488525    0.273065
     37          6           0       -6.216563   -3.196811    0.401176
     38          6           0       -5.144797   -2.201163    0.354608
     39          6           0       -8.914677   -2.910614    0.379949
     40          6           0       -5.518531   -4.487335    0.444572
     41          8           0       -5.914470   -5.658631    0.421760
     42          6           0       -3.957383   -4.228921    0.544760
     43          6           0       -3.463394   -4.796726    1.795345
     44          8           0       -3.895165   -4.612378    2.866753
     45          8           0       -2.352163   -5.554672    1.532369
     46          6           0       -1.803318   -6.252947    2.609155
     47          6           0        3.898015   -4.708153   -1.354504
     48          6           0        5.034549   -4.213512   -0.541888
     49          6           0        6.328155   -3.959741   -0.978078
     50          6           0        6.893075   -4.277065   -2.360525
     51          6           0        7.361258   -3.519858    0.052333
     52          6           0        8.181565   -2.194453   -0.308139
     53          6           0        9.685960   -2.401014   -0.447104
     54          6           0       10.316635   -1.219097   -1.365161
     55          6           0       10.805434   -1.737713   -2.685888
     56          6           0       11.373994   -0.490103   -0.547014
     57          6           0       10.787683    0.562692    0.384727
     58          6           0       11.180286    2.050862    0.099292
     59          6           0       10.000583    2.948154   -0.274444
     60          6           0       10.488165    4.029620   -1.231845
     61          6           0        9.151371    3.534288    0.921474
     62          6           0        7.595029    3.457792    0.636243
     63          6           0        6.993526    4.852352    1.086875
     64          6           0        5.834047    4.658680    2.132758
     65          6           0        4.747018    5.662789    1.769777
     66          6           0        6.329531    4.811001    3.614819
     67          1           0       -0.180528    1.482899    0.617140
     68          1           0       -5.476274    4.955815   -0.850697
     69          1           0       -9.048303   -0.223681   -0.301286
     70          1           0       -1.061000   -3.032894    1.481414
     71          1           0        0.407351   -1.101046    0.148400
     72          1           0        0.763690   -1.893862    2.649210
     73          1           0       -0.417835   -0.418686    2.758301
     74          1           0        1.157570   -0.339466    2.040817
     75          1           0       -0.351443   -2.476474   -1.343922
     76          1           0       -1.538783   -3.678998   -1.075090
     77          1           0       -0.261733   -5.218079   -0.640224
     78          1           0        0.691100   -4.453626    0.596906
     79          1           0        0.019583    5.020297    0.569095
     80          1           0        0.402629    4.198223   -0.970113
     81          1           0        0.519182    3.369019    0.498253
     82          1           0       -1.160517    6.938377    0.629498
     83          1           0       -1.694519    7.955532   -0.680606
     84          1           0       -0.791357    6.427659   -1.025406
     85          1           0       -7.572038    3.724175   -2.254327
     86          1           0       -9.273117    2.476354   -0.060982
     87          1           0       -8.456686    5.581820   -1.327394
     88          1           0       -7.547192    5.262354    0.130876
     89          1           0       -9.216463    4.704398   -0.026452
     90          1           0       -9.606546    0.992369   -2.368398
     91          1           0       -8.994268    2.473171   -2.976096
     92          1           0      -11.209052    3.159956   -2.979729
     93          1           0      -11.155881    3.440728   -1.224852
     94          1           0      -11.730835    1.879783   -1.901744
     95          1           0       -9.701516   -2.267600    0.772992
     96          1           0       -8.869128   -3.550055    1.261649
     97          1           0       -9.228659   -3.562385   -0.435448
     98          1           0       -3.455073   -4.754069   -0.268164
     99          1           0       -0.945091   -6.812857    2.236390
    100          1           0       -2.617155   -6.883067    2.968597
    101          1           0       -1.528814   -5.551924    3.396992
    102          1           0        4.061471   -3.900061   -2.066633
    103          1           0        3.967574   -5.686383   -1.831253
    104          1           0        4.887676   -3.836707    0.470363
    105          1           0        7.098786   -3.353209   -2.900604
    106          1           0        6.122205   -4.822533   -2.905771
    107          1           0        7.877422   -4.744317   -2.367371
    108          1           0        8.096346   -4.315852    0.167656
    109          1           0        6.845102   -3.388629    1.004478
    110          1           0        7.994015   -1.610269    0.592641
    111          1           0        7.718070   -1.718195   -1.171304
    112          1           0        9.779697   -3.394262   -0.887359
    113          1           0       10.184195   -2.357436    0.521143
    114          1           0        9.455263   -0.555155   -1.427157
    115          1           0       11.857950   -2.022875   -2.680062
    116          1           0       10.610981   -0.968741   -3.433390
    117          1           0       10.300469   -2.680677   -2.894833
    118          1           0       12.147632   -0.097463   -1.207391
    119          1           0       11.936832   -1.207530    0.049735
    120          1           0       11.121371    0.312981    1.392262
    121          1           0        9.703389    0.460849    0.442013
    122          1           0       11.962470    2.160512   -0.651634
    123          1           0       11.574033    2.452008    1.032940
    124          1           0        9.336804    2.335607   -0.884704
    125          1           0       11.493698    4.409126   -1.050186
    126          1           0        9.850798    4.897474   -1.068156
    127          1           0       10.293738    3.600009   -2.214148
    128          1           0        9.486046    4.558852    1.083392
    129          1           0        9.268399    2.880072    1.785331
    130          1           0        7.044870    2.695572    1.186613
    131          1           0        7.389030    3.258506   -0.415253
    132          1           0        6.663160    5.352548    0.175860
    133          1           0        7.752581    5.402544    1.642469
    134          1           0        5.437101    3.654137    1.987041
    135          1           0        4.240793    6.263320    2.526221
    136          1           0        4.032654    5.155931    1.121437
    137          1           0        5.174221    6.463685    1.165527
    138          1           0        7.399496    4.671263    3.772669
    139          1           0        5.798433    4.069855    4.211542
    140          1           0        6.063173    5.771215    4.056377
 ---------------------------------------------------------------------

 SCF Done:  E(RB-LYP) =  -3007.37422664     A.U. after   22 cycles

 Excitation energies and oscillator strengths:

 Excited State   1:      Singlet-A      1.7660 eV  702.04 nm  f=0.0211  <S**2>=0.000
     244 -> 247        0.66084
     245 -> 247       -0.13821
     246 -> 247       -0.20292
 This state for optimization and/or second-order correction.
 Total Energy, E(TD-HF/TD-DFT) =  -3007.30932571
 Copying the excited state density for this state as the 1-particle RhoCI density.

 Excited State   2:      Singlet-A      1.8430 eV  672.73 nm  f=0.2710  <S**2>=0.000
     244 -> 247        0.21691
     245 -> 248        0.19076
     246 -> 247        0.64827
     246 <- 247       -0.13437

 Excited State   3:      Singlet-A      1.9399 eV  639.13 nm  f=0.0172  <S**2>=0.000
     243 -> 247        0.66687
     245 -> 247        0.19639
     246 -> 247       -0.10460

 Excited State   4:      Singlet-A      2.0045 eV  618.54 nm  f=0.0000  <S**2>=0.000
     242 -> 247        0.70706

 Excited State   5:      Singlet-A      2.0609 eV  601.61 nm  f=0.0886  <S**2>=0.000
     243 -> 247       -0.21232
     244 -> 247        0.11430
     245 -> 247        0.60554
     246 -> 248       -0.24559

 The electronic state is 1-A.
 Alpha  occ. eigenvalues --  -46.26104 -18.83550 -18.81582 -18.77530 -18.76725
 Alpha  occ. eigenvalues --  -18.75662 -18.75016 -14.03477 -14.02716 -14.01848
 Alpha  occ. eigenvalues --  -14.00864 -10.04980 -10.03105 -10.00054  -9.99414
 Alpha  occ. eigenvalues --   -9.98208  -9.97282  -9.96756  -9.96705  -9.96519
 Alpha  occ. eigenvalues --   -9.96259  -9.96121  -9.96006  -9.95449  -9.95337
 Alpha  occ. eigenvalues --   -9.94823  -9.94371  -9.94016  -9.93996  -9.93824
 Alpha  occ. eigenvalues --   -9.93781  -9.93558  -9.93497  -9.93442  -9.93436
 Alpha  occ. eigenvalues --   -9.93169  -9.93109  -9.93093  -9.93007  -9.92812
 Alpha  occ. eigenvalues --   -9.92810  -9.92776  -9.92637  -9.92520  -9.92420
 Alpha  occ. eigenvalues --   -9.92328  -9.92284  -9.91992  -9.91937  -9.91922
 Alpha  occ. eigenvalues --   -9.91908  -9.91872  -9.91768  -9.91677  -9.91531
 Alpha  occ. eigenvalues --   -9.91495  -9.91399  -9.91310  -9.91309  -9.91173
 Alpha  occ. eigenvalues --   -9.91116  -9.91048  -9.90881  -9.90807  -9.90734
 Alpha  occ. eigenvalues --   -9.90671  -2.90970  -1.71399  -1.70861  -1.70676
 Alpha  occ. eigenvalues --   -0.99841  -0.98045  -0.92569  -0.92230  -0.89905
 Alpha  occ. eigenvalues --   -0.89195  -0.86971  -0.85726  -0.85021  -0.84446
 Alpha  occ. eigenvalues --   -0.74993  -0.73933  -0.73525  -0.72880  -0.72598
 Alpha  occ. eigenvalues --   -0.72209  -0.72150  -0.71259  -0.71043  -0.70267
 Alpha  occ. eigenvalues --   -0.69851  -0.69533  -0.68336  -0.67725  -0.66966
 Alpha  occ. eigenvalues --   -0.66504  -0.65821  -0.65567  -0.65222  -0.64620
 Alpha  occ. eigenvalues --   -0.64341  -0.63130  -0.62574  -0.61764  -0.60935
 Alpha  occ. eigenvalues --   -0.60806  -0.60581  -0.60136  -0.59755  -0.58629
 Alpha  occ. eigenvalues --   -0.58303  -0.57967  -0.56876  -0.55598  -0.54797
 Alpha  occ. eigenvalues --   -0.53808  -0.53270  -0.53071  -0.52116  -0.51845
 Alpha  occ. eigenvalues --   -0.51552  -0.51268  -0.51083  -0.50648  -0.50436
 Alpha  occ. eigenvalues --   -0.50009  -0.49803  -0.48954  -0.48729  -0.46711
 Alpha  occ. eigenvalues --   -0.46555  -0.46354  -0.45982  -0.45532  -0.44815
 Alpha  occ. eigenvalues --   -0.44124  -0.43898  -0.43286  -0.43120  -0.42900
 Alpha  occ. eigenvalues --   -0.42358  -0.42107  -0.41741  -0.41625  -0.41464
 Alpha  occ. eigenvalues --   -0.41209  -0.41052  -0.40673  -0.40339  -0.39962
 Alpha  occ. eigenvalues --   -0.39863  -0.39554  -0.39491  -0.39428  -0.39206
 Alpha  occ. eigenvalues --   -0.39067  -0.38890  -0.38614  -0.38471  -0.38294
 Alpha  occ. eigenvalues --   -0.38063  -0.38043  -0.37655  -0.37606  -0.37531
 Alpha  occ. eigenvalues --   -0.37351  -0.37285  -0.37028  -0.36855  -0.36688
 Alpha  occ. eigenvalues --   -0.36477  -0.36440  -0.35865  -0.35682  -0.35568
 Alpha  occ. eigenvalues --   -0.35426  -0.35359  -0.35164  -0.35117  -0.34831
 Alpha  occ. eigenvalues --   -0.34744  -0.34609  -0.34358  -0.34246  -0.34155
 Alpha  occ. eigenvalues --   -0.34031  -0.33614  -0.33529  -0.33405  -0.33304
 Alpha  occ. eigenvalues --   -0.33153  -0.32961  -0.32833  -0.32557  -0.32429
 Alpha  occ. eigenvalues --   -0.32318  -0.32264  -0.32076  -0.31859  -0.31626
 Alpha  occ. eigenvalues --   -0.31484  -0.31325  -0.30988  -0.30815  -0.30810
 Alpha  occ. eigenvalues --   -0.30612  -0.30354  -0.30314  -0.29997  -0.29978
 Alpha  occ. eigenvalues --   -0.29889  -0.29500  -0.29238  -0.29184  -0.28906
 Alpha  occ. eigenvalues --   -0.28798  -0.28611  -0.28479  -0.28332  -0.28063
 Alpha  occ. eigenvalues --   -0.28013  -0.27317  -0.27138  -0.26899  -0.26823
 Alpha  occ. eigenvalues --   -0.26424  -0.26228  -0.26179  -0.26074  -0.25966
 Alpha  occ. eigenvalues --   -0.25111  -0.24960  -0.24526  -0.24207  -0.23554
 Alpha  occ. eigenvalues --   -0.23534  -0.22895  -0.22342  -0.21879  -0.21136
 Alpha  occ. eigenvalues --   -0.20378  -0.19093  -0.18796  -0.18141  -0.17501
 Alpha  occ. eigenvalues --   -0.16174
 Alpha virt. eigenvalues --   -0.11727  -0.07006  -0.06173  -0.04688  -0.04280
 Alpha virt. eigenvalues --   -0.02252  -0.01969  -0.01621  -0.00937   0.00127
 Alpha virt. eigenvalues --    0.00892   0.01577   0.01954   0.02072   0.02605

 Mulliken charges:
               1
     1  Mg   0.709319
     2  C    0.020419
     3  C   -0.099491
     4  C   -0.047009
     5  C   -0.066778
     6  N   -0.161222
     7  C   -0.111534
     8  C    0.075429
     9  C   -0.002814
    10  C   -0.023337
    11  C    0.138589
    12  C    0.122051
    13  C    0.149596
    14  C    0.094157
    15  O   -0.216514
    16  O   -0.264305
    17  N   -0.330748
    18  C    0.254215
    19  C   -0.138407
    20  C    0.012378
    21  C    0.135612
    22  C    0.154083
    23  C   -0.073125
    24  O   -0.145256
    25  C    0.118432
    26  N   -0.269860
    27  C    0.007250
    28  C    0.080236
    29  C    0.025764
    30  C    0.026879
    31  C    0.124883
    32  C    0.061448
    33  C    0.058508
    34  N   -0.307896
    35  C    0.144298
    36  C   -0.160683
    37  C    0.097650
    38  C    0.059941
    39  C    0.154131
    40  C   -0.049661
    41  O   -0.149436
    42  C    0.058745
    43  C    0.058219
    44  O   -0.118456
    45  O   -0.267525
    46  C    0.229552
    47  C    0.300694
    48  C   -0.097833
    49  C   -0.178286
    50  C    0.143216
    51  C    0.127501
    52  C    0.022453
    53  C    0.089881
    54  C   -0.104515
    55  C    0.147607
    56  C    0.125731
    57  C    0.063474
    58  C    0.134004
    59  C   -0.122201
    60  C    0.118360
    61  C    0.116390
    62  C    0.047569
    63  C    0.072850
    64  C   -0.094261
    65  C    0.101361
    66  C    0.100952
    67  H   -0.074891
    68  H   -0.046564
    69  H   -0.062204
    70  H   -0.039094
    71  H   -0.034199
    72  H    0.006674
    73  H   -0.004494
    74  H   -0.019273
    75  H   -0.018400
    76  H   -0.028232
    77  H    0.017322
    78  H   -0.012002
    79  H   -0.004224
    80  H    0.016309
    81  H   -0.026320
    82  H    0.009126
    83  H   -0.007816
    84  H    0.008013
    85  H   -0.011716
    86  H   -0.016282
    87  H   -0.015389
    88  H    0.000334
    89  H   -0.009131
    90  H   -0.016725
    91  H   -0.036219
    92  H   -0.004978
    93  H    0.003421
    94  H   -0.000158
    95  H   -0.004917
    96  H   -0.002092
    97  H    0.008710
    98  H   -0.007974
    99  H    0.012248
   100  H    0.008952
   101  H   -0.001249
   102  H    0.028878
   103  H    0.024021
   104  H   -0.036910
   105  H   -0.005834
   106  H   -0.011133
   107  H   -0.001841
   108  H   -0.020554
   109  H   -0.044301
   110  H   -0.022469
   111  H   -0.009526
   112  H   -0.032065
   113  H   -0.029886
   114  H   -0.030538
   115  H   -0.017937
   116  H   -0.007686
   117  H   -0.028223
   118  H   -0.047041
   119  H   -0.042369
   120  H   -0.045402
   121  H   -0.022411
   122  H   -0.035359
   123  H   -0.043865
   124  H   -0.040633
   125  H   -0.010756
   126  H   -0.034814
   127  H   -0.011181
   128  H   -0.016818
   129  H   -0.031622
   130  H   -0.026078
   131  H   -0.027204
   132  H   -0.021049
   133  H   -0.022283
   134  H   -0.031794
   135  H   -0.022159
   136  H   -0.019632
   137  H   -0.026350
   138  H   -0.010781
   139  H   -0.017110
   140  H   -0.016531
 Sum of Mulliken charges =  -0.00000

 Dipole moment (field-independent basis, Debye):
    X=              3.7885    Y=              2.4554    Z=              0.0023  Tot=              4.5146
 Quadrupole moment (field-independent basis, Debye-Ang):
   XX=           -376.3233   YY=           -434.6262   ZZ=           -413.1989
   XY=            -27.6499   XZ=             13.0620   YZ=              0.0404

 Normal termination of Gaussian 16 at Sat Apr 30 09:59:44 2022.
