 Gaussian 16, Revision A.03,
 Gaussian 16:  ES64L-G16RevA.03 25-Dec-2016

 -----------------------------------
 #p cam-b3lyp/Def2SVP td=(nstates=5)
 -----------------------------------

 -------------------------------------------------------
 step_701_chromophore_12 TDDFT with cam-b3lyp functional
 -------------------------------------------------------
 Symbolic Z-matrix:
 Charge =  0 Multiplicity = 1

                         Standard orientation:
 ---------------------------------------------------------------------
 Center     Atomic      Atomic             Coordinates (Angstroms)
 Number     Number       Type             X           Y           Z
 ---------------------------------------------------------------------
      1         12           0       -4.639887    0.694077   -0.028838
      2          6           0       -3.808740   -2.715648    0.456270
      3          6           0       -1.239977    1.298018    0.430782
      4          6           0       -5.213255    3.926891   -0.596901
      5          6           0       -7.970237   -0.048806   -0.280743
      6          7           0       -2.715950   -0.639184    0.285012
      7          6           0       -2.596135   -1.974190    0.452813
      8          6           0       -1.162648   -2.416519    0.589000
      9          6           0       -0.416853   -1.126371    0.861741
     10          6           0       -1.510771   -0.058081    0.517157
     11          6           0        0.311976   -1.007583    2.202949
     12          6           0       -0.664372   -3.220974   -0.612228
     13          6           0        0.353490   -4.342367   -0.433357
     14          6           0        1.599593   -4.297553   -1.309845
     15          8           0        1.658583   -4.029318   -2.539739
     16          8           0        2.697131   -4.590011   -0.518187
     17          7           0       -3.452247    2.329423   -0.021031
     18          6           0       -2.072103    2.341096    0.199879
     19          6           0       -1.585494    3.705796   -0.022730
     20          6           0       -2.716371    4.568904   -0.268281
     21          6           0       -3.893147    3.618198   -0.206645
     22          6           0       -0.103460    4.105259   -0.009538
     23          6           0       -2.804752    6.069540   -0.375020
     24          8           0       -3.844906    6.652146   -0.563141
     25          6           0       -1.533870    6.916229   -0.394581
     26          7           0       -6.351337    1.804019   -0.346094
     27          6           0       -6.328661    3.126365   -0.688969
     28          6           0       -7.699230    3.557395   -1.184683
     29          6           0       -8.595056    2.395444   -0.911438
     30          6           0       -7.625198    1.265494   -0.530178
     31          6           0       -8.274096    4.831534   -0.558096
     32          6           0       -9.549303    2.056095   -2.136609
     33          6           0      -11.018186    2.697916   -2.010491
     34          7           0       -5.719861   -1.005376    0.139629
     35          6           0       -7.122544   -1.122911    0.074880
     36          6           0       -7.450636   -2.488525    0.273065
     37          6           0       -6.216563   -3.196811    0.401176
     38          6           0       -5.144797   -2.201163    0.354608
     39          6           0       -8.914677   -2.910614    0.379949
     40          6           0       -5.518531   -4.487335    0.444572
     41          8           0       -5.914470   -5.658631    0.421760
     42          6           0       -3.957383   -4.228921    0.544760
     43          6           0       -3.463394   -4.796726    1.795345
     44          8           0       -3.895165   -4.612378    2.866753
     45          8           0       -2.352163   -5.554672    1.532369
     46          6           0       -1.803318   -6.252947    2.609155
     47          6           0        3.898015   -4.708153   -1.354504
     48          6           0        5.034549   -4.213512   -0.541888
     49          6           0        6.328155   -3.959741   -0.978078
     50          6           0        6.893075   -4.277065   -2.360525
     51          6           0        7.361258   -3.519858    0.052333
     52          6           0        8.181565   -2.194453   -0.308139
     53          6           0        9.685960   -2.401014   -0.447104
     54          6           0       10.316635   -1.219097   -1.365161
     55          6           0       10.805434   -1.737713   -2.685888
     56          6           0       11.373994   -0.490103   -0.547014
     57          6           0       10.787683    0.562692    0.384727
     58          6           0       11.180286    2.050862    0.099292
     59          6           0       10.000583    2.948154   -0.274444
     60          6           0       10.488165    4.029620   -1.231845
     61          6           0        9.151371    3.534288    0.921474
     62          6           0        7.595029    3.457792    0.636243
     63          6           0        6.993526    4.852352    1.086875
     64          6           0        5.834047    4.658680    2.132758
     65          6           0        4.747018    5.662789    1.769777
     66          6           0        6.329531    4.811001    3.614819
     67          1           0       -0.180528    1.482899    0.617140
     68          1           0       -5.476274    4.955815   -0.850697
     69          1           0       -9.048303   -0.223681   -0.301286
     70          1           0       -1.061000   -3.032894    1.481414
     71          1           0        0.407351   -1.101046    0.148400
     72          1           0        0.763690   -1.893862    2.649210
     73          1           0       -0.417835   -0.418686    2.758301
     74          1           0        1.157570   -0.339466    2.040817
     75          1           0       -0.351443   -2.476474   -1.343922
     76          1           0       -1.538783   -3.678998   -1.075090
     77          1           0       -0.261733   -5.218079   -0.640224
     78          1           0        0.691100   -4.453626    0.596906
     79          1           0        0.019583    5.020297    0.569095
     80          1           0        0.402629    4.198223   -0.970113
     81          1           0        0.519182    3.369019    0.498253
     82          1           0       -1.160517    6.938377    0.629498
     83          1           0       -1.694519    7.955532   -0.680606
     84          1           0       -0.791357    6.427659   -1.025406
     85          1           0       -7.572038    3.724175   -2.254327
     86          1           0       -9.273117    2.476354   -0.060982
     87          1           0       -8.456686    5.581820   -1.327394
     88          1           0       -7.547192    5.262354    0.130876
     89          1           0       -9.216463    4.704398   -0.026452
     90          1           0       -9.606546    0.992369   -2.368398
     91          1           0       -8.994268    2.473171   -2.976096
     92          1           0      -11.209052    3.159956   -2.979729
     93          1           0      -11.155881    3.440728   -1.224852
     94          1           0      -11.730835    1.879783   -1.901744
     95          1           0       -9.701516   -2.267600    0.772992
     96          1           0       -8.869128   -3.550055    1.261649
     97          1           0       -9.228659   -3.562385   -0.435448
     98          1           0       -3.455073   -4.754069   -0.268164
     99          1           0       -0.945091   -6.812857    2.236390
    100          1           0       -2.617155   -6.883067    2.968597
    101          1           0       -1.528814   -5.551924    3.396992
    102          1           0        4.061471   -3.900061   -2.066633
    103          1           0        3.967574   -5.686383   -1.831253
    104          1           0        4.887676   -3.836707    0.470363
    105          1           0        7.098786   -3.353209   -2.900604
    106          1           0        6.122205   -4.822533   -2.905771
    107          1           0        7.877422   -4.744317   -2.367371
    108          1           0        8.096346   -4.315852    0.167656
    109          1           0        6.845102   -3.388629    1.004478
    110          1           0        7.994015   -1.610269    0.592641
    111          1           0        7.718070   -1.718195   -1.171304
    112          1           0        9.779697   -3.394262   -0.887359
    113          1           0       10.184195   -2.357436    0.521143
    114          1           0        9.455263   -0.555155   -1.427157
    115          1           0       11.857950   -2.022875   -2.680062
    116          1           0       10.610981   -0.968741   -3.433390
    117          1           0       10.300469   -2.680677   -2.894833
    118          1           0       12.147632   -0.097463   -1.207391
    119          1           0       11.936832   -1.207530    0.049735
    120          1           0       11.121371    0.312981    1.392262
    121          1           0        9.703389    0.460849    0.442013
    122          1           0       11.962470    2.160512   -0.651634
    123          1           0       11.574033    2.452008    1.032940
    124          1           0        9.336804    2.335607   -0.884704
    125          1           0       11.493698    4.409126   -1.050186
    126          1           0        9.850798    4.897474   -1.068156
    127          1           0       10.293738    3.600009   -2.214148
    128          1           0        9.486046    4.558852    1.083392
    129          1           0        9.268399    2.880072    1.785331
    130          1           0        7.044870    2.695572    1.186613
    131          1           0        7.389030    3.258506   -0.415253
    132          1           0        6.663160    5.352548    0.175860
    133          1           0        7.752581    5.402544    1.642469
    134          1           0        5.437101    3.654137    1.987041
    135          1           0        4.240793    6.263320    2.526221
    136          1           0        4.032654    5.155931    1.121437
    137          1           0        5.174221    6.463685    1.165527
    138          1           0        7.399496    4.671263    3.772669
    139          1           0        5.798433    4.069855    4.211542
    140          1           0        6.063173    5.771215    4.056377
 ---------------------------------------------------------------------

 SCF Done:  E(RCAM-B3LYP) =  -3007.17102598     A.U. after   17 cycles

 Excitation energies and oscillator strengths:

 Excited State   1:      Singlet-A      1.7433 eV  711.20 nm  f=0.3768  <S**2>=0.000
     245 -> 248        0.18614
     246 -> 247        0.68432
     245 <- 248        0.10904
 This state for optimization and/or second-order correction.
 Total Energy, E(TD-HF/TD-DFT) =  -3007.10696064
 Copying the excited state density for this state as the 1-particle RhoCI density.

 Excited State   2:      Singlet-A      2.2742 eV  545.17 nm  f=0.1195  <S**2>=0.000
     245 -> 247        0.63901
     246 -> 248       -0.29230

 Excited State   3:      Singlet-A      3.3903 eV  365.70 nm  f=0.0010  <S**2>=0.000
     241 -> 247       -0.11456
     242 -> 247        0.35320
     242 -> 249        0.18105
     242 -> 250        0.18260
     243 -> 247        0.52375

 Excited State   4:      Singlet-A      3.4314 eV  361.32 nm  f=0.0015  <S**2>=0.000
     241 -> 247        0.12861
     242 -> 247        0.47533
     242 -> 249        0.18051
     242 -> 250        0.16411
     243 -> 247       -0.41666

 Excited State   5:      Singlet-A      3.5767 eV  346.64 nm  f=0.3442  <S**2>=0.000
     239 -> 247        0.17036
     241 -> 247        0.39976
     245 -> 247        0.18917
     246 -> 248        0.49235

 The electronic state is 1-A.
 Alpha  occ. eigenvalues --  -46.87552 -19.26490 -19.24470 -19.20518 -19.19834
 Alpha  occ. eigenvalues --  -19.19146 -19.17979 -14.42589 -14.41393 -14.40497
 Alpha  occ. eigenvalues --  -14.39122 -10.40403 -10.38373 -10.35475 -10.34595
 Alpha  occ. eigenvalues --  -10.32221 -10.31636 -10.31248 -10.31148 -10.31041
 Alpha  occ. eigenvalues --  -10.30753 -10.30702 -10.30413 -10.29997 -10.29418
 Alpha  occ. eigenvalues --  -10.29306 -10.28759 -10.28227 -10.28053 -10.27952
 Alpha  occ. eigenvalues --  -10.27925 -10.27753 -10.27700 -10.27364 -10.27321
 Alpha  occ. eigenvalues --  -10.27297 -10.27228 -10.27200 -10.26979 -10.26858
 Alpha  occ. eigenvalues --  -10.26601 -10.26569 -10.26376 -10.26351 -10.26266
 Alpha  occ. eigenvalues --  -10.26221 -10.26100 -10.25872 -10.25813 -10.25771
 Alpha  occ. eigenvalues --  -10.25762 -10.25566 -10.25560 -10.25447 -10.25320
 Alpha  occ. eigenvalues --  -10.25301 -10.25169 -10.25087 -10.25015 -10.24981
 Alpha  occ. eigenvalues --  -10.24764 -10.24720 -10.24599 -10.24535 -10.24411
 Alpha  occ. eigenvalues --  -10.24297  -3.16338  -1.91237  -1.90794  -1.90653
 Alpha  occ. eigenvalues --   -1.18487  -1.16461  -1.11276  -1.10250  -1.08073
 Alpha  occ. eigenvalues --   -1.07053  -1.04845  -1.03348  -1.02557  -1.01920
 Alpha  occ. eigenvalues --   -0.92039  -0.90809  -0.90432  -0.89732  -0.89379
 Alpha  occ. eigenvalues --   -0.88932  -0.88882  -0.87815  -0.87706  -0.87087
 Alpha  occ. eigenvalues --   -0.86458  -0.85784  -0.84613  -0.83795  -0.83134
 Alpha  occ. eigenvalues --   -0.82599  -0.81820  -0.81467  -0.81263  -0.80642
 Alpha  occ. eigenvalues --   -0.80239  -0.78846  -0.78463  -0.77214  -0.76373
 Alpha  occ. eigenvalues --   -0.76193  -0.76068  -0.75395  -0.75115  -0.73927
 Alpha  occ. eigenvalues --   -0.73335  -0.72980  -0.71787  -0.70439  -0.69320
 Alpha  occ. eigenvalues --   -0.68461  -0.67830  -0.67626  -0.66534  -0.65942
 Alpha  occ. eigenvalues --   -0.65812  -0.65522  -0.65169  -0.64487  -0.64346
 Alpha  occ. eigenvalues --   -0.64131  -0.63878  -0.62702  -0.62700  -0.60430
 Alpha  occ. eigenvalues --   -0.60284  -0.59884  -0.59477  -0.58917  -0.58418
 Alpha  occ. eigenvalues --   -0.57493  -0.57164  -0.56434  -0.56285  -0.56207
 Alpha  occ. eigenvalues --   -0.55725  -0.55463  -0.55066  -0.54549  -0.54279
 Alpha  occ. eigenvalues --   -0.53989  -0.53842  -0.53297  -0.53031  -0.52973
 Alpha  occ. eigenvalues --   -0.52586  -0.52476  -0.52116  -0.52013  -0.51762
 Alpha  occ. eigenvalues --   -0.51716  -0.51414  -0.51243  -0.50871  -0.50739
 Alpha  occ. eigenvalues --   -0.50579  -0.50349  -0.50251  -0.49940  -0.49853
 Alpha  occ. eigenvalues --   -0.49809  -0.49587  -0.49443  -0.49294  -0.49012
 Alpha  occ. eigenvalues --   -0.48814  -0.48560  -0.48182  -0.47982  -0.47845
 Alpha  occ. eigenvalues --   -0.47807  -0.47486  -0.47206  -0.46971  -0.46730
 Alpha  occ. eigenvalues --   -0.46652  -0.46576  -0.46405  -0.46097  -0.46032
 Alpha  occ. eigenvalues --   -0.45818  -0.45450  -0.45375  -0.45134  -0.44994
 Alpha  occ. eigenvalues --   -0.44839  -0.44683  -0.44579  -0.44382  -0.44024
 Alpha  occ. eigenvalues --   -0.43995  -0.43881  -0.43775  -0.43420  -0.43198
 Alpha  occ. eigenvalues --   -0.42998  -0.42885  -0.42743  -0.42404  -0.42108
 Alpha  occ. eigenvalues --   -0.42093  -0.42059  -0.41827  -0.41566  -0.41437
 Alpha  occ. eigenvalues --   -0.41200  -0.40851  -0.40388  -0.40160  -0.39996
 Alpha  occ. eigenvalues --   -0.39851  -0.39765  -0.39529  -0.39252  -0.39051
 Alpha  occ. eigenvalues --   -0.39031  -0.38219  -0.38074  -0.37859  -0.37691
 Alpha  occ. eigenvalues --   -0.37570  -0.37257  -0.37206  -0.36971  -0.36945
 Alpha  occ. eigenvalues --   -0.36600  -0.35608  -0.35021  -0.34975  -0.34650
 Alpha  occ. eigenvalues --   -0.34438  -0.33972  -0.33415  -0.31469  -0.31262
 Alpha  occ. eigenvalues --   -0.30731  -0.30071  -0.29382  -0.28562  -0.24281
 Alpha  occ. eigenvalues --   -0.21510
 Alpha virt. eigenvalues --   -0.08796  -0.01885   0.00258   0.02294   0.03517
 Alpha virt. eigenvalues --    0.03829   0.05048   0.05104   0.06029   0.06419
 Alpha virt. eigenvalues --    0.07741   0.08007   0.08229   0.08673   0.08956

 Mulliken charges:
               1
     1  Mg   0.844597
     2  C   -0.005372
     3  C   -0.110132
     4  C   -0.075586
     5  C   -0.078790
     6  N   -0.223241
     7  C   -0.077184
     8  C    0.029396
     9  C   -0.054064
    10  C   -0.009601
    11  C    0.080056
    12  C    0.066949
    13  C    0.078237
    14  C    0.177963
    15  O   -0.258905
    16  O   -0.329160
    17  N   -0.420679
    18  C    0.260173
    19  C   -0.142697
    20  C   -0.052088
    21  C    0.169347
    22  C    0.098957
    23  C    0.003634
    24  O   -0.184256
    25  C    0.037578
    26  N   -0.349279
    27  C    0.037833
    28  C    0.015459
    29  C   -0.032421
    30  C    0.050831
    31  C    0.064976
    32  C    0.010083
    33  C   -0.000969
    34  N   -0.398982
    35  C    0.148534
    36  C   -0.159770
    37  C    0.018394
    38  C    0.096271
    39  C    0.099599
    40  C    0.050799
    41  O   -0.190949
    42  C   -0.018712
    43  C    0.150041
    44  O   -0.153736
    45  O   -0.330743
    46  C    0.183098
    47  C    0.266782
    48  C   -0.121624
    49  C   -0.197334
    50  C    0.084147
    51  C    0.072410
    52  C   -0.036272
    53  C    0.041168
    54  C   -0.156769
    55  C    0.088088
    56  C    0.068094
    57  C    0.010386
    58  C    0.078213
    59  C   -0.169996
    60  C    0.057968
    61  C    0.058086
    62  C   -0.001271
    63  C    0.017849
    64  C   -0.150717
    65  C    0.040064
    66  C    0.041878
    67  H   -0.038012
    68  H   -0.006622
    69  H   -0.027282
    70  H   -0.004359
    71  H    0.001884
    72  H    0.032190
    73  H    0.021781
    74  H    0.004494
    75  H    0.014364
    76  H    0.004201
    77  H    0.049691
    78  H    0.021577
    79  H    0.022329
    80  H    0.044685
    81  H    0.002901
    82  H    0.036090
    83  H    0.028676
    84  H    0.034960
    85  H    0.023860
    86  H    0.017875
    87  H    0.010526
    88  H    0.025921
    89  H    0.015263
    90  H    0.013229
    91  H   -0.008469
    92  H    0.018181
    93  H    0.023435
    94  H    0.022671
    95  H    0.021358
    96  H    0.022786
    97  H    0.034364
    98  H    0.035814
    99  H    0.034860
   100  H    0.033628
   101  H    0.022263
   102  H    0.058379
   103  H    0.050330
   104  H   -0.001427
   105  H    0.017985
   106  H    0.012745
   107  H    0.022113
   108  H    0.008493
   109  H   -0.012823
   110  H    0.005636
   111  H    0.016507
   112  H   -0.006572
   113  H   -0.001239
   114  H   -0.000502
   115  H    0.006754
   116  H    0.016407
   117  H   -0.005556
   118  H   -0.016146
   119  H   -0.011966
   120  H   -0.014054
   121  H    0.000007
   122  H   -0.005061
   123  H   -0.013695
   124  H   -0.011040
   125  H    0.013404
   126  H   -0.010687
   127  H    0.013224
   128  H    0.010398
   129  H   -0.003082
   130  H    0.000540
   131  H    0.000662
   132  H    0.007908
   133  H    0.004904
   134  H   -0.001411
   135  H    0.003602
   136  H    0.002450
   137  H   -0.001526
   138  H    0.011883
   139  H    0.007198
   140  H    0.007500
 Sum of Mulliken charges =  -0.00000

 Dipole moment (field-independent basis, Debye):
    X=              4.7295    Y=              3.3570    Z=              0.0849  Tot=              5.8004
 Quadrupole moment (field-independent basis, Debye-Ang):
   XX=           -379.7544   YY=           -430.8075   ZZ=           -413.7519
   XY=            -29.7000   XZ=             13.8640   YZ=             -0.3470

 Normal termination of Gaussian 16 at Sat Apr 30 09:01:51 2022.
