 Gaussian 16, Revision A.03,
 Gaussian 16:  ES64L-G16RevA.03 25-Dec-2016

 ---------------------------------
 #p PBE1PBE/Def2SVP td=(nstates=5)
 ---------------------------------

 -----------------------------------------------------
 step_701_chromophore_12 TDDFT with PBE1PBE functional
 -----------------------------------------------------
 Symbolic Z-matrix:
 Charge =  0 Multiplicity = 1

                         Standard orientation:
 ---------------------------------------------------------------------
 Center     Atomic      Atomic             Coordinates (Angstroms)
 Number     Number       Type             X           Y           Z
 ---------------------------------------------------------------------
      1         12           0       -4.639887    0.694077   -0.028838
      2          6           0       -3.808740   -2.715648    0.456270
      3          6           0       -1.239977    1.298018    0.430782
      4          6           0       -5.213255    3.926891   -0.596901
      5          6           0       -7.970237   -0.048806   -0.280743
      6          7           0       -2.715950   -0.639184    0.285012
      7          6           0       -2.596135   -1.974190    0.452813
      8          6           0       -1.162648   -2.416519    0.589000
      9          6           0       -0.416853   -1.126371    0.861741
     10          6           0       -1.510771   -0.058081    0.517157
     11          6           0        0.311976   -1.007583    2.202949
     12          6           0       -0.664372   -3.220974   -0.612228
     13          6           0        0.353490   -4.342367   -0.433357
     14          6           0        1.599593   -4.297553   -1.309845
     15          8           0        1.658583   -4.029318   -2.539739
     16          8           0        2.697131   -4.590011   -0.518187
     17          7           0       -3.452247    2.329423   -0.021031
     18          6           0       -2.072103    2.341096    0.199879
     19          6           0       -1.585494    3.705796   -0.022730
     20          6           0       -2.716371    4.568904   -0.268281
     21          6           0       -3.893147    3.618198   -0.206645
     22          6           0       -0.103460    4.105259   -0.009538
     23          6           0       -2.804752    6.069540   -0.375020
     24          8           0       -3.844906    6.652146   -0.563141
     25          6           0       -1.533870    6.916229   -0.394581
     26          7           0       -6.351337    1.804019   -0.346094
     27          6           0       -6.328661    3.126365   -0.688969
     28          6           0       -7.699230    3.557395   -1.184683
     29          6           0       -8.595056    2.395444   -0.911438
     30          6           0       -7.625198    1.265494   -0.530178
     31          6           0       -8.274096    4.831534   -0.558096
     32          6           0       -9.549303    2.056095   -2.136609
     33          6           0      -11.018186    2.697916   -2.010491
     34          7           0       -5.719861   -1.005376    0.139629
     35          6           0       -7.122544   -1.122911    0.074880
     36          6           0       -7.450636   -2.488525    0.273065
     37          6           0       -6.216563   -3.196811    0.401176
     38          6           0       -5.144797   -2.201163    0.354608
     39          6           0       -8.914677   -2.910614    0.379949
     40          6           0       -5.518531   -4.487335    0.444572
     41          8           0       -5.914470   -5.658631    0.421760
     42          6           0       -3.957383   -4.228921    0.544760
     43          6           0       -3.463394   -4.796726    1.795345
     44          8           0       -3.895165   -4.612378    2.866753
     45          8           0       -2.352163   -5.554672    1.532369
     46          6           0       -1.803318   -6.252947    2.609155
     47          6           0        3.898015   -4.708153   -1.354504
     48          6           0        5.034549   -4.213512   -0.541888
     49          6           0        6.328155   -3.959741   -0.978078
     50          6           0        6.893075   -4.277065   -2.360525
     51          6           0        7.361258   -3.519858    0.052333
     52          6           0        8.181565   -2.194453   -0.308139
     53          6           0        9.685960   -2.401014   -0.447104
     54          6           0       10.316635   -1.219097   -1.365161
     55          6           0       10.805434   -1.737713   -2.685888
     56          6           0       11.373994   -0.490103   -0.547014
     57          6           0       10.787683    0.562692    0.384727
     58          6           0       11.180286    2.050862    0.099292
     59          6           0       10.000583    2.948154   -0.274444
     60          6           0       10.488165    4.029620   -1.231845
     61          6           0        9.151371    3.534288    0.921474
     62          6           0        7.595029    3.457792    0.636243
     63          6           0        6.993526    4.852352    1.086875
     64          6           0        5.834047    4.658680    2.132758
     65          6           0        4.747018    5.662789    1.769777
     66          6           0        6.329531    4.811001    3.614819
     67          1           0       -0.180528    1.482899    0.617140
     68          1           0       -5.476274    4.955815   -0.850697
     69          1           0       -9.048303   -0.223681   -0.301286
     70          1           0       -1.061000   -3.032894    1.481414
     71          1           0        0.407351   -1.101046    0.148400
     72          1           0        0.763690   -1.893862    2.649210
     73          1           0       -0.417835   -0.418686    2.758301
     74          1           0        1.157570   -0.339466    2.040817
     75          1           0       -0.351443   -2.476474   -1.343922
     76          1           0       -1.538783   -3.678998   -1.075090
     77          1           0       -0.261733   -5.218079   -0.640224
     78          1           0        0.691100   -4.453626    0.596906
     79          1           0        0.019583    5.020297    0.569095
     80          1           0        0.402629    4.198223   -0.970113
     81          1           0        0.519182    3.369019    0.498253
     82          1           0       -1.160517    6.938377    0.629498
     83          1           0       -1.694519    7.955532   -0.680606
     84          1           0       -0.791357    6.427659   -1.025406
     85          1           0       -7.572038    3.724175   -2.254327
     86          1           0       -9.273117    2.476354   -0.060982
     87          1           0       -8.456686    5.581820   -1.327394
     88          1           0       -7.547192    5.262354    0.130876
     89          1           0       -9.216463    4.704398   -0.026452
     90          1           0       -9.606546    0.992369   -2.368398
     91          1           0       -8.994268    2.473171   -2.976096
     92          1           0      -11.209052    3.159956   -2.979729
     93          1           0      -11.155881    3.440728   -1.224852
     94          1           0      -11.730835    1.879783   -1.901744
     95          1           0       -9.701516   -2.267600    0.772992
     96          1           0       -8.869128   -3.550055    1.261649
     97          1           0       -9.228659   -3.562385   -0.435448
     98          1           0       -3.455073   -4.754069   -0.268164
     99          1           0       -0.945091   -6.812857    2.236390
    100          1           0       -2.617155   -6.883067    2.968597
    101          1           0       -1.528814   -5.551924    3.396992
    102          1           0        4.061471   -3.900061   -2.066633
    103          1           0        3.967574   -5.686383   -1.831253
    104          1           0        4.887676   -3.836707    0.470363
    105          1           0        7.098786   -3.353209   -2.900604
    106          1           0        6.122205   -4.822533   -2.905771
    107          1           0        7.877422   -4.744317   -2.367371
    108          1           0        8.096346   -4.315852    0.167656
    109          1           0        6.845102   -3.388629    1.004478
    110          1           0        7.994015   -1.610269    0.592641
    111          1           0        7.718070   -1.718195   -1.171304
    112          1           0        9.779697   -3.394262   -0.887359
    113          1           0       10.184195   -2.357436    0.521143
    114          1           0        9.455263   -0.555155   -1.427157
    115          1           0       11.857950   -2.022875   -2.680062
    116          1           0       10.610981   -0.968741   -3.433390
    117          1           0       10.300469   -2.680677   -2.894833
    118          1           0       12.147632   -0.097463   -1.207391
    119          1           0       11.936832   -1.207530    0.049735
    120          1           0       11.121371    0.312981    1.392262
    121          1           0        9.703389    0.460849    0.442013
    122          1           0       11.962470    2.160512   -0.651634
    123          1           0       11.574033    2.452008    1.032940
    124          1           0        9.336804    2.335607   -0.884704
    125          1           0       11.493698    4.409126   -1.050186
    126          1           0        9.850798    4.897474   -1.068156
    127          1           0       10.293738    3.600009   -2.214148
    128          1           0        9.486046    4.558852    1.083392
    129          1           0        9.268399    2.880072    1.785331
    130          1           0        7.044870    2.695572    1.186613
    131          1           0        7.389030    3.258506   -0.415253
    132          1           0        6.663160    5.352548    0.175860
    133          1           0        7.752581    5.402544    1.642469
    134          1           0        5.437101    3.654137    1.987041
    135          1           0        4.240793    6.263320    2.526221
    136          1           0        4.032654    5.155931    1.121437
    137          1           0        5.174221    6.463685    1.165527
    138          1           0        7.399496    4.671263    3.772669
    139          1           0        5.798433    4.069855    4.211542
    140          1           0        6.063173    5.771215    4.056377
 ---------------------------------------------------------------------

 SCF Done:  E(RPBE1PBE) =  -3005.35949540     A.U. after   15 cycles

 Excitation energies and oscillator strengths:

 Excited State   1:      Singlet-A      1.8863 eV  657.27 nm  f=0.3643  <S**2>=0.000
     245 -> 248        0.18102
     246 -> 247        0.69040
 This state for optimization and/or second-order correction.
 Total Energy, E(TD-HF/TD-DFT) =  -3005.29017376
 Copying the excited state density for this state as the 1-particle RhoCI density.

 Excited State   2:      Singlet-A      2.2718 eV  545.75 nm  f=0.1193  <S**2>=0.000
     245 -> 247        0.65006
     246 -> 248       -0.26858

 Excited State   3:      Singlet-A      2.8475 eV  435.42 nm  f=0.0005  <S**2>=0.000
     242 -> 247       -0.21136
     243 -> 247        0.64707
     243 -> 249        0.12983

 Excited State   4:      Singlet-A      3.0446 eV  407.23 nm  f=0.0023  <S**2>=0.000
     241 -> 247       -0.13411
     242 -> 247        0.64668
     243 -> 247        0.21654

 Excited State   5:      Singlet-A      3.0814 eV  402.37 nm  f=0.0000  <S**2>=0.000
     241 -> 247        0.65702
     241 -> 249       -0.16591
     242 -> 247        0.11874

 The electronic state is 1-A.
 Alpha  occ. eigenvalues --  -46.90982 -19.27229 -19.25120 -19.20869 -19.20009
 Alpha  occ. eigenvalues --  -19.19182 -19.18403 -14.41961 -14.41061 -14.40085
 Alpha  occ. eigenvalues --  -14.38911 -10.37495 -10.35361 -10.32434 -10.31925
 Alpha  occ. eigenvalues --  -10.29665 -10.29096 -10.28895 -10.28800 -10.28361
 Alpha  occ. eigenvalues --  -10.28350 -10.28320 -10.28140 -10.27384 -10.27352
 Alpha  occ. eigenvalues --  -10.27300 -10.26570 -10.26039 -10.25747 -10.25634
 Alpha  occ. eigenvalues --  -10.25543 -10.25471 -10.25227 -10.25108 -10.25054
 Alpha  occ. eigenvalues --  -10.24950 -10.24926 -10.24622 -10.24615 -10.24613
 Alpha  occ. eigenvalues --  -10.24395 -10.23997 -10.23947 -10.23920 -10.23871
 Alpha  occ. eigenvalues --  -10.23734 -10.23616 -10.23514 -10.23414 -10.23365
 Alpha  occ. eigenvalues --  -10.23350 -10.23258 -10.23050 -10.23012 -10.22885
 Alpha  occ. eigenvalues --  -10.22850 -10.22758 -10.22754 -10.22553 -10.22371
 Alpha  occ. eigenvalues --  -10.22286 -10.22133 -10.22082 -10.21951 -10.21881
 Alpha  occ. eigenvalues --  -10.21661  -3.13341  -1.86183  -1.85716  -1.85580
 Alpha  occ. eigenvalues --   -1.13282  -1.11315  -1.05862  -1.05102  -1.02977
 Alpha  occ. eigenvalues --   -1.01932  -0.99395  -0.97976  -0.97231  -0.96614
 Alpha  occ. eigenvalues --   -0.86430  -0.85044  -0.84543  -0.83848  -0.83649
 Alpha  occ. eigenvalues --   -0.83221  -0.83023  -0.82174  -0.81806  -0.81201
 Alpha  occ. eigenvalues --   -0.80675  -0.80256  -0.78813  -0.78186  -0.77365
 Alpha  occ. eigenvalues --   -0.76784  -0.76032  -0.75808  -0.75435  -0.74803
 Alpha  occ. eigenvalues --   -0.74437  -0.73098  -0.72660  -0.71566  -0.70625
 Alpha  occ. eigenvalues --   -0.70479  -0.70111  -0.69766  -0.69245  -0.68073
 Alpha  occ. eigenvalues --   -0.67793  -0.67365  -0.66226  -0.64742  -0.63727
 Alpha  occ. eigenvalues --   -0.62894  -0.62138  -0.62009  -0.60728  -0.60424
 Alpha  occ. eigenvalues --   -0.60109  -0.59838  -0.59681  -0.59097  -0.58803
 Alpha  occ. eigenvalues --   -0.58260  -0.58048  -0.57269  -0.56865  -0.54891
 Alpha  occ. eigenvalues --   -0.54779  -0.54290  -0.54084  -0.53553  -0.52943
 Alpha  occ. eigenvalues --   -0.51949  -0.51868  -0.50901  -0.50823  -0.50643
 Alpha  occ. eigenvalues --   -0.50306  -0.50059  -0.49661  -0.49052  -0.48734
 Alpha  occ. eigenvalues --   -0.48565  -0.48310  -0.47896  -0.47629  -0.47443
 Alpha  occ. eigenvalues --   -0.47155  -0.46751  -0.46621  -0.46469  -0.46398
 Alpha  occ. eigenvalues --   -0.46244  -0.45954  -0.45750  -0.45398  -0.45371
 Alpha  occ. eigenvalues --   -0.45249  -0.44904  -0.44693  -0.44502  -0.44350
 Alpha  occ. eigenvalues --   -0.44344  -0.44108  -0.44079  -0.43946  -0.43563
 Alpha  occ. eigenvalues --   -0.43341  -0.43195  -0.42876  -0.42647  -0.42515
 Alpha  occ. eigenvalues --   -0.42380  -0.42160  -0.41871  -0.41587  -0.41400
 Alpha  occ. eigenvalues --   -0.41303  -0.41235  -0.41122  -0.40837  -0.40666
 Alpha  occ. eigenvalues --   -0.40548  -0.40222  -0.40150  -0.39885  -0.39769
 Alpha  occ. eigenvalues --   -0.39494  -0.39436  -0.39252  -0.39154  -0.38881
 Alpha  occ. eigenvalues --   -0.38758  -0.38613  -0.38470  -0.38141  -0.38027
 Alpha  occ. eigenvalues --   -0.37815  -0.37640  -0.37487  -0.37227  -0.37021
 Alpha  occ. eigenvalues --   -0.36911  -0.36835  -0.36728  -0.36305  -0.36275
 Alpha  occ. eigenvalues --   -0.35927  -0.35719  -0.35147  -0.35098  -0.34865
 Alpha  occ. eigenvalues --   -0.34687  -0.34651  -0.34281  -0.34276  -0.34004
 Alpha  occ. eigenvalues --   -0.33832  -0.33059  -0.32921  -0.32729  -0.32662
 Alpha  occ. eigenvalues --   -0.32442  -0.32303  -0.31997  -0.31958  -0.31814
 Alpha  occ. eigenvalues --   -0.31523  -0.30416  -0.29979  -0.29922  -0.29727
 Alpha  occ. eigenvalues --   -0.29388  -0.28987  -0.28937  -0.27056  -0.26232
 Alpha  occ. eigenvalues --   -0.25870  -0.25294  -0.25003  -0.23926  -0.21214
 Alpha  occ. eigenvalues --   -0.19133
 Alpha virt. eigenvalues --   -0.11310  -0.05380  -0.03928  -0.02138  -0.01109
 Alpha virt. eigenvalues --    0.00669   0.00790   0.01257   0.01589   0.02762
 Alpha virt. eigenvalues --    0.03823   0.04524   0.04798   0.04959   0.05468

 Mulliken charges:
               1
     1  Mg   1.001915
     2  C   -0.023414
     3  C   -0.100277
     4  C   -0.069216
     5  C   -0.074867
     6  N   -0.326166
     7  C   -0.005011
     8  C   -0.042412
     9  C   -0.123074
    10  C    0.027954
    11  C    0.018569
    12  C    0.018507
    13  C    0.001260
    14  C    0.241543
    15  O   -0.290139
    16  O   -0.359399
    17  N   -0.536179
    18  C    0.270507
    19  C   -0.167109
    20  C   -0.096464
    21  C    0.201533
    22  C    0.040951
    23  C    0.052430
    24  O   -0.223260
    25  C   -0.038854
    26  N   -0.455588
    27  C    0.073671
    28  C   -0.069572
    29  C   -0.113051
    30  C    0.095570
    31  C    0.010377
    32  C   -0.044629
    33  C   -0.073881
    34  N   -0.530046
    35  C    0.174973
    36  C   -0.178824
    37  C   -0.038013
    38  C    0.159365
    39  C    0.048635
    40  C    0.146321
    41  O   -0.233889
    42  C   -0.130545
    43  C    0.250944
    44  O   -0.192152
    45  O   -0.366161
    46  C    0.127724
    47  C    0.227369
    48  C   -0.138370
    49  C   -0.237686
    50  C    0.023496
    51  C    0.010331
    52  C   -0.101863
    53  C   -0.009911
    54  C   -0.246773
    55  C    0.026086
    56  C    0.015205
    57  C   -0.053246
    58  C    0.024895
    59  C   -0.254183
    60  C   -0.003993
    61  C   -0.003100
    62  C   -0.056269
    63  C   -0.040093
    64  C   -0.242711
    65  C   -0.019356
    66  C   -0.018077
    67  H   -0.005368
    68  H    0.026239
    69  H    0.005500
    70  H    0.038550
    71  H    0.040256
    72  H    0.057625
    73  H    0.051500
    74  H    0.032274
    75  H    0.046530
    76  H    0.038964
    77  H    0.081839
    78  H    0.052960
    79  H    0.049260
    80  H    0.070071
    81  H    0.029676
    82  H    0.063045
    83  H    0.055769
    84  H    0.062235
    85  H    0.060301
    86  H    0.055578
    87  H    0.038188
    88  H    0.053328
    89  H    0.041420
    90  H    0.044135
    91  H    0.024986
    92  H    0.046360
    93  H    0.050409
    94  H    0.050368
    95  H    0.046789
    96  H    0.052078
    97  H    0.063492
    98  H    0.073049
    99  H    0.056703
   100  H    0.056274
   101  H    0.044493
   102  H    0.086086
   103  H    0.075620
   104  H    0.028723
   105  H    0.045935
   106  H    0.040744
   107  H    0.048504
   108  H    0.042041
   109  H    0.018917
   110  H    0.039421
   111  H    0.047959
   112  H    0.025782
   113  H    0.031242
   114  H    0.039433
   115  H    0.034011
   116  H    0.044291
   117  H    0.022799
   118  H    0.016374
   119  H    0.021169
   120  H    0.018835
   121  H    0.033301
   122  H    0.026438
   123  H    0.020305
   124  H    0.029494
   125  H    0.040261
   126  H    0.018848
   127  H    0.041244
   128  H    0.041251
   129  H    0.030780
   130  H    0.031653
   131  H    0.032193
   132  H    0.040000
   133  H    0.037788
   134  H    0.035544
   135  H    0.030547
   136  H    0.030659
   137  H    0.026060
   138  H    0.038709
   139  H    0.035195
   140  H    0.034658
 Sum of Mulliken charges =  -0.00000

 Dipole moment (field-independent basis, Debye):
    X=              4.3230    Y=              3.0281    Z=              0.0476  Tot=              5.2783
 Quadrupole moment (field-independent basis, Debye-Ang):
   XX=           -370.5045   YY=           -428.8236   ZZ=           -411.2315
   XY=            -29.2525   XZ=             14.3126   YZ=             -0.5627

 Normal termination of Gaussian 16 at Sat Apr 30 09:19:45 2022.
