 Gaussian 16, Revision A.03,
 Gaussian 16:  ES64L-G16RevA.03 25-Dec-2016

 --------------------------------
 #p wB97XD/Def2SVP td=(nstates=5)
 --------------------------------

 ----------------------------------------------------
 step_701_chromophore_12 TDDFT with wB97XD functional
 ----------------------------------------------------
 Symbolic Z-matrix:
 Charge =  0 Multiplicity = 1

                         Standard orientation:
 ---------------------------------------------------------------------
 Center     Atomic      Atomic             Coordinates (Angstroms)
 Number     Number       Type             X           Y           Z
 ---------------------------------------------------------------------
      1         12           0       -4.639887    0.694077   -0.028838
      2          6           0       -3.808740   -2.715648    0.456270
      3          6           0       -1.239977    1.298018    0.430782
      4          6           0       -5.213255    3.926891   -0.596901
      5          6           0       -7.970237   -0.048806   -0.280743
      6          7           0       -2.715950   -0.639184    0.285012
      7          6           0       -2.596135   -1.974190    0.452813
      8          6           0       -1.162648   -2.416519    0.589000
      9          6           0       -0.416853   -1.126371    0.861741
     10          6           0       -1.510771   -0.058081    0.517157
     11          6           0        0.311976   -1.007583    2.202949
     12          6           0       -0.664372   -3.220974   -0.612228
     13          6           0        0.353490   -4.342367   -0.433357
     14          6           0        1.599593   -4.297553   -1.309845
     15          8           0        1.658583   -4.029318   -2.539739
     16          8           0        2.697131   -4.590011   -0.518187
     17          7           0       -3.452247    2.329423   -0.021031
     18          6           0       -2.072103    2.341096    0.199879
     19          6           0       -1.585494    3.705796   -0.022730
     20          6           0       -2.716371    4.568904   -0.268281
     21          6           0       -3.893147    3.618198   -0.206645
     22          6           0       -0.103460    4.105259   -0.009538
     23          6           0       -2.804752    6.069540   -0.375020
     24          8           0       -3.844906    6.652146   -0.563141
     25          6           0       -1.533870    6.916229   -0.394581
     26          7           0       -6.351337    1.804019   -0.346094
     27          6           0       -6.328661    3.126365   -0.688969
     28          6           0       -7.699230    3.557395   -1.184683
     29          6           0       -8.595056    2.395444   -0.911438
     30          6           0       -7.625198    1.265494   -0.530178
     31          6           0       -8.274096    4.831534   -0.558096
     32          6           0       -9.549303    2.056095   -2.136609
     33          6           0      -11.018186    2.697916   -2.010491
     34          7           0       -5.719861   -1.005376    0.139629
     35          6           0       -7.122544   -1.122911    0.074880
     36          6           0       -7.450636   -2.488525    0.273065
     37          6           0       -6.216563   -3.196811    0.401176
     38          6           0       -5.144797   -2.201163    0.354608
     39          6           0       -8.914677   -2.910614    0.379949
     40          6           0       -5.518531   -4.487335    0.444572
     41          8           0       -5.914470   -5.658631    0.421760
     42          6           0       -3.957383   -4.228921    0.544760
     43          6           0       -3.463394   -4.796726    1.795345
     44          8           0       -3.895165   -4.612378    2.866753
     45          8           0       -2.352163   -5.554672    1.532369
     46          6           0       -1.803318   -6.252947    2.609155
     47          6           0        3.898015   -4.708153   -1.354504
     48          6           0        5.034549   -4.213512   -0.541888
     49          6           0        6.328155   -3.959741   -0.978078
     50          6           0        6.893075   -4.277065   -2.360525
     51          6           0        7.361258   -3.519858    0.052333
     52          6           0        8.181565   -2.194453   -0.308139
     53          6           0        9.685960   -2.401014   -0.447104
     54          6           0       10.316635   -1.219097   -1.365161
     55          6           0       10.805434   -1.737713   -2.685888
     56          6           0       11.373994   -0.490103   -0.547014
     57          6           0       10.787683    0.562692    0.384727
     58          6           0       11.180286    2.050862    0.099292
     59          6           0       10.000583    2.948154   -0.274444
     60          6           0       10.488165    4.029620   -1.231845
     61          6           0        9.151371    3.534288    0.921474
     62          6           0        7.595029    3.457792    0.636243
     63          6           0        6.993526    4.852352    1.086875
     64          6           0        5.834047    4.658680    2.132758
     65          6           0        4.747018    5.662789    1.769777
     66          6           0        6.329531    4.811001    3.614819
     67          1           0       -0.180528    1.482899    0.617140
     68          1           0       -5.476274    4.955815   -0.850697
     69          1           0       -9.048303   -0.223681   -0.301286
     70          1           0       -1.061000   -3.032894    1.481414
     71          1           0        0.407351   -1.101046    0.148400
     72          1           0        0.763690   -1.893862    2.649210
     73          1           0       -0.417835   -0.418686    2.758301
     74          1           0        1.157570   -0.339466    2.040817
     75          1           0       -0.351443   -2.476474   -1.343922
     76          1           0       -1.538783   -3.678998   -1.075090
     77          1           0       -0.261733   -5.218079   -0.640224
     78          1           0        0.691100   -4.453626    0.596906
     79          1           0        0.019583    5.020297    0.569095
     80          1           0        0.402629    4.198223   -0.970113
     81          1           0        0.519182    3.369019    0.498253
     82          1           0       -1.160517    6.938377    0.629498
     83          1           0       -1.694519    7.955532   -0.680606
     84          1           0       -0.791357    6.427659   -1.025406
     85          1           0       -7.572038    3.724175   -2.254327
     86          1           0       -9.273117    2.476354   -0.060982
     87          1           0       -8.456686    5.581820   -1.327394
     88          1           0       -7.547192    5.262354    0.130876
     89          1           0       -9.216463    4.704398   -0.026452
     90          1           0       -9.606546    0.992369   -2.368398
     91          1           0       -8.994268    2.473171   -2.976096
     92          1           0      -11.209052    3.159956   -2.979729
     93          1           0      -11.155881    3.440728   -1.224852
     94          1           0      -11.730835    1.879783   -1.901744
     95          1           0       -9.701516   -2.267600    0.772992
     96          1           0       -8.869128   -3.550055    1.261649
     97          1           0       -9.228659   -3.562385   -0.435448
     98          1           0       -3.455073   -4.754069   -0.268164
     99          1           0       -0.945091   -6.812857    2.236390
    100          1           0       -2.617155   -6.883067    2.968597
    101          1           0       -1.528814   -5.551924    3.396992
    102          1           0        4.061471   -3.900061   -2.066633
    103          1           0        3.967574   -5.686383   -1.831253
    104          1           0        4.887676   -3.836707    0.470363
    105          1           0        7.098786   -3.353209   -2.900604
    106          1           0        6.122205   -4.822533   -2.905771
    107          1           0        7.877422   -4.744317   -2.367371
    108          1           0        8.096346   -4.315852    0.167656
    109          1           0        6.845102   -3.388629    1.004478
    110          1           0        7.994015   -1.610269    0.592641
    111          1           0        7.718070   -1.718195   -1.171304
    112          1           0        9.779697   -3.394262   -0.887359
    113          1           0       10.184195   -2.357436    0.521143
    114          1           0        9.455263   -0.555155   -1.427157
    115          1           0       11.857950   -2.022875   -2.680062
    116          1           0       10.610981   -0.968741   -3.433390
    117          1           0       10.300469   -2.680677   -2.894833
    118          1           0       12.147632   -0.097463   -1.207391
    119          1           0       11.936832   -1.207530    0.049735
    120          1           0       11.121371    0.312981    1.392262
    121          1           0        9.703389    0.460849    0.442013
    122          1           0       11.962470    2.160512   -0.651634
    123          1           0       11.574033    2.452008    1.032940
    124          1           0        9.336804    2.335607   -0.884704
    125          1           0       11.493698    4.409126   -1.050186
    126          1           0        9.850798    4.897474   -1.068156
    127          1           0       10.293738    3.600009   -2.214148
    128          1           0        9.486046    4.558852    1.083392
    129          1           0        9.268399    2.880072    1.785331
    130          1           0        7.044870    2.695572    1.186613
    131          1           0        7.389030    3.258506   -0.415253
    132          1           0        6.663160    5.352548    0.175860
    133          1           0        7.752581    5.402544    1.642469
    134          1           0        5.437101    3.654137    1.987041
    135          1           0        4.240793    6.263320    2.526221
    136          1           0        4.032654    5.155931    1.121437
    137          1           0        5.174221    6.463685    1.165527
    138          1           0        7.399496    4.671263    3.772669
    139          1           0        5.798433    4.069855    4.211542
    140          1           0        6.063173    5.771215    4.056377
 ---------------------------------------------------------------------

 SCF Done:  E(RwB97XD) =  -3007.86665567     A.U. after   18 cycles

 Excitation energies and oscillator strengths:

 Excited State   1:      Singlet-A      1.6947 eV  731.61 nm  f=0.3759  <S**2>=0.000
     245 -> 248       -0.19033
     246 -> 247        0.68240
     245 <- 248       -0.11754
 This state for optimization and/or second-order correction.
 Total Energy, E(TD-HF/TD-DFT) =  -3007.80437760
 Copying the excited state density for this state as the 1-particle RhoCI density.

 Excited State   2:      Singlet-A      2.2222 eV  557.94 nm  f=0.1160  <S**2>=0.000
     245 -> 247        0.63695
     246 -> 248        0.29369

 Excited State   3:      Singlet-A      3.4326 eV  361.20 nm  f=0.0001  <S**2>=0.000
     241 -> 247       -0.15904
     242 -> 247        0.20936
     242 -> 249        0.14458
     242 -> 250        0.15451
     243 -> 247        0.59559
     243 -> 249        0.11134

 Excited State   4:      Singlet-A      3.4747 eV  356.82 nm  f=0.0040  <S**2>=0.000
     241 -> 247        0.14234
     242 -> 247        0.53252
     242 -> 249        0.23148
     242 -> 250        0.20961
     243 -> 247       -0.25989

 Excited State   5:      Singlet-A      3.5849 eV  345.85 nm  f=0.3394  <S**2>=0.000
     239 -> 247       -0.14956
     241 -> 247       -0.41491
     245 -> 247       -0.18215
     246 -> 248        0.49027

 The electronic state is 1-A.
 Alpha  occ. eigenvalues --  -46.93901 -19.31779 -19.29666 -19.25516 -19.24716
 Alpha  occ. eigenvalues --  -19.24204 -19.23019 -14.47224 -14.45995 -14.45154
 Alpha  occ. eigenvalues --  -14.43707 -10.44262 -10.42167 -10.39476 -10.38612
 Alpha  occ. eigenvalues --  -10.36139 -10.35774 -10.35325 -10.35043 -10.34855
 Alpha  occ. eigenvalues --  -10.34816 -10.34813 -10.34401 -10.34251 -10.33396
 Alpha  occ. eigenvalues --  -10.33273 -10.32929 -10.32408 -10.32116 -10.31980
 Alpha  occ. eigenvalues --  -10.31876 -10.31807 -10.31708 -10.31401 -10.31348
 Alpha  occ. eigenvalues --  -10.31324 -10.31271 -10.31271 -10.30964 -10.30811
 Alpha  occ. eigenvalues --  -10.30551 -10.30478 -10.30343 -10.30247 -10.30198
 Alpha  occ. eigenvalues --  -10.30124 -10.29931 -10.29904 -10.29864 -10.29731
 Alpha  occ. eigenvalues --  -10.29624 -10.29551 -10.29441 -10.29400 -10.29274
 Alpha  occ. eigenvalues --  -10.29242 -10.29128 -10.29068 -10.28935 -10.28847
 Alpha  occ. eigenvalues --  -10.28696 -10.28540 -10.28538 -10.28378 -10.28345
 Alpha  occ. eigenvalues --  -10.28125  -3.20096  -1.93692  -1.93227  -1.93083
 Alpha  occ. eigenvalues --   -1.20631  -1.18690  -1.13532  -1.12424  -1.10289
 Alpha  occ. eigenvalues --   -1.09281  -1.06865  -1.05358  -1.04606  -1.03950
 Alpha  occ. eigenvalues --   -0.93994  -0.92675  -0.92230  -0.91540  -0.91334
 Alpha  occ. eigenvalues --   -0.90786  -0.90722  -0.89742  -0.89505  -0.89075
 Alpha  occ. eigenvalues --   -0.88368  -0.87693  -0.86482  -0.85735  -0.85022
 Alpha  occ. eigenvalues --   -0.84456  -0.83725  -0.83409  -0.83173  -0.82539
 Alpha  occ. eigenvalues --   -0.82121  -0.80782  -0.80433  -0.79127  -0.78241
 Alpha  occ. eigenvalues --   -0.78129  -0.77869  -0.77328  -0.76949  -0.75781
 Alpha  occ. eigenvalues --   -0.75309  -0.74945  -0.73773  -0.72377  -0.71237
 Alpha  occ. eigenvalues --   -0.70464  -0.69732  -0.69646  -0.68406  -0.67894
 Alpha  occ. eigenvalues --   -0.67725  -0.67452  -0.67152  -0.66474  -0.66306
 Alpha  occ. eigenvalues --   -0.65971  -0.65727  -0.64654  -0.64540  -0.62459
 Alpha  occ. eigenvalues --   -0.62260  -0.61804  -0.61469  -0.60902  -0.60374
 Alpha  occ. eigenvalues --   -0.59419  -0.59174  -0.58336  -0.58275  -0.58082
 Alpha  occ. eigenvalues --   -0.57731  -0.57430  -0.57059  -0.56475  -0.56169
 Alpha  occ. eigenvalues --   -0.55905  -0.55754  -0.55207  -0.54999  -0.54925
 Alpha  occ. eigenvalues --   -0.54518  -0.54448  -0.54041  -0.53900  -0.53683
 Alpha  occ. eigenvalues --   -0.53622  -0.53308  -0.53134  -0.52765  -0.52675
 Alpha  occ. eigenvalues --   -0.52479  -0.52267  -0.52217  -0.51940  -0.51716
 Alpha  occ. eigenvalues --   -0.51700  -0.51488  -0.51370  -0.51226  -0.50952
 Alpha  occ. eigenvalues --   -0.50693  -0.50497  -0.50122  -0.49933  -0.49783
 Alpha  occ. eigenvalues --   -0.49758  -0.49414  -0.49108  -0.48846  -0.48660
 Alpha  occ. eigenvalues --   -0.48523  -0.48497  -0.48347  -0.48010  -0.47931
 Alpha  occ. eigenvalues --   -0.47748  -0.47388  -0.47300  -0.47039  -0.46937
 Alpha  occ. eigenvalues --   -0.46728  -0.46619  -0.46470  -0.46304  -0.45951
 Alpha  occ. eigenvalues --   -0.45933  -0.45770  -0.45702  -0.45313  -0.45139
 Alpha  occ. eigenvalues --   -0.44906  -0.44893  -0.44679  -0.44382  -0.44015
 Alpha  occ. eigenvalues --   -0.44007  -0.43977  -0.43812  -0.43437  -0.43361
 Alpha  occ. eigenvalues --   -0.43068  -0.42751  -0.42257  -0.42132  -0.41914
 Alpha  occ. eigenvalues --   -0.41727  -0.41653  -0.41382  -0.41172  -0.40973
 Alpha  occ. eigenvalues --   -0.40887  -0.40116  -0.39989  -0.39789  -0.39703
 Alpha  occ. eigenvalues --   -0.39512  -0.39219  -0.39069  -0.38905  -0.38827
 Alpha  occ. eigenvalues --   -0.38594  -0.37455  -0.36948  -0.36896  -0.36595
 Alpha  occ. eigenvalues --   -0.36393  -0.35829  -0.35651  -0.33689  -0.33262
 Alpha  occ. eigenvalues --   -0.32960  -0.32035  -0.31509  -0.30616  -0.26218
 Alpha  occ. eigenvalues --   -0.23336
 Alpha virt. eigenvalues --   -0.07147   0.00023   0.02292   0.04396   0.05771
 Alpha virt. eigenvalues --    0.06897   0.07314   0.07547   0.08411   0.08979
 Alpha virt. eigenvalues --    0.10598   0.11222   0.11540   0.11668   0.12267

 Mulliken charges:
               1
     1  Mg   0.988836
     2  C   -0.022240
     3  C   -0.115391
     4  C   -0.089749
     5  C   -0.091960
     6  N   -0.287787
     7  C   -0.038028
     8  C   -0.014185
     9  C   -0.100295
    10  C    0.012731
    11  C    0.030103
    12  C    0.029689
    13  C    0.017128
    14  C    0.233374
    15  O   -0.288225
    16  O   -0.359279
    17  N   -0.506310
    18  C    0.269437
    19  C   -0.157488
    20  C   -0.091297
    21  C    0.196245
    22  C    0.052832
    23  C    0.049698
    24  O   -0.216281
    25  C   -0.025911
    26  N   -0.425592
    27  C    0.065896
    28  C   -0.042773
    29  C   -0.083379
    30  C    0.080812
    31  C    0.019282
    32  C   -0.032158
    33  C   -0.056722
    34  N   -0.491239
    35  C    0.164620
    36  C   -0.174798
    37  C   -0.030549
    38  C    0.135094
    39  C    0.057017
    40  C    0.128210
    41  O   -0.227146
    42  C   -0.088403
    43  C    0.222892
    44  O   -0.186017
    45  O   -0.362285
    46  C    0.141023
    47  C    0.240241
    48  C   -0.142505
    49  C   -0.226792
    50  C    0.035638
    51  C    0.030245
    52  C   -0.083961
    53  C    0.003796
    54  C   -0.209134
    55  C    0.038279
    56  C    0.028069
    57  C   -0.033013
    58  C    0.037720
    59  C   -0.219924
    60  C    0.008052
    61  C    0.013502
    62  C   -0.042882
    63  C   -0.021886
    64  C   -0.212985
    65  C   -0.007515
    66  C   -0.006980
    67  H   -0.013485
    68  H    0.019965
    69  H   -0.001964
    70  H    0.020946
    71  H    0.028966
    72  H    0.054473
    73  H    0.044067
    74  H    0.026310
    75  H    0.038254
    76  H    0.028577
    77  H    0.077071
    78  H    0.046942
    79  H    0.043445
    80  H    0.068000
    81  H    0.026368
    82  H    0.057797
    83  H    0.055832
    84  H    0.056080
    85  H    0.050025
    86  H    0.043185
    87  H    0.033480
    88  H    0.046852
    89  H    0.035736
    90  H    0.037220
    91  H    0.015081
    92  H    0.040131
    93  H    0.043197
    94  H    0.044717
    95  H    0.042376
    96  H    0.044653
    97  H    0.058553
    98  H    0.065775
    99  H    0.053809
   100  H    0.052056
   101  H    0.040049
   102  H    0.078163
   103  H    0.072705
   104  H    0.024739
   105  H    0.039432
   106  H    0.035319
   107  H    0.043505
   108  H    0.032492
   109  H    0.011983
   110  H    0.031254
   111  H    0.037242
   112  H    0.012987
   113  H    0.022647
   114  H    0.020858
   115  H    0.028428
   116  H    0.039353
   117  H    0.015351
   118  H    0.007645
   119  H    0.012184
   120  H    0.012397
   121  H    0.016891
   122  H    0.017801
   123  H    0.011643
   124  H    0.011628
   125  H    0.034826
   126  H    0.010624
   127  H    0.036249
   128  H    0.031214
   129  H    0.021913
   130  H    0.022714
   131  H    0.024189
   132  H    0.031729
   133  H    0.025281
   134  H    0.023657
   135  H    0.025702
   136  H    0.024422
   137  H    0.018285
   138  H    0.032276
   139  H    0.029609
   140  H    0.028731
 Sum of Mulliken charges =  -0.00000

 Dipole moment (field-independent basis, Debye):
    X=              4.9212    Y=              3.5282    Z=              0.0766  Tot=              6.0558
 Quadrupole moment (field-independent basis, Debye-Ang):
   XX=           -375.2017   YY=           -426.5740   ZZ=           -411.0311
   XY=            -30.3734   XZ=             14.1903   YZ=             -0.5514

 Normal termination of Gaussian 16 at Sat Apr 30 09:47:35 2022.
