 Gaussian 16, Revision A.03,
 Gaussian 16:  ES64L-G16RevA.03 25-Dec-2016

 --------------------
 #p ZINDO=(nstates=5)
 --------------------

 -----------------------------
 step_701_chromophore_12 ZINDO
 -----------------------------
 Symbolic Z-matrix:
 Charge =  0 Multiplicity = 1

                         Standard orientation:
 ---------------------------------------------------------------------
 Center     Atomic      Atomic             Coordinates (Angstroms)
 Number     Number       Type             X           Y           Z
 ---------------------------------------------------------------------
      1         12           0       -4.639887    0.694077   -0.028838
      2          6           0       -3.808740   -2.715648    0.456270
      3          6           0       -1.239977    1.298018    0.430782
      4          6           0       -5.213255    3.926891   -0.596901
      5          6           0       -7.970237   -0.048806   -0.280743
      6          7           0       -2.715950   -0.639184    0.285012
      7          6           0       -2.596135   -1.974190    0.452813
      8          6           0       -1.162648   -2.416519    0.589000
      9          6           0       -0.416853   -1.126371    0.861741
     10          6           0       -1.510771   -0.058081    0.517157
     11          6           0        0.311976   -1.007583    2.202949
     12          6           0       -0.664372   -3.220974   -0.612228
     13          6           0        0.353490   -4.342367   -0.433357
     14          6           0        1.599593   -4.297553   -1.309845
     15          8           0        1.658583   -4.029318   -2.539739
     16          8           0        2.697131   -4.590011   -0.518187
     17          7           0       -3.452247    2.329423   -0.021031
     18          6           0       -2.072103    2.341096    0.199879
     19          6           0       -1.585494    3.705796   -0.022730
     20          6           0       -2.716371    4.568904   -0.268281
     21          6           0       -3.893147    3.618198   -0.206645
     22          6           0       -0.103460    4.105259   -0.009538
     23          6           0       -2.804752    6.069540   -0.375020
     24          8           0       -3.844906    6.652146   -0.563141
     25          6           0       -1.533870    6.916229   -0.394581
     26          7           0       -6.351337    1.804019   -0.346094
     27          6           0       -6.328661    3.126365   -0.688969
     28          6           0       -7.699230    3.557395   -1.184683
     29          6           0       -8.595056    2.395444   -0.911438
     30          6           0       -7.625198    1.265494   -0.530178
     31          6           0       -8.274096    4.831534   -0.558096
     32          6           0       -9.549303    2.056095   -2.136609
     33          6           0      -11.018186    2.697916   -2.010491
     34          7           0       -5.719861   -1.005376    0.139629
     35          6           0       -7.122544   -1.122911    0.074880
     36          6           0       -7.450636   -2.488525    0.273065
     37          6           0       -6.216563   -3.196811    0.401176
     38          6           0       -5.144797   -2.201163    0.354608
     39          6           0       -8.914677   -2.910614    0.379949
     40          6           0       -5.518531   -4.487335    0.444572
     41          8           0       -5.914470   -5.658631    0.421760
     42          6           0       -3.957383   -4.228921    0.544760
     43          6           0       -3.463394   -4.796726    1.795345
     44          8           0       -3.895165   -4.612378    2.866753
     45          8           0       -2.352163   -5.554672    1.532369
     46          6           0       -1.803318   -6.252947    2.609155
     47          6           0        3.898015   -4.708153   -1.354504
     48          6           0        5.034549   -4.213512   -0.541888
     49          6           0        6.328155   -3.959741   -0.978078
     50          6           0        6.893075   -4.277065   -2.360525
     51          6           0        7.361258   -3.519858    0.052333
     52          6           0        8.181565   -2.194453   -0.308139
     53          6           0        9.685960   -2.401014   -0.447104
     54          6           0       10.316635   -1.219097   -1.365161
     55          6           0       10.805434   -1.737713   -2.685888
     56          6           0       11.373994   -0.490103   -0.547014
     57          6           0       10.787683    0.562692    0.384727
     58          6           0       11.180286    2.050862    0.099292
     59          6           0       10.000583    2.948154   -0.274444
     60          6           0       10.488165    4.029620   -1.231845
     61          6           0        9.151371    3.534288    0.921474
     62          6           0        7.595029    3.457792    0.636243
     63          6           0        6.993526    4.852352    1.086875
     64          6           0        5.834047    4.658680    2.132758
     65          6           0        4.747018    5.662789    1.769777
     66          6           0        6.329531    4.811001    3.614819
     67          1           0       -0.180528    1.482899    0.617140
     68          1           0       -5.476274    4.955815   -0.850697
     69          1           0       -9.048303   -0.223681   -0.301286
     70          1           0       -1.061000   -3.032894    1.481414
     71          1           0        0.407351   -1.101046    0.148400
     72          1           0        0.763690   -1.893862    2.649210
     73          1           0       -0.417835   -0.418686    2.758301
     74          1           0        1.157570   -0.339466    2.040817
     75          1           0       -0.351443   -2.476474   -1.343922
     76          1           0       -1.538783   -3.678998   -1.075090
     77          1           0       -0.261733   -5.218079   -0.640224
     78          1           0        0.691100   -4.453626    0.596906
     79          1           0        0.019583    5.020297    0.569095
     80          1           0        0.402629    4.198223   -0.970113
     81          1           0        0.519182    3.369019    0.498253
     82          1           0       -1.160517    6.938377    0.629498
     83          1           0       -1.694519    7.955532   -0.680606
     84          1           0       -0.791357    6.427659   -1.025406
     85          1           0       -7.572038    3.724175   -2.254327
     86          1           0       -9.273117    2.476354   -0.060982
     87          1           0       -8.456686    5.581820   -1.327394
     88          1           0       -7.547192    5.262354    0.130876
     89          1           0       -9.216463    4.704398   -0.026452
     90          1           0       -9.606546    0.992369   -2.368398
     91          1           0       -8.994268    2.473171   -2.976096
     92          1           0      -11.209052    3.159956   -2.979729
     93          1           0      -11.155881    3.440728   -1.224852
     94          1           0      -11.730835    1.879783   -1.901744
     95          1           0       -9.701516   -2.267600    0.772992
     96          1           0       -8.869128   -3.550055    1.261649
     97          1           0       -9.228659   -3.562385   -0.435448
     98          1           0       -3.455073   -4.754069   -0.268164
     99          1           0       -0.945091   -6.812857    2.236390
    100          1           0       -2.617155   -6.883067    2.968597
    101          1           0       -1.528814   -5.551924    3.396992
    102          1           0        4.061471   -3.900061   -2.066633
    103          1           0        3.967574   -5.686383   -1.831253
    104          1           0        4.887676   -3.836707    0.470363
    105          1           0        7.098786   -3.353209   -2.900604
    106          1           0        6.122205   -4.822533   -2.905771
    107          1           0        7.877422   -4.744317   -2.367371
    108          1           0        8.096346   -4.315852    0.167656
    109          1           0        6.845102   -3.388629    1.004478
    110          1           0        7.994015   -1.610269    0.592641
    111          1           0        7.718070   -1.718195   -1.171304
    112          1           0        9.779697   -3.394262   -0.887359
    113          1           0       10.184195   -2.357436    0.521143
    114          1           0        9.455263   -0.555155   -1.427157
    115          1           0       11.857950   -2.022875   -2.680062
    116          1           0       10.610981   -0.968741   -3.433390
    117          1           0       10.300469   -2.680677   -2.894833
    118          1           0       12.147632   -0.097463   -1.207391
    119          1           0       11.936832   -1.207530    0.049735
    120          1           0       11.121371    0.312981    1.392262
    121          1           0        9.703389    0.460849    0.442013
    122          1           0       11.962470    2.160512   -0.651634
    123          1           0       11.574033    2.452008    1.032940
    124          1           0        9.336804    2.335607   -0.884704
    125          1           0       11.493698    4.409126   -1.050186
    126          1           0        9.850798    4.897474   -1.068156
    127          1           0       10.293738    3.600009   -2.214148
    128          1           0        9.486046    4.558852    1.083392
    129          1           0        9.268399    2.880072    1.785331
    130          1           0        7.044870    2.695572    1.186613
    131          1           0        7.389030    3.258506   -0.415253
    132          1           0        6.663160    5.352548    0.175860
    133          1           0        7.752581    5.402544    1.642469
    134          1           0        5.437101    3.654137    1.987041
    135          1           0        4.240793    6.263320    2.526221
    136          1           0        4.032654    5.155931    1.121437
    137          1           0        5.174221    6.463685    1.165527
    138          1           0        7.399496    4.671263    3.772669
    139          1           0        5.798433    4.069855    4.211542
    140          1           0        6.063173    5.771215    4.056377
 ---------------------------------------------------------------------

 SCF Done:  E(RZINDO/S) =  -474.379503684     A.U. after   20 cycles

 Excitation energies and oscillator strengths:

 Excited State   1:      Singlet-A      1.2859 eV  964.17 nm  f=0.5794  <S**2>=0.000
     175 ->178        -0.18314
     176 ->177         0.66612
 This state for optimization and/or second-order correction.
 Total Energy, E(CIS/TDA) =  -474.332247261
 Copying the excited state density for this state as the 1-particle RhoCI density.

 Excited State   2:      Singlet-A      1.9616 eV  632.05 nm  f=0.0462  <S**2>=0.000
     175 ->177         0.54473
     176 ->178         0.42361

 Excited State   3:      Singlet-A      2.9508 eV  420.17 nm  f=0.0106  <S**2>=0.000
     167 ->179        -0.11469
     168 ->177         0.31504
     168 ->179        -0.44992
     168 ->181         0.21906
     168 ->186        -0.23323

 Excited State   4:      Singlet-A      3.0289 eV  409.34 nm  f=0.0645  <S**2>=0.000
     170 ->177         0.32023
     170 ->178         0.13537
     170 ->179         0.23388
     170 ->181         0.38028
     170 ->186         0.18806
     170 ->188        -0.13001
     170 ->201        -0.11311
     171 ->181         0.11558
     176 ->178         0.12789

 Excited State   5:      Singlet-A      3.0367 eV  408.29 nm  f=0.8659  <S**2>=0.000
     173 ->177        -0.10559
     175 ->177        -0.34421
     176 ->178         0.46945
     176 ->179         0.23174
     176 ->181         0.18097

 The electronic state is 1-A.
 Alpha  occ. eigenvalues --   -1.83300  -1.81539  -1.79952  -1.76771  -1.73114
 Alpha  occ. eigenvalues --   -1.70761  -1.65781  -1.60927  -1.60456  -1.58404
 Alpha  occ. eigenvalues --   -1.55108  -1.51938  -1.49463  -1.47858  -1.46790
 Alpha  occ. eigenvalues --   -1.45022  -1.43624  -1.40478  -1.39190  -1.37619
 Alpha  occ. eigenvalues --   -1.36182  -1.34078  -1.32709  -1.32345  -1.28993
 Alpha  occ. eigenvalues --   -1.27850  -1.25325  -1.22600  -1.21280  -1.18494
 Alpha  occ. eigenvalues --   -1.17399  -1.17031  -1.16238  -1.15438  -1.13782
 Alpha  occ. eigenvalues --   -1.12643  -1.11471  -1.09722  -1.04915  -1.03091
 Alpha  occ. eigenvalues --   -1.02199  -1.01464  -0.97890  -0.97634  -0.96204
 Alpha  occ. eigenvalues --   -0.95711  -0.95069  -0.94334  -0.94032  -0.93120
 Alpha  occ. eigenvalues --   -0.91459  -0.90422  -0.89398  -0.88739  -0.87343
 Alpha  occ. eigenvalues --   -0.85959  -0.84708  -0.84221  -0.82876  -0.80587
 Alpha  occ. eigenvalues --   -0.80187  -0.79433  -0.77788  -0.77189  -0.76532
 Alpha  occ. eigenvalues --   -0.75650  -0.74634  -0.74185  -0.73580  -0.73172
 Alpha  occ. eigenvalues --   -0.73048  -0.72716  -0.71825  -0.71693  -0.70703
 Alpha  occ. eigenvalues --   -0.70313  -0.69859  -0.69105  -0.68482  -0.67844
 Alpha  occ. eigenvalues --   -0.67615  -0.67160  -0.66975  -0.66280  -0.66067
 Alpha  occ. eigenvalues --   -0.65943  -0.65229  -0.64947  -0.64345  -0.63655
 Alpha  occ. eigenvalues --   -0.63034  -0.62897  -0.62816  -0.61892  -0.61813
 Alpha  occ. eigenvalues --   -0.61550  -0.61330  -0.61031  -0.60511  -0.60185
 Alpha  occ. eigenvalues --   -0.59984  -0.59726  -0.59414  -0.59317  -0.58192
 Alpha  occ. eigenvalues --   -0.57647  -0.57291  -0.56934  -0.56375  -0.55953
 Alpha  occ. eigenvalues --   -0.55762  -0.55715  -0.55671  -0.55118  -0.54737
 Alpha  occ. eigenvalues --   -0.54529  -0.54428  -0.53814  -0.53426  -0.53100
 Alpha  occ. eigenvalues --   -0.52579  -0.52299  -0.51941  -0.51793  -0.51257
 Alpha  occ. eigenvalues --   -0.51133  -0.51089  -0.50924  -0.50696  -0.50164
 Alpha  occ. eigenvalues --   -0.49979  -0.49807  -0.49773  -0.49589  -0.49003
 Alpha  occ. eigenvalues --   -0.48945  -0.48752  -0.48422  -0.48267  -0.48151
 Alpha  occ. eigenvalues --   -0.47332  -0.47230  -0.46919  -0.46580  -0.46558
 Alpha  occ. eigenvalues --   -0.46419  -0.46054  -0.45748  -0.45688  -0.45339
 Alpha  occ. eigenvalues --   -0.45237  -0.44802  -0.44752  -0.44462  -0.44099
 Alpha  occ. eigenvalues --   -0.43870  -0.43253  -0.43110  -0.42997  -0.42665
 Alpha  occ. eigenvalues --   -0.42017  -0.41755  -0.41680  -0.39709  -0.39582
 Alpha  occ. eigenvalues --   -0.38081  -0.36893  -0.35899  -0.35093  -0.34241
 Alpha  occ. eigenvalues --   -0.34161  -0.32633  -0.31782  -0.30771  -0.26896
 Alpha  occ. eigenvalues --   -0.22085
 Alpha virt. eigenvalues --   -0.08611  -0.02268  -0.00700   0.00510   0.01489
 Alpha virt. eigenvalues --    0.02696   0.03522   0.03901   0.04317   0.05055
 Alpha virt. eigenvalues --    0.06231   0.06411   0.06581   0.07687   0.08105

 Mulliken charges:
               1
     1  Mg   0.422275
     2  C   -0.031474
     3  C   -0.056147
     4  C   -0.073009
     5  C   -0.058753
     6  N   -0.274246
     7  C    0.109502
     8  C    0.018378
     9  C    0.001391
    10  C    0.139685
    11  C   -0.055236
    12  C   -0.017475
    13  C    0.009378
    14  C    0.466097
    15  O   -0.525667
    16  O   -0.259691
    17  N   -0.326409
    18  C    0.128380
    19  C    0.023412
    20  C   -0.052812
    21  C    0.157409
    22  C   -0.045826
    23  C    0.334710
    24  O   -0.510181
    25  C   -0.029491
    26  N   -0.286588
    27  C    0.165835
    28  C    0.022009
    29  C    0.006061
    30  C    0.090714
    31  C   -0.053034
    32  C   -0.045338
    33  C   -0.062007
    34  N   -0.313391
    35  C    0.073314
    36  C    0.030903
    37  C   -0.062329
    38  C    0.102598
    39  C   -0.054559
    40  C    0.330980
    41  O   -0.535120
    42  C    0.051814
    43  C    0.500036
    44  O   -0.502635
    45  O   -0.290176
    46  C    0.078145
    47  C    0.098628
    48  C   -0.085133
    49  C   -0.039034
    50  C   -0.045686
    51  C   -0.033510
    52  C   -0.039179
    53  C   -0.043475
    54  C   -0.017216
    55  C   -0.050844
    56  C   -0.027260
    57  C   -0.036557
    58  C   -0.032850
    59  C   -0.018580
    60  C   -0.060515
    61  C   -0.036823
    62  C   -0.050195
    63  C   -0.045298
    64  C   -0.009309
    65  C   -0.058518
    66  C   -0.056698
    67  H    0.025666
    68  H    0.040649
    69  H    0.025921
    70  H    0.025989
    71  H    0.022365
    72  H    0.038259
    73  H    0.029644
    74  H    0.008688
    75  H    0.029087
    76  H    0.019984
    77  H    0.052065
    78  H    0.034072
    79  H    0.027501
    80  H    0.039700
    81  H    0.019073
    82  H    0.034247
    83  H    0.041287
    84  H    0.032800
    85  H    0.038668
    86  H    0.034720
    87  H    0.016735
    88  H    0.024393
    89  H    0.023375
    90  H    0.027223
    91  H    0.016462
    92  H    0.017025
    93  H    0.029819
    94  H    0.021957
    95  H    0.036557
    96  H    0.018410
    97  H    0.037856
    98  H    0.050473
    99  H    0.029244
   100  H    0.047202
   101  H    0.038516
   102  H    0.069097
   103  H    0.061912
   104  H    0.036767
   105  H    0.025417
   106  H    0.022450
   107  H    0.030540
   108  H    0.025230
   109  H    0.016937
   110  H    0.014177
   111  H    0.029289
   112  H    0.023001
   113  H    0.024225
   114  H    0.024935
   115  H    0.020355
   116  H    0.020799
   117  H    0.015706
   118  H    0.012875
   119  H    0.013336
   120  H    0.009406
   121  H    0.020943
   122  H    0.023251
   123  H    0.012575
   124  H    0.014068
   125  H    0.025418
   126  H    0.008282
   127  H    0.022855
   128  H    0.033522
   129  H    0.018841
   130  H    0.023950
   131  H    0.020394
   132  H    0.024602
   133  H    0.026497
   134  H    0.022326
   135  H    0.020780
   136  H    0.012243
   137  H    0.009985
   138  H    0.021917
   139  H    0.012388
   140  H    0.019698
 Sum of Mulliken charges =   0.00000

 Dipole moment (field-independent basis, Debye):
    X=              8.2088    Y=              5.4965    Z=              0.3097  Tot=              9.8840
 N-N= 4.385055913620D+03 E-N= 0.000000000000D+00  KE=-9.443983892541D+03
 Leave Link  601 at Sat Apr 30 09:59:51 2022, MaxMem=  6710886400 cpu:               0.8 elap:               0.0
 (Enter /sw/apps/gaussian-16.0/g16/l9999.exe)
 1\1\GINC-BP1-COMPUTE103\SP\RZINDO CIS\STO-3G\C55H74Mg1N4O6\OF15641\30-
 Apr-2022\0\\#p ZINDO=(nstates=5)\\step_701_chromophore_12 ZINDO\\0,1\M
 g,0,47.069,15.991,27.824\C,0,45.254,15.278,30.782\C,0,48.97,18.107,29.
 835\C,0,48.972,16.676,25.176\C,0,44.998,14.01,25.955\N,0,47.146,16.513
 ,30.126\C,0,46.338,16.126,31.137\C,0,46.773,16.674,32.471\C,0,47.752,1
 7.77,32.103\C,0,47.989,17.475,30.582\C,0,47.391,19.2,32.514\C,0,47.315
 ,15.6,33.415\C,0,47.108,15.708,34.922\C,0,48.344,15.583,35.805\O,0,49.

 Normal termination of Gaussian 16 at Sat Apr 30 09:59:51 2022.
