 Gaussian 16, Revision A.03,
 Gaussian 16:  ES64L-G16RevA.03 25-Dec-2016

 ------------------------------
 #p blyp/Def2SVP td=(nstates=5)
 ------------------------------

 ------------------------------------------------
 step_51_chromophore_2 TDDFT with blyp functional
 ------------------------------------------------
 Symbolic Z-matrix:
 Charge =  0 Multiplicity = 1

                         Standard orientation:
 ---------------------------------------------------------------------
 Center     Atomic      Atomic             Coordinates (Angstroms)
 Number     Number       Type             X           Y           Z
 ---------------------------------------------------------------------
      1         12           0        4.513170    1.333832   -0.575088
      2          6           0        5.319358   -2.137273   -0.451206
      3          6           0        2.109440    0.653495   -2.841261
      4          6           0        3.229364    4.472013   -0.118222
      5          6           0        6.437449    1.695341    2.311907
      6          7           0        3.684008   -0.657402   -1.331583
      7          6           0        4.166169   -1.946399   -1.217433
      8          6           0        3.399346   -2.897268   -2.176726
      9          6           0        2.523463   -1.911769   -3.105268
     10          6           0        2.755436   -0.566279   -2.348293
     11          6           0        3.089713   -1.913469   -4.593848
     12          6           0        2.633303   -3.892485   -1.280191
     13          6           0        1.702538   -3.346166   -0.287736
     14          6           0        0.593688   -4.236576    0.299617
     15          8           0        0.174086   -5.284750   -0.228162
     16          8           0       -0.015618   -3.690533    1.435944
     17          7           0        3.062483    2.534347   -1.507355
     18          6           0        2.256695    2.052462   -2.465510
     19          6           0        1.631012    3.203355   -3.189545
     20          6           0        1.895303    4.374422   -2.400978
     21          6           0        2.841629    3.836608   -1.341416
     22          6           0        0.793304    3.059660   -4.432717
     23          6           0        1.303053    5.719342   -2.587551
     24          8           0        0.463898    6.005951   -3.446543
     25          6           0        1.738892    6.817999   -1.671137
     26          7           0        4.581412    2.788146    1.092343
     27          6           0        4.018129    4.003361    0.974281
     28          6           0        4.353386    4.852796    2.283283
     29          6           0        5.459093    3.958478    2.944526
     30          6           0        5.525906    2.706849    2.026573
     31          6           0        4.841571    6.248740    1.889956
     32          6           0        5.272553    3.500328    4.449342
     33          6           0        6.448775    3.726460    5.386352
     34          7           0        5.715922    0.135875    0.612435
     35          6           0        6.491011    0.478234    1.713488
     36          6           0        7.352433   -0.607157    2.012935
     37          6           0        6.929052   -1.642031    1.165387
     38          6           0        5.881283   -1.149374    0.354626
     39          6           0        8.403275   -0.691691    3.101996
     40          6           0        7.171314   -3.046850    0.797546
     41          8           0        7.972651   -3.830029    1.206533
     42          6           0        6.111186   -3.389502   -0.277722
     43          6           0        6.741100   -3.909288   -1.577954
     44          8           0        7.272738   -5.011317   -1.658263
     45          8           0        6.825620   -3.017614   -2.609801
     46          6           0        7.644487   -3.402084   -3.737274
     47          6           0       -1.223036   -4.337160    1.975055
     48          6           0       -2.305882   -3.290550    2.139363
     49          6           0       -3.268736   -3.179598    3.073382
     50          6           0       -3.548642   -4.189301    4.190805
     51          6           0       -4.125633   -1.840002    3.024795
     52          6           0       -5.358372   -1.996728    2.120473
     53          6           0       -6.280692   -0.736797    2.257816
     54          6           0       -6.443190    0.153069    1.003591
     55          6           0       -6.785861    1.659699    1.447508
     56          6           0       -7.436042   -0.444939    0.025717
     57          6           0       -9.023251   -0.412626    0.358831
     58          6           0       -9.907255    0.410078   -0.646372
     59          6           0      -10.843559   -0.350795   -1.540613
     60          6           0      -10.185618   -0.278624   -3.049783
     61          6           0      -12.246396    0.394471   -1.700382
     62          6           0      -13.324888   -0.289636   -0.744922
     63          6           0      -13.890057    0.679340    0.300552
     64          6           0      -15.373438    0.333793    0.693078
     65          6           0      -16.265640    0.667083   -0.505669
     66          6           0      -15.985674    0.999842    1.914122
     67          1           0        1.554582    0.446704   -3.759330
     68          1           0        2.859650    5.473554    0.112047
     69          1           0        7.041617    1.766071    3.219405
     70          1           0        4.007468   -3.598606   -2.748525
     71          1           0        1.495239   -2.252362   -3.227963
     72          1           0        2.259485   -2.085985   -5.278255
     73          1           0        3.887153   -2.645722   -4.721593
     74          1           0        3.476386   -0.895856   -4.652024
     75          1           0        3.447308   -4.418717   -0.781141
     76          1           0        2.083933   -4.654553   -1.833599
     77          1           0        1.183535   -2.473787   -0.685232
     78          1           0        2.375169   -3.113573    0.537313
     79          1           0        1.411073    2.592020   -5.199170
     80          1           0        0.343933    3.880856   -4.990885
     81          1           0        0.019202    2.334709   -4.179704
     82          1           0        1.680399    7.818014   -2.100637
     83          1           0        2.764790    6.570934   -1.399828
     84          1           0        1.149664    6.842854   -0.754312
     85          1           0        3.513644    5.014047    2.959498
     86          1           0        6.423854    4.379410    2.658855
     87          1           0        4.025586    6.920773    2.154619
     88          1           0        4.932682    6.227519    0.803524
     89          1           0        5.788639    6.629179    2.272306
     90          1           0        5.063436    2.432252    4.482290
     91          1           0        4.437748    4.019745    4.920343
     92          1           0        6.404416    4.684545    5.904622
     93          1           0        7.447750    3.795182    4.954742
     94          1           0        6.371630    2.920801    6.117382
     95          1           0        8.242567   -0.037406    3.959165
     96          1           0        9.250228   -0.165691    2.661083
     97          1           0        8.706545   -1.714519    3.323944
     98          1           0        5.424139   -4.075312    0.216642
     99          1           0        7.961197   -2.539854   -4.324121
    100          1           0        7.196552   -4.195645   -4.335449
    101          1           0        8.542540   -3.840207   -3.301402
    102          1           0       -0.968097   -4.891546    2.878144
    103          1           0       -1.623713   -5.054000    1.257630
    104          1           0       -2.264000   -2.501206    1.388004
    105          1           0       -3.375132   -3.632412    5.111206
    106          1           0       -2.875824   -5.041477    4.282900
    107          1           0       -4.590260   -4.509221    4.225419
    108          1           0       -3.571990   -1.012770    2.581480
    109          1           0       -4.507191   -1.600722    4.017437
    110          1           0       -5.834283   -2.934178    2.406884
    111          1           0       -4.986095   -2.115561    1.102306
    112          1           0       -5.928874   -0.123091    3.086440
    113          1           0       -7.206428   -1.266627    2.486459
    114          1           0       -5.508813    0.036136    0.454961
    115          1           0       -7.838262    1.793115    1.696572
    116          1           0       -6.392822    2.350263    0.701053
    117          1           0       -6.420832    1.807733    2.463398
    118          1           0       -7.141936   -1.490706   -0.056109
    119          1           0       -7.183058   -0.019511   -0.944710
    120          1           0       -9.196935   -0.090057    1.386089
    121          1           0       -9.302186   -1.463687    0.437396
    122          1           0       -9.232476    1.025087   -1.243258
    123          1           0      -10.472086    1.010357    0.066665
    124          1           0      -10.929065   -1.407251   -1.281910
    125          1           0       -9.123555   -0.489225   -2.920204
    126          1           0      -10.397150    0.609351   -3.645609
    127          1           0      -10.519615   -1.157137   -3.600185
    128          1           0      -12.690574    0.486678   -2.691909
    129          1           0      -11.921999    1.403170   -1.444654
    130          1           0      -12.786889   -1.048840   -0.176954
    131          1           0      -14.131056   -0.644169   -1.386960
    132          1           0      -13.719775    1.655642   -0.154353
    133          1           0      -13.216720    0.522572    1.142616
    134          1           0      -15.452795   -0.744536    0.832891
    135          1           0      -15.651520    1.241075   -1.198904
    136          1           0      -17.152522    1.258504   -0.278079
    137          1           0      -16.636689   -0.250368   -0.962321
    138          1           0      -16.284646    2.021175    1.676228
    139          1           0      -15.300658    1.047999    2.760496
    140          1           0      -16.900122    0.442253    2.118311
 ---------------------------------------------------------------------

 SCF Done:  E(RB-LYP) =  -3007.35120494     A.U. after   20 cycles

 Excitation energies and oscillator strengths:

 Excited State   1:      Singlet-A      1.7938 eV  691.20 nm  f=0.0665  <S**2>=0.000
     244 -> 247        0.57718
     245 -> 247        0.20401
     246 -> 247        0.33808
 This state for optimization and/or second-order correction.
 Total Energy, E(TD-HF/TD-DFT) =  -3007.28528527
 Copying the excited state density for this state as the 1-particle RhoCI density.

 Excited State   2:      Singlet-A      1.8136 eV  683.62 nm  f=0.2082  <S**2>=0.000
     244 -> 247       -0.34779
     245 -> 248       -0.17513
     246 -> 247        0.59089
     246 <- 247       -0.12288

 Excited State   3:      Singlet-A      1.9606 eV  632.36 nm  f=0.0472  <S**2>=0.000
     243 -> 247       -0.37698
     244 -> 247       -0.18823
     245 -> 247        0.52362
     246 -> 248        0.18873

 Excited State   4:      Singlet-A      2.1003 eV  590.31 nm  f=0.0213  <S**2>=0.000
     243 -> 247        0.58780
     245 -> 247        0.31041
     246 -> 248        0.19380

 Excited State   5:      Singlet-A      2.1621 eV  573.45 nm  f=0.0001  <S**2>=0.000
     242 -> 247        0.70709

 The electronic state is 1-A.
 Alpha  occ. eigenvalues --  -46.29022 -18.82754 -18.81818 -18.76962 -18.76333
 Alpha  occ. eigenvalues --  -18.76231 -18.75101 -14.04092 -14.03374 -14.02347
 Alpha  occ. eigenvalues --  -14.00938 -10.04609 -10.04411  -9.99928  -9.99609
 Alpha  occ. eigenvalues --   -9.98145  -9.97922  -9.97781  -9.97243  -9.97214
 Alpha  occ. eigenvalues --   -9.97105  -9.96901  -9.96536  -9.95186  -9.95088
 Alpha  occ. eigenvalues --   -9.94870  -9.94846  -9.94624  -9.94553  -9.94416
 Alpha  occ. eigenvalues --   -9.94230  -9.93813  -9.93712  -9.93657  -9.93628
 Alpha  occ. eigenvalues --   -9.93514  -9.93350  -9.93322  -9.93175  -9.92956
 Alpha  occ. eigenvalues --   -9.92918  -9.92727  -9.92684  -9.92569  -9.92294
 Alpha  occ. eigenvalues --   -9.92257  -9.92239  -9.92183  -9.92163  -9.92120
 Alpha  occ. eigenvalues --   -9.91682  -9.91589  -9.91553  -9.91477  -9.91372
 Alpha  occ. eigenvalues --   -9.91213  -9.91115  -9.91108  -9.91074  -9.90983
 Alpha  occ. eigenvalues --   -9.90966  -9.90900  -9.90745  -9.90675  -9.90587
 Alpha  occ. eigenvalues --   -9.90343  -2.93482  -1.73857  -1.73407  -1.73182
 Alpha  occ. eigenvalues --   -0.98549  -0.96354  -0.93324  -0.90608  -0.89465
 Alpha  occ. eigenvalues --   -0.88728  -0.87606  -0.87170  -0.86485  -0.85191
 Alpha  occ. eigenvalues --   -0.76566  -0.73544  -0.72985  -0.72544  -0.72355
 Alpha  occ. eigenvalues --   -0.71872  -0.71565  -0.70903  -0.70655  -0.70574
 Alpha  occ. eigenvalues --   -0.70063  -0.69263  -0.68262  -0.67872  -0.67136
 Alpha  occ. eigenvalues --   -0.66375  -0.66202  -0.65492  -0.65065  -0.64583
 Alpha  occ. eigenvalues --   -0.63354  -0.62840  -0.62532  -0.62005  -0.61425
 Alpha  occ. eigenvalues --   -0.60374  -0.60127  -0.59648  -0.59563  -0.58479
 Alpha  occ. eigenvalues --   -0.58344  -0.57630  -0.57227  -0.55719  -0.54483
 Alpha  occ. eigenvalues --   -0.54434  -0.53957  -0.53398  -0.52027  -0.51861
 Alpha  occ. eigenvalues --   -0.51528  -0.51150  -0.50965  -0.50857  -0.50023
 Alpha  occ. eigenvalues --   -0.49451  -0.48761  -0.48563  -0.47269  -0.47049
 Alpha  occ. eigenvalues --   -0.46658  -0.46520  -0.45970  -0.45651  -0.45208
 Alpha  occ. eigenvalues --   -0.44467  -0.44211  -0.43433  -0.43300  -0.42978
 Alpha  occ. eigenvalues --   -0.42322  -0.42128  -0.41908  -0.41869  -0.41098
 Alpha  occ. eigenvalues --   -0.41008  -0.40809  -0.40309  -0.40141  -0.39899
 Alpha  occ. eigenvalues --   -0.39883  -0.39677  -0.39375  -0.39235  -0.39149
 Alpha  occ. eigenvalues --   -0.39039  -0.38726  -0.38649  -0.38597  -0.38256
 Alpha  occ. eigenvalues --   -0.38159  -0.38014  -0.37847  -0.37633  -0.37589
 Alpha  occ. eigenvalues --   -0.37501  -0.37297  -0.37158  -0.36570  -0.36478
 Alpha  occ. eigenvalues --   -0.36208  -0.36183  -0.36053  -0.35773  -0.35693
 Alpha  occ. eigenvalues --   -0.35564  -0.35453  -0.35124  -0.34938  -0.34727
 Alpha  occ. eigenvalues --   -0.34568  -0.34451  -0.34357  -0.34300  -0.34068
 Alpha  occ. eigenvalues --   -0.34024  -0.33934  -0.33777  -0.33599  -0.33422
 Alpha  occ. eigenvalues --   -0.33291  -0.33063  -0.32695  -0.32408  -0.32344
 Alpha  occ. eigenvalues --   -0.32092  -0.31915  -0.31803  -0.31696  -0.31509
 Alpha  occ. eigenvalues --   -0.31387  -0.31225  -0.30930  -0.30685  -0.30446
 Alpha  occ. eigenvalues --   -0.30367  -0.30272  -0.30057  -0.29947  -0.29821
 Alpha  occ. eigenvalues --   -0.29574  -0.29535  -0.29278  -0.29069  -0.28758
 Alpha  occ. eigenvalues --   -0.28455  -0.28342  -0.28087  -0.28023  -0.27941
 Alpha  occ. eigenvalues --   -0.27861  -0.27404  -0.27026  -0.26989  -0.26672
 Alpha  occ. eigenvalues --   -0.26565  -0.26032  -0.25926  -0.25467  -0.25426
 Alpha  occ. eigenvalues --   -0.25356  -0.25208  -0.24595  -0.24362  -0.23405
 Alpha  occ. eigenvalues --   -0.22805  -0.22561  -0.22003  -0.21519  -0.21067
 Alpha  occ. eigenvalues --   -0.20684  -0.19728  -0.19213  -0.18352  -0.17639
 Alpha  occ. eigenvalues --   -0.16154
 Alpha virt. eigenvalues --   -0.11783  -0.07618  -0.06692  -0.05001  -0.04638
 Alpha virt. eigenvalues --   -0.03316  -0.02821  -0.02246  -0.01281  -0.00056
 Alpha virt. eigenvalues --    0.00991   0.01837   0.02130   0.02752   0.02864

 Mulliken charges:
               1
     1  Mg   0.699752
     2  C   -0.078245
     3  C   -0.040918
     4  C   -0.006733
     5  C   -0.097121
     6  N   -0.211460
     7  C   -0.087413
     8  C    0.062371
     9  C   -0.029080
    10  C    0.012654
    11  C    0.113516
    12  C    0.063048
    13  C    0.120336
    14  C    0.102327
    15  O   -0.205532
    16  O   -0.292021
    17  N   -0.243576
    18  C    0.104485
    19  C   -0.120418
    20  C    0.021646
    21  C    0.102641
    22  C    0.174881
    23  C   -0.084791
    24  O   -0.167391
    25  C    0.120579
    26  N   -0.174557
    27  C   -0.036536
    28  C   -0.010339
    29  C    0.076395
    30  C   -0.023123
    31  C    0.111935
    32  C    0.100910
    33  C    0.047942
    34  N   -0.242660
    35  C    0.136832
    36  C   -0.191504
    37  C    0.057171
    38  C    0.118430
    39  C    0.204414
    40  C   -0.079389
    41  O   -0.076391
    42  C    0.075405
    43  C    0.132698
    44  O   -0.181793
    45  O   -0.264501
    46  C    0.222554
    47  C    0.326847
    48  C   -0.098176
    49  C   -0.125033
    50  C    0.143350
    51  C    0.091778
    52  C    0.036686
    53  C    0.111305
    54  C   -0.041349
    55  C    0.108780
    56  C    0.072592
    57  C    0.047835
    58  C    0.144040
    59  C   -0.094063
    60  C    0.068196
    61  C    0.085116
    62  C    0.062733
    63  C    0.093013
    64  C   -0.083951
    65  C    0.090871
    66  C    0.123990
    67  H   -0.055520
    68  H   -0.071453
    69  H   -0.066518
    70  H   -0.021699
    71  H   -0.013446
    72  H    0.001730
    73  H    0.003484
    74  H   -0.005440
    75  H   -0.026618
    76  H   -0.014212
    77  H    0.020073
    78  H    0.007681
    79  H   -0.013426
    80  H    0.009797
    81  H    0.003485
    82  H   -0.005138
    83  H    0.000399
    84  H    0.017332
    85  H   -0.013679
    86  H   -0.032547
    87  H   -0.008913
    88  H   -0.012447
    89  H   -0.002563
    90  H   -0.004221
    91  H   -0.019903
    92  H   -0.012845
    93  H   -0.006840
    94  H   -0.006282
    95  H   -0.014635
    96  H   -0.014661
    97  H    0.018785
    98  H    0.023283
    99  H    0.015722
   100  H    0.013201
   101  H    0.011041
   102  H   -0.001164
   103  H    0.007025
   104  H   -0.040034
   105  H   -0.008238
   106  H   -0.013963
   107  H    0.002263
   108  H   -0.017418
   109  H   -0.029829
   110  H   -0.034604
   111  H   -0.030115
   112  H   -0.030988
   113  H   -0.032556
   114  H   -0.043775
   115  H   -0.019594
   116  H    0.003021
   117  H   -0.029757
   118  H   -0.042307
   119  H   -0.029798
   120  H   -0.028212
   121  H   -0.039409
   122  H   -0.018190
   123  H   -0.032685
   124  H   -0.025725
   125  H   -0.021939
   126  H    0.002657
   127  H   -0.027592
   128  H   -0.027661
   129  H   -0.033119
   130  H   -0.024283
   131  H   -0.024926
   132  H   -0.025912
   133  H   -0.039908
   134  H   -0.036694
   135  H   -0.015763
   136  H   -0.023476
   137  H   -0.013722
   138  H   -0.020562
   139  H   -0.021492
   140  H   -0.014551
 Sum of Mulliken charges =  -0.00000

 Dipole moment (field-independent basis, Debye):
    X=             -0.0182    Y=              4.0540    Z=              1.5842  Tot=              4.3526
 Quadrupole moment (field-independent basis, Debye-Ang):
   XX=           -406.4572   YY=           -445.3906   ZZ=           -385.4409
   XY=             55.7208   XZ=            -14.8227   YZ=             21.6679

 Normal termination of Gaussian 16 at Thu May  5 02:52:57 2022.
