 Gaussian 16, Revision A.03,
 Gaussian 16:  ES64L-G16RevA.03 25-Dec-2016

 -----------------------------------
 #p cam-b3lyp/Def2SVP td=(nstates=5)
 -----------------------------------

 -----------------------------------------------------
 step_51_chromophore_2 TDDFT with cam-b3lyp functional
 -----------------------------------------------------
 Symbolic Z-matrix:
 Charge =  0 Multiplicity = 1

                         Standard orientation:
 ---------------------------------------------------------------------
 Center     Atomic      Atomic             Coordinates (Angstroms)
 Number     Number       Type             X           Y           Z
 ---------------------------------------------------------------------
      1         12           0        4.513170    1.333832   -0.575088
      2          6           0        5.319358   -2.137273   -0.451206
      3          6           0        2.109440    0.653495   -2.841261
      4          6           0        3.229364    4.472013   -0.118222
      5          6           0        6.437449    1.695341    2.311907
      6          7           0        3.684008   -0.657402   -1.331583
      7          6           0        4.166169   -1.946399   -1.217433
      8          6           0        3.399346   -2.897268   -2.176726
      9          6           0        2.523463   -1.911769   -3.105268
     10          6           0        2.755436   -0.566279   -2.348293
     11          6           0        3.089713   -1.913469   -4.593848
     12          6           0        2.633303   -3.892485   -1.280191
     13          6           0        1.702538   -3.346166   -0.287736
     14          6           0        0.593688   -4.236576    0.299617
     15          8           0        0.174086   -5.284750   -0.228162
     16          8           0       -0.015618   -3.690533    1.435944
     17          7           0        3.062483    2.534347   -1.507355
     18          6           0        2.256695    2.052462   -2.465510
     19          6           0        1.631012    3.203355   -3.189545
     20          6           0        1.895303    4.374422   -2.400978
     21          6           0        2.841629    3.836608   -1.341416
     22          6           0        0.793304    3.059660   -4.432717
     23          6           0        1.303053    5.719342   -2.587551
     24          8           0        0.463898    6.005951   -3.446543
     25          6           0        1.738892    6.817999   -1.671137
     26          7           0        4.581412    2.788146    1.092343
     27          6           0        4.018129    4.003361    0.974281
     28          6           0        4.353386    4.852796    2.283283
     29          6           0        5.459093    3.958478    2.944526
     30          6           0        5.525906    2.706849    2.026573
     31          6           0        4.841571    6.248740    1.889956
     32          6           0        5.272553    3.500328    4.449342
     33          6           0        6.448775    3.726460    5.386352
     34          7           0        5.715922    0.135875    0.612435
     35          6           0        6.491011    0.478234    1.713488
     36          6           0        7.352433   -0.607157    2.012935
     37          6           0        6.929052   -1.642031    1.165387
     38          6           0        5.881283   -1.149374    0.354626
     39          6           0        8.403275   -0.691691    3.101996
     40          6           0        7.171314   -3.046850    0.797546
     41          8           0        7.972651   -3.830029    1.206533
     42          6           0        6.111186   -3.389502   -0.277722
     43          6           0        6.741100   -3.909288   -1.577954
     44          8           0        7.272738   -5.011317   -1.658263
     45          8           0        6.825620   -3.017614   -2.609801
     46          6           0        7.644487   -3.402084   -3.737274
     47          6           0       -1.223036   -4.337160    1.975055
     48          6           0       -2.305882   -3.290550    2.139363
     49          6           0       -3.268736   -3.179598    3.073382
     50          6           0       -3.548642   -4.189301    4.190805
     51          6           0       -4.125633   -1.840002    3.024795
     52          6           0       -5.358372   -1.996728    2.120473
     53          6           0       -6.280692   -0.736797    2.257816
     54          6           0       -6.443190    0.153069    1.003591
     55          6           0       -6.785861    1.659699    1.447508
     56          6           0       -7.436042   -0.444939    0.025717
     57          6           0       -9.023251   -0.412626    0.358831
     58          6           0       -9.907255    0.410078   -0.646372
     59          6           0      -10.843559   -0.350795   -1.540613
     60          6           0      -10.185618   -0.278624   -3.049783
     61          6           0      -12.246396    0.394471   -1.700382
     62          6           0      -13.324888   -0.289636   -0.744922
     63          6           0      -13.890057    0.679340    0.300552
     64          6           0      -15.373438    0.333793    0.693078
     65          6           0      -16.265640    0.667083   -0.505669
     66          6           0      -15.985674    0.999842    1.914122
     67          1           0        1.554582    0.446704   -3.759330
     68          1           0        2.859650    5.473554    0.112047
     69          1           0        7.041617    1.766071    3.219405
     70          1           0        4.007468   -3.598606   -2.748525
     71          1           0        1.495239   -2.252362   -3.227963
     72          1           0        2.259485   -2.085985   -5.278255
     73          1           0        3.887153   -2.645722   -4.721593
     74          1           0        3.476386   -0.895856   -4.652024
     75          1           0        3.447308   -4.418717   -0.781141
     76          1           0        2.083933   -4.654553   -1.833599
     77          1           0        1.183535   -2.473787   -0.685232
     78          1           0        2.375169   -3.113573    0.537313
     79          1           0        1.411073    2.592020   -5.199170
     80          1           0        0.343933    3.880856   -4.990885
     81          1           0        0.019202    2.334709   -4.179704
     82          1           0        1.680399    7.818014   -2.100637
     83          1           0        2.764790    6.570934   -1.399828
     84          1           0        1.149664    6.842854   -0.754312
     85          1           0        3.513644    5.014047    2.959498
     86          1           0        6.423854    4.379410    2.658855
     87          1           0        4.025586    6.920773    2.154619
     88          1           0        4.932682    6.227519    0.803524
     89          1           0        5.788639    6.629179    2.272306
     90          1           0        5.063436    2.432252    4.482290
     91          1           0        4.437748    4.019745    4.920343
     92          1           0        6.404416    4.684545    5.904622
     93          1           0        7.447750    3.795182    4.954742
     94          1           0        6.371630    2.920801    6.117382
     95          1           0        8.242567   -0.037406    3.959165
     96          1           0        9.250228   -0.165691    2.661083
     97          1           0        8.706545   -1.714519    3.323944
     98          1           0        5.424139   -4.075312    0.216642
     99          1           0        7.961197   -2.539854   -4.324121
    100          1           0        7.196552   -4.195645   -4.335449
    101          1           0        8.542540   -3.840207   -3.301402
    102          1           0       -0.968097   -4.891546    2.878144
    103          1           0       -1.623713   -5.054000    1.257630
    104          1           0       -2.264000   -2.501206    1.388004
    105          1           0       -3.375132   -3.632412    5.111206
    106          1           0       -2.875824   -5.041477    4.282900
    107          1           0       -4.590260   -4.509221    4.225419
    108          1           0       -3.571990   -1.012770    2.581480
    109          1           0       -4.507191   -1.600722    4.017437
    110          1           0       -5.834283   -2.934178    2.406884
    111          1           0       -4.986095   -2.115561    1.102306
    112          1           0       -5.928874   -0.123091    3.086440
    113          1           0       -7.206428   -1.266627    2.486459
    114          1           0       -5.508813    0.036136    0.454961
    115          1           0       -7.838262    1.793115    1.696572
    116          1           0       -6.392822    2.350263    0.701053
    117          1           0       -6.420832    1.807733    2.463398
    118          1           0       -7.141936   -1.490706   -0.056109
    119          1           0       -7.183058   -0.019511   -0.944710
    120          1           0       -9.196935   -0.090057    1.386089
    121          1           0       -9.302186   -1.463687    0.437396
    122          1           0       -9.232476    1.025087   -1.243258
    123          1           0      -10.472086    1.010357    0.066665
    124          1           0      -10.929065   -1.407251   -1.281910
    125          1           0       -9.123555   -0.489225   -2.920204
    126          1           0      -10.397150    0.609351   -3.645609
    127          1           0      -10.519615   -1.157137   -3.600185
    128          1           0      -12.690574    0.486678   -2.691909
    129          1           0      -11.921999    1.403170   -1.444654
    130          1           0      -12.786889   -1.048840   -0.176954
    131          1           0      -14.131056   -0.644169   -1.386960
    132          1           0      -13.719775    1.655642   -0.154353
    133          1           0      -13.216720    0.522572    1.142616
    134          1           0      -15.452795   -0.744536    0.832891
    135          1           0      -15.651520    1.241075   -1.198904
    136          1           0      -17.152522    1.258504   -0.278079
    137          1           0      -16.636689   -0.250368   -0.962321
    138          1           0      -16.284646    2.021175    1.676228
    139          1           0      -15.300658    1.047999    2.760496
    140          1           0      -16.900122    0.442253    2.118311
 ---------------------------------------------------------------------

 SCF Done:  E(RCAM-B3LYP) =  -3007.13693122     A.U. after   17 cycles

 Excitation energies and oscillator strengths:

 Excited State   1:      Singlet-A      1.7130 eV  723.79 nm  f=0.3465  <S**2>=0.000
     245 -> 248        0.19321
     246 -> 247        0.68167
     245 <- 248        0.11068
 This state for optimization and/or second-order correction.
 Total Energy, E(TD-HF/TD-DFT) =  -3007.07397984
 Copying the excited state density for this state as the 1-particle RhoCI density.

 Excited State   2:      Singlet-A      2.2448 eV  552.33 nm  f=0.0645  <S**2>=0.000
     245 -> 247        0.61365
     246 -> 248       -0.34076

 Excited State   3:      Singlet-A      3.3891 eV  365.84 nm  f=0.3707  <S**2>=0.000
     242 -> 247       -0.18296
     243 -> 247       -0.30575
     245 -> 247        0.24848
     246 -> 248        0.51157
     246 -> 250        0.13112

 Excited State   4:      Singlet-A      3.4603 eV  358.30 nm  f=0.0437  <S**2>=0.000
     241 -> 247        0.22084
     241 -> 249        0.16785
     241 -> 251       -0.10268
     242 -> 247       -0.22014
     243 -> 247        0.52011
     246 -> 248        0.11734
     246 -> 249        0.10204

 Excited State   5:      Singlet-A      3.4941 eV  354.84 nm  f=0.0752  <S**2>=0.000
     241 -> 247        0.40960
     241 -> 248        0.12533
     241 -> 249        0.28014
     241 -> 250       -0.12749
     241 -> 251       -0.13943
     243 -> 247       -0.25116
     245 -> 247       -0.10587
     246 -> 248       -0.16972
     246 -> 249       -0.13574
     246 -> 250       -0.18656

 The electronic state is 1-A.
 Alpha  occ. eigenvalues --  -46.90724 -19.25695 -19.24619 -19.19878 -19.19507
 Alpha  occ. eigenvalues --  -19.19367 -19.18367 -14.43064 -14.42190 -14.40960
 Alpha  occ. eigenvalues --  -14.39276 -10.39984 -10.39935 -10.35149 -10.34843
 Alpha  occ. eigenvalues --  -10.32603 -10.32093 -10.31844 -10.31821 -10.31783
 Alpha  occ. eigenvalues --  -10.31626 -10.31434 -10.30843 -10.29726 -10.29274
 Alpha  occ. eigenvalues --  -10.29223 -10.28990 -10.28980 -10.28773 -10.28517
 Alpha  occ. eigenvalues --  -10.28444 -10.28022 -10.27903 -10.27837 -10.27747
 Alpha  occ. eigenvalues --  -10.27706 -10.27543 -10.27327 -10.27036 -10.26737
 Alpha  occ. eigenvalues --  -10.26736 -10.26566 -10.26446 -10.26317 -10.26180
 Alpha  occ. eigenvalues --  -10.26039 -10.26003 -10.25935 -10.25863 -10.25767
 Alpha  occ. eigenvalues --  -10.25574 -10.25534 -10.25362 -10.25302 -10.25141
 Alpha  occ. eigenvalues --  -10.25053 -10.24856 -10.24845 -10.24788 -10.24676
 Alpha  occ. eigenvalues --  -10.24616 -10.24586 -10.24407 -10.24329 -10.24155
 Alpha  occ. eigenvalues --  -10.23902  -3.19074  -1.93930  -1.93549  -1.93366
 Alpha  occ. eigenvalues --   -1.17099  -1.14685  -1.11752  -1.09043  -1.07462
 Alpha  occ. eigenvalues --   -1.06479  -1.05380  -1.04839  -1.04123  -1.02802
 Alpha  occ. eigenvalues --   -0.93746  -0.90380  -0.89816  -0.89225  -0.89123
 Alpha  occ. eigenvalues --   -0.88507  -0.88247  -0.87522  -0.87202  -0.87141
 Alpha  occ. eigenvalues --   -0.86813  -0.85677  -0.84467  -0.84078  -0.83329
 Alpha  occ. eigenvalues --   -0.82469  -0.82289  -0.81407  -0.80858  -0.80374
 Alpha  occ. eigenvalues --   -0.79123  -0.78440  -0.78104  -0.77701  -0.76944
 Alpha  occ. eigenvalues --   -0.75669  -0.75421  -0.74959  -0.74846  -0.73694
 Alpha  occ. eigenvalues --   -0.73376  -0.72621  -0.72140  -0.70533  -0.69096
 Alpha  occ. eigenvalues --   -0.69021  -0.68537  -0.68050  -0.66227  -0.65955
 Alpha  occ. eigenvalues --   -0.65589  -0.65439  -0.65098  -0.64889  -0.63778
 Alpha  occ. eigenvalues --   -0.63470  -0.62453  -0.62428  -0.60979  -0.60684
 Alpha  occ. eigenvalues --   -0.60253  -0.60036  -0.59503  -0.59016  -0.58828
 Alpha  occ. eigenvalues --   -0.57918  -0.57600  -0.56753  -0.56458  -0.56088
 Alpha  occ. eigenvalues --   -0.55497  -0.54981  -0.54896  -0.54628  -0.54211
 Alpha  occ. eigenvalues --   -0.53921  -0.53679  -0.53312  -0.52862  -0.52768
 Alpha  occ. eigenvalues --   -0.52491  -0.52332  -0.52189  -0.52070  -0.51952
 Alpha  occ. eigenvalues --   -0.51606  -0.51329  -0.51177  -0.50950  -0.50602
 Alpha  occ. eigenvalues --   -0.50529  -0.50389  -0.50083  -0.49996  -0.49907
 Alpha  occ. eigenvalues --   -0.49735  -0.49643  -0.49465  -0.49340  -0.49150
 Alpha  occ. eigenvalues --   -0.48799  -0.48154  -0.48134  -0.48022  -0.47765
 Alpha  occ. eigenvalues --   -0.47726  -0.47473  -0.47136  -0.46863  -0.46717
 Alpha  occ. eigenvalues --   -0.46529  -0.46416  -0.46232  -0.46042  -0.46001
 Alpha  occ. eigenvalues --   -0.45780  -0.45756  -0.45473  -0.45221  -0.45147
 Alpha  occ. eigenvalues --   -0.45013  -0.44897  -0.44534  -0.44024  -0.43861
 Alpha  occ. eigenvalues --   -0.43778  -0.43596  -0.43385  -0.43173  -0.43117
 Alpha  occ. eigenvalues --   -0.42895  -0.42586  -0.42182  -0.42075  -0.41999
 Alpha  occ. eigenvalues --   -0.41830  -0.41615  -0.41496  -0.41428  -0.41324
 Alpha  occ. eigenvalues --   -0.41179  -0.40792  -0.40465  -0.40171  -0.40130
 Alpha  occ. eigenvalues --   -0.39636  -0.39342  -0.39108  -0.38918  -0.38889
 Alpha  occ. eigenvalues --   -0.38749  -0.38249  -0.38176  -0.37814  -0.37451
 Alpha  occ. eigenvalues --   -0.37256  -0.36871  -0.36772  -0.36581  -0.36451
 Alpha  occ. eigenvalues --   -0.36141  -0.36028  -0.35334  -0.34526  -0.34216
 Alpha  occ. eigenvalues --   -0.34067  -0.33531  -0.33030  -0.31509  -0.31054
 Alpha  occ. eigenvalues --   -0.30836  -0.30564  -0.29989  -0.29392  -0.24510
 Alpha  occ. eigenvalues --   -0.21386
 Alpha virt. eigenvalues --   -0.08766  -0.02654  -0.00362   0.00411   0.02005
 Alpha virt. eigenvalues --    0.04609   0.04790   0.05022   0.06358   0.06655
 Alpha virt. eigenvalues --    0.07459   0.08204   0.08913   0.08969   0.09087

 Mulliken charges:
               1
     1  Mg   0.831006
     2  C   -0.093354
     3  C   -0.055904
     4  C   -0.040401
     5  C   -0.100732
     6  N   -0.276454
     7  C   -0.048238
     8  C    0.013730
     9  C   -0.079764
    10  C    0.025805
    11  C    0.061073
    12  C    0.020368
    13  C    0.044273
    14  C    0.190426
    15  O   -0.249357
    16  O   -0.357312
    17  N   -0.331553
    18  C    0.110783
    19  C   -0.120240
    20  C   -0.050248
    21  C    0.138224
    22  C    0.113014
    23  C   -0.002358
    24  O   -0.207884
    25  C    0.037159
    26  N   -0.247271
    27  C   -0.010256
    28  C   -0.055630
    29  C    0.013816
    30  C    0.002333
    31  C    0.050588
    32  C    0.041327
    33  C   -0.013095
    34  N   -0.336098
    35  C    0.139923
    36  C   -0.183358
    37  C   -0.027996
    38  C    0.154206
    39  C    0.146963
    40  C    0.026425
    41  O   -0.115497
    42  C   -0.007078
    43  C    0.217160
    44  O   -0.218817
    45  O   -0.326542
    46  C    0.180429
    47  C    0.291483
    48  C   -0.116685
    49  C   -0.155230
    50  C    0.084010
    51  C    0.037354
    52  C   -0.006124
    53  C    0.051898
    54  C   -0.097644
    55  C    0.050696
    56  C    0.025064
    57  C   -0.005622
    58  C    0.086993
    59  C   -0.150570
    60  C    0.014853
    61  C    0.035393
    62  C    0.008239
    63  C    0.039968
    64  C   -0.142616
    65  C    0.026342
    66  C    0.064981
    67  H   -0.020623
    68  H   -0.034579
    69  H   -0.032677
    70  H    0.013331
    71  H    0.021091
    72  H    0.025154
    73  H    0.026461
    74  H    0.018945
    75  H   -0.000533
    76  H    0.020998
    77  H    0.048999
    78  H    0.040071
    79  H    0.012997
    80  H    0.043361
    81  H    0.028922
    82  H    0.030112
    83  H    0.024834
    84  H    0.045773
    85  H    0.020074
    86  H    0.002733
    87  H    0.014747
    88  H    0.012600
    89  H    0.023932
    90  H    0.025812
    91  H    0.008663
    92  H    0.011077
    93  H    0.014425
    94  H    0.017835
    95  H    0.010250
    96  H    0.012775
    97  H    0.046317
    98  H    0.062868
    99  H    0.039479
   100  H    0.035253
   101  H    0.036580
   102  H    0.025104
   103  H    0.041211
   104  H   -0.006095
   105  H    0.015837
   106  H    0.010987
   107  H    0.024939
   108  H    0.011587
   109  H   -0.000922
   110  H   -0.006789
   111  H   -0.004684
   112  H   -0.002960
   113  H   -0.004184
   114  H   -0.011805
   115  H    0.003084
   116  H    0.026901
   117  H   -0.005154
   118  H   -0.013269
   119  H   -0.003227
   120  H   -0.001299
   121  H   -0.010434
   122  H    0.009949
   123  H   -0.004563
   124  H    0.005508
   125  H   -0.000095
   126  H    0.024738
   127  H   -0.002129
   128  H    0.001491
   129  H   -0.005009
   130  H    0.002895
   131  H    0.003410
   132  H    0.001480
   133  H   -0.012431
   134  H   -0.004789
   135  H    0.007462
   136  H    0.003098
   137  H    0.010122
   138  H    0.002569
   139  H    0.003217
   140  H    0.009808
 Sum of Mulliken charges =  -0.00000

 Dipole moment (field-independent basis, Debye):
    X=             -0.0751    Y=              4.5299    Z=              1.3377  Tot=              4.7239
 Quadrupole moment (field-independent basis, Debye-Ang):
   XX=           -408.1368   YY=           -442.8967   ZZ=           -383.1599
   XY=             57.6997   XZ=            -15.7672   YZ=             22.5001

 Normal termination of Gaussian 16 at Thu May  5 01:48:26 2022.
