 Gaussian 16, Revision A.03,
 Gaussian 16:  ES64L-G16RevA.03 25-Dec-2016

 ---------------------------------
 #p PBE1PBE/Def2SVP td=(nstates=5)
 ---------------------------------

 ---------------------------------------------------
 step_51_chromophore_2 TDDFT with PBE1PBE functional
 ---------------------------------------------------
 Symbolic Z-matrix:
 Charge =  0 Multiplicity = 1

                         Standard orientation:
 ---------------------------------------------------------------------
 Center     Atomic      Atomic             Coordinates (Angstroms)
 Number     Number       Type             X           Y           Z
 ---------------------------------------------------------------------
      1         12           0        4.513170    1.333832   -0.575088
      2          6           0        5.319358   -2.137273   -0.451206
      3          6           0        2.109440    0.653495   -2.841261
      4          6           0        3.229364    4.472013   -0.118222
      5          6           0        6.437449    1.695341    2.311907
      6          7           0        3.684008   -0.657402   -1.331583
      7          6           0        4.166169   -1.946399   -1.217433
      8          6           0        3.399346   -2.897268   -2.176726
      9          6           0        2.523463   -1.911769   -3.105268
     10          6           0        2.755436   -0.566279   -2.348293
     11          6           0        3.089713   -1.913469   -4.593848
     12          6           0        2.633303   -3.892485   -1.280191
     13          6           0        1.702538   -3.346166   -0.287736
     14          6           0        0.593688   -4.236576    0.299617
     15          8           0        0.174086   -5.284750   -0.228162
     16          8           0       -0.015618   -3.690533    1.435944
     17          7           0        3.062483    2.534347   -1.507355
     18          6           0        2.256695    2.052462   -2.465510
     19          6           0        1.631012    3.203355   -3.189545
     20          6           0        1.895303    4.374422   -2.400978
     21          6           0        2.841629    3.836608   -1.341416
     22          6           0        0.793304    3.059660   -4.432717
     23          6           0        1.303053    5.719342   -2.587551
     24          8           0        0.463898    6.005951   -3.446543
     25          6           0        1.738892    6.817999   -1.671137
     26          7           0        4.581412    2.788146    1.092343
     27          6           0        4.018129    4.003361    0.974281
     28          6           0        4.353386    4.852796    2.283283
     29          6           0        5.459093    3.958478    2.944526
     30          6           0        5.525906    2.706849    2.026573
     31          6           0        4.841571    6.248740    1.889956
     32          6           0        5.272553    3.500328    4.449342
     33          6           0        6.448775    3.726460    5.386352
     34          7           0        5.715922    0.135875    0.612435
     35          6           0        6.491011    0.478234    1.713488
     36          6           0        7.352433   -0.607157    2.012935
     37          6           0        6.929052   -1.642031    1.165387
     38          6           0        5.881283   -1.149374    0.354626
     39          6           0        8.403275   -0.691691    3.101996
     40          6           0        7.171314   -3.046850    0.797546
     41          8           0        7.972651   -3.830029    1.206533
     42          6           0        6.111186   -3.389502   -0.277722
     43          6           0        6.741100   -3.909288   -1.577954
     44          8           0        7.272738   -5.011317   -1.658263
     45          8           0        6.825620   -3.017614   -2.609801
     46          6           0        7.644487   -3.402084   -3.737274
     47          6           0       -1.223036   -4.337160    1.975055
     48          6           0       -2.305882   -3.290550    2.139363
     49          6           0       -3.268736   -3.179598    3.073382
     50          6           0       -3.548642   -4.189301    4.190805
     51          6           0       -4.125633   -1.840002    3.024795
     52          6           0       -5.358372   -1.996728    2.120473
     53          6           0       -6.280692   -0.736797    2.257816
     54          6           0       -6.443190    0.153069    1.003591
     55          6           0       -6.785861    1.659699    1.447508
     56          6           0       -7.436042   -0.444939    0.025717
     57          6           0       -9.023251   -0.412626    0.358831
     58          6           0       -9.907255    0.410078   -0.646372
     59          6           0      -10.843559   -0.350795   -1.540613
     60          6           0      -10.185618   -0.278624   -3.049783
     61          6           0      -12.246396    0.394471   -1.700382
     62          6           0      -13.324888   -0.289636   -0.744922
     63          6           0      -13.890057    0.679340    0.300552
     64          6           0      -15.373438    0.333793    0.693078
     65          6           0      -16.265640    0.667083   -0.505669
     66          6           0      -15.985674    0.999842    1.914122
     67          1           0        1.554582    0.446704   -3.759330
     68          1           0        2.859650    5.473554    0.112047
     69          1           0        7.041617    1.766071    3.219405
     70          1           0        4.007468   -3.598606   -2.748525
     71          1           0        1.495239   -2.252362   -3.227963
     72          1           0        2.259485   -2.085985   -5.278255
     73          1           0        3.887153   -2.645722   -4.721593
     74          1           0        3.476386   -0.895856   -4.652024
     75          1           0        3.447308   -4.418717   -0.781141
     76          1           0        2.083933   -4.654553   -1.833599
     77          1           0        1.183535   -2.473787   -0.685232
     78          1           0        2.375169   -3.113573    0.537313
     79          1           0        1.411073    2.592020   -5.199170
     80          1           0        0.343933    3.880856   -4.990885
     81          1           0        0.019202    2.334709   -4.179704
     82          1           0        1.680399    7.818014   -2.100637
     83          1           0        2.764790    6.570934   -1.399828
     84          1           0        1.149664    6.842854   -0.754312
     85          1           0        3.513644    5.014047    2.959498
     86          1           0        6.423854    4.379410    2.658855
     87          1           0        4.025586    6.920773    2.154619
     88          1           0        4.932682    6.227519    0.803524
     89          1           0        5.788639    6.629179    2.272306
     90          1           0        5.063436    2.432252    4.482290
     91          1           0        4.437748    4.019745    4.920343
     92          1           0        6.404416    4.684545    5.904622
     93          1           0        7.447750    3.795182    4.954742
     94          1           0        6.371630    2.920801    6.117382
     95          1           0        8.242567   -0.037406    3.959165
     96          1           0        9.250228   -0.165691    2.661083
     97          1           0        8.706545   -1.714519    3.323944
     98          1           0        5.424139   -4.075312    0.216642
     99          1           0        7.961197   -2.539854   -4.324121
    100          1           0        7.196552   -4.195645   -4.335449
    101          1           0        8.542540   -3.840207   -3.301402
    102          1           0       -0.968097   -4.891546    2.878144
    103          1           0       -1.623713   -5.054000    1.257630
    104          1           0       -2.264000   -2.501206    1.388004
    105          1           0       -3.375132   -3.632412    5.111206
    106          1           0       -2.875824   -5.041477    4.282900
    107          1           0       -4.590260   -4.509221    4.225419
    108          1           0       -3.571990   -1.012770    2.581480
    109          1           0       -4.507191   -1.600722    4.017437
    110          1           0       -5.834283   -2.934178    2.406884
    111          1           0       -4.986095   -2.115561    1.102306
    112          1           0       -5.928874   -0.123091    3.086440
    113          1           0       -7.206428   -1.266627    2.486459
    114          1           0       -5.508813    0.036136    0.454961
    115          1           0       -7.838262    1.793115    1.696572
    116          1           0       -6.392822    2.350263    0.701053
    117          1           0       -6.420832    1.807733    2.463398
    118          1           0       -7.141936   -1.490706   -0.056109
    119          1           0       -7.183058   -0.019511   -0.944710
    120          1           0       -9.196935   -0.090057    1.386089
    121          1           0       -9.302186   -1.463687    0.437396
    122          1           0       -9.232476    1.025087   -1.243258
    123          1           0      -10.472086    1.010357    0.066665
    124          1           0      -10.929065   -1.407251   -1.281910
    125          1           0       -9.123555   -0.489225   -2.920204
    126          1           0      -10.397150    0.609351   -3.645609
    127          1           0      -10.519615   -1.157137   -3.600185
    128          1           0      -12.690574    0.486678   -2.691909
    129          1           0      -11.921999    1.403170   -1.444654
    130          1           0      -12.786889   -1.048840   -0.176954
    131          1           0      -14.131056   -0.644169   -1.386960
    132          1           0      -13.719775    1.655642   -0.154353
    133          1           0      -13.216720    0.522572    1.142616
    134          1           0      -15.452795   -0.744536    0.832891
    135          1           0      -15.651520    1.241075   -1.198904
    136          1           0      -17.152522    1.258504   -0.278079
    137          1           0      -16.636689   -0.250368   -0.962321
    138          1           0      -16.284646    2.021175    1.676228
    139          1           0      -15.300658    1.047999    2.760496
    140          1           0      -16.900122    0.442253    2.118311
 ---------------------------------------------------------------------

 SCF Done:  E(RPBE1PBE) =  -3005.32657193     A.U. after   15 cycles

 Excitation energies and oscillator strengths:

 Excited State   1:      Singlet-A      1.8687 eV  663.49 nm  f=0.3377  <S**2>=0.000
     245 -> 248        0.18515
     246 -> 247        0.68858
     246 <- 247       -0.10009
 This state for optimization and/or second-order correction.
 Total Energy, E(TD-HF/TD-DFT) =  -3005.25789959
 Copying the excited state density for this state as the 1-particle RhoCI density.

 Excited State   2:      Singlet-A      2.2494 eV  551.18 nm  f=0.0710  <S**2>=0.000
     245 -> 247        0.63193
     246 -> 248       -0.30479

 Excited State   3:      Singlet-A      2.9772 eV  416.45 nm  f=0.0006  <S**2>=0.000
     243 -> 247        0.64731
     243 -> 248        0.10556
     243 -> 249       -0.20019

 Excited State   4:      Singlet-A      3.0288 eV  409.35 nm  f=0.0024  <S**2>=0.000
     241 -> 247        0.21295
     242 -> 247        0.62264
     243 -> 247        0.11144
     246 -> 248       -0.14688

 Excited State   5:      Singlet-A      3.1835 eV  389.46 nm  f=0.0042  <S**2>=0.000
     240 -> 247       -0.12861
     241 -> 247        0.62195
     242 -> 247       -0.25739

 The electronic state is 1-A.
 Alpha  occ. eigenvalues --  -46.94096 -19.26323 -19.25336 -19.20198 -19.19758
 Alpha  occ. eigenvalues --  -19.19613 -19.18545 -14.42577 -14.41687 -14.40504
 Alpha  occ. eigenvalues --  -14.38964 -10.37050 -10.36969 -10.32320 -10.31918
 Alpha  occ. eigenvalues --  -10.30334 -10.29544 -10.29463 -10.29446 -10.29315
 Alpha  occ. eigenvalues --  -10.29185 -10.29071 -10.28638 -10.27324 -10.27056
 Alpha  occ. eigenvalues --  -10.27033 -10.26843 -10.26617 -10.26481 -10.26247
 Alpha  occ. eigenvalues --  -10.26197 -10.25781 -10.25701 -10.25623 -10.25525
 Alpha  occ. eigenvalues --  -10.25393 -10.25021 -10.24996 -10.24689 -10.24372
 Alpha  occ. eigenvalues --  -10.24234 -10.24062 -10.24057 -10.23770 -10.23699
 Alpha  occ. eigenvalues --  -10.23575 -10.23556 -10.23499 -10.23478 -10.23209
 Alpha  occ. eigenvalues --  -10.23068 -10.22997 -10.22949 -10.22878 -10.22844
 Alpha  occ. eigenvalues --  -10.22606 -10.22450 -10.22350 -10.22260 -10.22257
 Alpha  occ. eigenvalues --  -10.22158 -10.22125 -10.21948 -10.21769 -10.21507
 Alpha  occ. eigenvalues --  -10.21287  -3.16032  -1.88824  -1.88424  -1.88244
 Alpha  occ. eigenvalues --   -1.11876  -1.09496  -1.06556  -1.03726  -1.02295
 Alpha  occ. eigenvalues --   -1.01355  -1.00019  -0.99537  -0.98777  -0.97407
 Alpha  occ. eigenvalues --   -0.88126  -0.84600  -0.83910  -0.83552  -0.83192
 Alpha  occ. eigenvalues --   -0.82785  -0.82348  -0.81825  -0.81547  -0.81253
 Alpha  occ. eigenvalues --   -0.81066  -0.79935  -0.78745  -0.78291  -0.77545
 Alpha  occ. eigenvalues --   -0.76708  -0.76433  -0.75666  -0.75148  -0.74663
 Alpha  occ. eigenvalues --   -0.73249  -0.72747  -0.72432  -0.71950  -0.71267
 Alpha  occ. eigenvalues --   -0.69991  -0.69618  -0.69054  -0.68966  -0.67862
 Alpha  occ. eigenvalues --   -0.67810  -0.66938  -0.66590  -0.64856  -0.63344
 Alpha  occ. eigenvalues --   -0.63302  -0.63013  -0.62485  -0.60563  -0.60396
 Alpha  occ. eigenvalues --   -0.60073  -0.59671  -0.59541  -0.59368  -0.58338
 Alpha  occ. eigenvalues --   -0.57575  -0.56972  -0.56627  -0.55241  -0.55211
 Alpha  occ. eigenvalues --   -0.54767  -0.54533  -0.54023  -0.53600  -0.53297
 Alpha  occ. eigenvalues --   -0.52367  -0.52123  -0.51248  -0.51014  -0.50470
 Alpha  occ. eigenvalues --   -0.50116  -0.49456  -0.49286  -0.48983  -0.48898
 Alpha  occ. eigenvalues --   -0.48486  -0.48280  -0.47941  -0.47502  -0.47216
 Alpha  occ. eigenvalues --   -0.47094  -0.46869  -0.46670  -0.46608  -0.46354
 Alpha  occ. eigenvalues --   -0.46062  -0.45949  -0.45673  -0.45451  -0.45227
 Alpha  occ. eigenvalues --   -0.45069  -0.44947  -0.44608  -0.44588  -0.44450
 Alpha  occ. eigenvalues --   -0.44278  -0.44249  -0.44085  -0.43971  -0.43766
 Alpha  occ. eigenvalues --   -0.43435  -0.42809  -0.42685  -0.42609  -0.42452
 Alpha  occ. eigenvalues --   -0.42360  -0.42014  -0.41830  -0.41591  -0.41401
 Alpha  occ. eigenvalues --   -0.41201  -0.41134  -0.40957  -0.40825  -0.40720
 Alpha  occ. eigenvalues --   -0.40489  -0.40400  -0.40189  -0.39936  -0.39844
 Alpha  occ. eigenvalues --   -0.39721  -0.39477  -0.39318  -0.38769  -0.38644
 Alpha  occ. eigenvalues --   -0.38560  -0.38314  -0.38062  -0.38002  -0.37866
 Alpha  occ. eigenvalues --   -0.37677  -0.37460  -0.37047  -0.36911  -0.36777
 Alpha  occ. eigenvalues --   -0.36551  -0.36414  -0.36314  -0.36215  -0.36155
 Alpha  occ. eigenvalues --   -0.36030  -0.35581  -0.35271  -0.34996  -0.34882
 Alpha  occ. eigenvalues --   -0.34565  -0.34069  -0.33926  -0.33890  -0.33834
 Alpha  occ. eigenvalues --   -0.33476  -0.33195  -0.33066  -0.32761  -0.32344
 Alpha  occ. eigenvalues --   -0.32187  -0.31804  -0.31639  -0.31526  -0.31427
 Alpha  occ. eigenvalues --   -0.31089  -0.30857  -0.30299  -0.29585  -0.29512
 Alpha  occ. eigenvalues --   -0.28872  -0.28803  -0.28057  -0.27135  -0.26158
 Alpha  occ. eigenvalues --   -0.26111  -0.25563  -0.25478  -0.24671  -0.21433
 Alpha  occ. eigenvalues --   -0.19070
 Alpha virt. eigenvalues --   -0.11316  -0.06072  -0.04468  -0.02442  -0.02375
 Alpha virt. eigenvalues --   -0.00024   0.00193   0.00543   0.01842   0.02916
 Alpha virt. eigenvalues --    0.03732   0.04781   0.04934   0.05721   0.05767

 Mulliken charges:
               1
     1  Mg   0.967016
     2  C   -0.090389
     3  C   -0.046730
     4  C   -0.050976
     5  C   -0.087046
     6  N   -0.372050
     7  C    0.031906
     8  C   -0.052726
     9  C   -0.146372
    10  C    0.053242
    11  C    0.004309
    12  C   -0.032005
    13  C   -0.037305
    14  C    0.260297
    15  O   -0.281548
    16  O   -0.386577
    17  N   -0.446554
    18  C    0.127508
    19  C   -0.141960
    20  C   -0.093802
    21  C    0.175676
    22  C    0.054722
    23  C    0.049522
    24  O   -0.245894
    25  C   -0.040194
    26  N   -0.351588
    27  C    0.029135
    28  C   -0.132321
    29  C   -0.057378
    30  C    0.040987
    31  C   -0.006358
    32  C   -0.024191
    33  C   -0.082928
    34  N   -0.470506
    35  C    0.156099
    36  C   -0.196322
    37  C   -0.084572
    38  C    0.200551
    39  C    0.092286
    40  C    0.135140
    41  O   -0.163170
    42  C   -0.126189
    43  C    0.302407
    44  O   -0.253035
    45  O   -0.359206
    46  C    0.125934
    47  C    0.250946
    48  C   -0.124940
    49  C   -0.203712
    50  C    0.022245
    51  C   -0.029118
    52  C   -0.063527
    53  C   -0.003243
    54  C   -0.188297
    55  C   -0.009130
    56  C   -0.026046
    57  C   -0.061845
    58  C    0.030480
    59  C   -0.236743
    60  C   -0.049210
    61  C   -0.011429
    62  C   -0.054552
    63  C   -0.020782
    64  C   -0.233208
    65  C   -0.034030
    66  C   -0.000049
    67  H    0.010362
    68  H   -0.000496
    69  H    0.002605
    70  H    0.051309
    71  H    0.055469
    72  H    0.051881
    73  H    0.053174
    74  H    0.047939
    75  H    0.038406
    76  H    0.052286
    77  H    0.082434
    78  H    0.073066
    79  H    0.041047
    80  H    0.069401
    81  H    0.056318
    82  H    0.057954
    83  H    0.052119
    84  H    0.072624
    85  H    0.055413
    86  H    0.041610
    87  H    0.042358
    88  H    0.041956
    89  H    0.050818
    90  H    0.058300
    91  H    0.041575
    92  H    0.039331
    93  H    0.040027
    94  H    0.045596
    95  H    0.037392
    96  H    0.042940
    97  H    0.073119
    98  H    0.099805
    99  H    0.061490
   100  H    0.057021
   101  H    0.058393
   102  H    0.051311
   103  H    0.068706
   104  H    0.023780
   105  H    0.044179
   106  H    0.037544
   107  H    0.051721
   108  H    0.044578
   109  H    0.031973
   110  H    0.026841
   111  H    0.027428
   112  H    0.027602
   113  H    0.030240
   114  H    0.026902
   115  H    0.030393
   116  H    0.053918
   117  H    0.022235
   118  H    0.021580
   119  H    0.028237
   120  H    0.028948
   121  H    0.021343
   122  H    0.042237
   123  H    0.028869
   124  H    0.040215
   125  H    0.030394
   126  H    0.051102
   127  H    0.027435
   128  H    0.032567
   129  H    0.026273
   130  H    0.036234
   131  H    0.036340
   132  H    0.034066
   133  H    0.021458
   134  H    0.033321
   135  H    0.036050
   136  H    0.030621
   137  H    0.037196
   138  H    0.030805
   139  H    0.031271
   140  H    0.038389
 Sum of Mulliken charges =  -0.00000

 Dipole moment (field-independent basis, Debye):
    X=              0.0291    Y=              4.4798    Z=              1.4510  Tot=              4.7090
 Quadrupole moment (field-independent basis, Debye-Ang):
   XX=           -404.1609   YY=           -439.9707   ZZ=           -379.0520
   XY=             58.0728   XZ=            -14.5155   YZ=             23.5459

 Normal termination of Gaussian 16 at Thu May  5 02:09:02 2022.
