 Gaussian 16, Revision A.03,
 Gaussian 16:  ES64L-G16RevA.03 25-Dec-2016

 --------------------------------
 #p wB97XD/Def2SVP td=(nstates=5)
 --------------------------------

 --------------------------------------------------
 step_51_chromophore_2 TDDFT with wB97XD functional
 --------------------------------------------------
 Symbolic Z-matrix:
 Charge =  0 Multiplicity = 1

                         Standard orientation:
 ---------------------------------------------------------------------
 Center     Atomic      Atomic             Coordinates (Angstroms)
 Number     Number       Type             X           Y           Z
 ---------------------------------------------------------------------
      1         12           0        4.513170    1.333832   -0.575088
      2          6           0        5.319358   -2.137273   -0.451206
      3          6           0        2.109440    0.653495   -2.841261
      4          6           0        3.229364    4.472013   -0.118222
      5          6           0        6.437449    1.695341    2.311907
      6          7           0        3.684008   -0.657402   -1.331583
      7          6           0        4.166169   -1.946399   -1.217433
      8          6           0        3.399346   -2.897268   -2.176726
      9          6           0        2.523463   -1.911769   -3.105268
     10          6           0        2.755436   -0.566279   -2.348293
     11          6           0        3.089713   -1.913469   -4.593848
     12          6           0        2.633303   -3.892485   -1.280191
     13          6           0        1.702538   -3.346166   -0.287736
     14          6           0        0.593688   -4.236576    0.299617
     15          8           0        0.174086   -5.284750   -0.228162
     16          8           0       -0.015618   -3.690533    1.435944
     17          7           0        3.062483    2.534347   -1.507355
     18          6           0        2.256695    2.052462   -2.465510
     19          6           0        1.631012    3.203355   -3.189545
     20          6           0        1.895303    4.374422   -2.400978
     21          6           0        2.841629    3.836608   -1.341416
     22          6           0        0.793304    3.059660   -4.432717
     23          6           0        1.303053    5.719342   -2.587551
     24          8           0        0.463898    6.005951   -3.446543
     25          6           0        1.738892    6.817999   -1.671137
     26          7           0        4.581412    2.788146    1.092343
     27          6           0        4.018129    4.003361    0.974281
     28          6           0        4.353386    4.852796    2.283283
     29          6           0        5.459093    3.958478    2.944526
     30          6           0        5.525906    2.706849    2.026573
     31          6           0        4.841571    6.248740    1.889956
     32          6           0        5.272553    3.500328    4.449342
     33          6           0        6.448775    3.726460    5.386352
     34          7           0        5.715922    0.135875    0.612435
     35          6           0        6.491011    0.478234    1.713488
     36          6           0        7.352433   -0.607157    2.012935
     37          6           0        6.929052   -1.642031    1.165387
     38          6           0        5.881283   -1.149374    0.354626
     39          6           0        8.403275   -0.691691    3.101996
     40          6           0        7.171314   -3.046850    0.797546
     41          8           0        7.972651   -3.830029    1.206533
     42          6           0        6.111186   -3.389502   -0.277722
     43          6           0        6.741100   -3.909288   -1.577954
     44          8           0        7.272738   -5.011317   -1.658263
     45          8           0        6.825620   -3.017614   -2.609801
     46          6           0        7.644487   -3.402084   -3.737274
     47          6           0       -1.223036   -4.337160    1.975055
     48          6           0       -2.305882   -3.290550    2.139363
     49          6           0       -3.268736   -3.179598    3.073382
     50          6           0       -3.548642   -4.189301    4.190805
     51          6           0       -4.125633   -1.840002    3.024795
     52          6           0       -5.358372   -1.996728    2.120473
     53          6           0       -6.280692   -0.736797    2.257816
     54          6           0       -6.443190    0.153069    1.003591
     55          6           0       -6.785861    1.659699    1.447508
     56          6           0       -7.436042   -0.444939    0.025717
     57          6           0       -9.023251   -0.412626    0.358831
     58          6           0       -9.907255    0.410078   -0.646372
     59          6           0      -10.843559   -0.350795   -1.540613
     60          6           0      -10.185618   -0.278624   -3.049783
     61          6           0      -12.246396    0.394471   -1.700382
     62          6           0      -13.324888   -0.289636   -0.744922
     63          6           0      -13.890057    0.679340    0.300552
     64          6           0      -15.373438    0.333793    0.693078
     65          6           0      -16.265640    0.667083   -0.505669
     66          6           0      -15.985674    0.999842    1.914122
     67          1           0        1.554582    0.446704   -3.759330
     68          1           0        2.859650    5.473554    0.112047
     69          1           0        7.041617    1.766071    3.219405
     70          1           0        4.007468   -3.598606   -2.748525
     71          1           0        1.495239   -2.252362   -3.227963
     72          1           0        2.259485   -2.085985   -5.278255
     73          1           0        3.887153   -2.645722   -4.721593
     74          1           0        3.476386   -0.895856   -4.652024
     75          1           0        3.447308   -4.418717   -0.781141
     76          1           0        2.083933   -4.654553   -1.833599
     77          1           0        1.183535   -2.473787   -0.685232
     78          1           0        2.375169   -3.113573    0.537313
     79          1           0        1.411073    2.592020   -5.199170
     80          1           0        0.343933    3.880856   -4.990885
     81          1           0        0.019202    2.334709   -4.179704
     82          1           0        1.680399    7.818014   -2.100637
     83          1           0        2.764790    6.570934   -1.399828
     84          1           0        1.149664    6.842854   -0.754312
     85          1           0        3.513644    5.014047    2.959498
     86          1           0        6.423854    4.379410    2.658855
     87          1           0        4.025586    6.920773    2.154619
     88          1           0        4.932682    6.227519    0.803524
     89          1           0        5.788639    6.629179    2.272306
     90          1           0        5.063436    2.432252    4.482290
     91          1           0        4.437748    4.019745    4.920343
     92          1           0        6.404416    4.684545    5.904622
     93          1           0        7.447750    3.795182    4.954742
     94          1           0        6.371630    2.920801    6.117382
     95          1           0        8.242567   -0.037406    3.959165
     96          1           0        9.250228   -0.165691    2.661083
     97          1           0        8.706545   -1.714519    3.323944
     98          1           0        5.424139   -4.075312    0.216642
     99          1           0        7.961197   -2.539854   -4.324121
    100          1           0        7.196552   -4.195645   -4.335449
    101          1           0        8.542540   -3.840207   -3.301402
    102          1           0       -0.968097   -4.891546    2.878144
    103          1           0       -1.623713   -5.054000    1.257630
    104          1           0       -2.264000   -2.501206    1.388004
    105          1           0       -3.375132   -3.632412    5.111206
    106          1           0       -2.875824   -5.041477    4.282900
    107          1           0       -4.590260   -4.509221    4.225419
    108          1           0       -3.571990   -1.012770    2.581480
    109          1           0       -4.507191   -1.600722    4.017437
    110          1           0       -5.834283   -2.934178    2.406884
    111          1           0       -4.986095   -2.115561    1.102306
    112          1           0       -5.928874   -0.123091    3.086440
    113          1           0       -7.206428   -1.266627    2.486459
    114          1           0       -5.508813    0.036136    0.454961
    115          1           0       -7.838262    1.793115    1.696572
    116          1           0       -6.392822    2.350263    0.701053
    117          1           0       -6.420832    1.807733    2.463398
    118          1           0       -7.141936   -1.490706   -0.056109
    119          1           0       -7.183058   -0.019511   -0.944710
    120          1           0       -9.196935   -0.090057    1.386089
    121          1           0       -9.302186   -1.463687    0.437396
    122          1           0       -9.232476    1.025087   -1.243258
    123          1           0      -10.472086    1.010357    0.066665
    124          1           0      -10.929065   -1.407251   -1.281910
    125          1           0       -9.123555   -0.489225   -2.920204
    126          1           0      -10.397150    0.609351   -3.645609
    127          1           0      -10.519615   -1.157137   -3.600185
    128          1           0      -12.690574    0.486678   -2.691909
    129          1           0      -11.921999    1.403170   -1.444654
    130          1           0      -12.786889   -1.048840   -0.176954
    131          1           0      -14.131056   -0.644169   -1.386960
    132          1           0      -13.719775    1.655642   -0.154353
    133          1           0      -13.216720    0.522572    1.142616
    134          1           0      -15.452795   -0.744536    0.832891
    135          1           0      -15.651520    1.241075   -1.198904
    136          1           0      -17.152522    1.258504   -0.278079
    137          1           0      -16.636689   -0.250368   -0.962321
    138          1           0      -16.284646    2.021175    1.676228
    139          1           0      -15.300658    1.047999    2.760496
    140          1           0      -16.900122    0.442253    2.118311
 ---------------------------------------------------------------------

 SCF Done:  E(RwB97XD) =  -3007.83520808     A.U. after   20 cycles

 Excitation energies and oscillator strengths:

 Excited State   1:      Singlet-A      1.6556 eV  748.88 nm  f=0.3448  <S**2>=0.000
     245 -> 248        0.19902
     246 -> 247        0.67964
     245 <- 248        0.12045
 This state for optimization and/or second-order correction.
 Total Energy, E(TD-HF/TD-DFT) =  -3007.77436620
 Copying the excited state density for this state as the 1-particle RhoCI density.

 Excited State   2:      Singlet-A      2.1903 eV  566.06 nm  f=0.0633  <S**2>=0.000
     245 -> 247        0.61242
     246 -> 248       -0.34208

 Excited State   3:      Singlet-A      3.4035 eV  364.29 nm  f=0.3572  <S**2>=0.000
     242 -> 247        0.16877
     243 -> 247       -0.36601
     245 -> 247        0.23837
     246 -> 248        0.49770

 Excited State   4:      Singlet-A      3.4760 eV  356.69 nm  f=0.0331  <S**2>=0.000
     241 -> 247        0.12273
     241 -> 249       -0.16276
     241 -> 251        0.10368
     242 -> 247        0.37409
     242 -> 249       -0.26562
     242 -> 251        0.11205
     243 -> 247        0.40036
     246 -> 248        0.10176

 Excited State   5:      Singlet-A      3.5174 eV  352.49 nm  f=0.2238  <S**2>=0.000
     241 -> 247       -0.33836
     241 -> 249        0.19702
     242 -> 247       -0.11090
     242 -> 249        0.16708
     242 -> 251       -0.10144
     243 -> 247        0.37543
     245 -> 247        0.17904
     246 -> 248        0.28465

 The electronic state is 1-A.
 Alpha  occ. eigenvalues --  -46.97069 -19.30912 -19.29870 -19.24828 -19.24469
 Alpha  occ. eigenvalues --  -19.24390 -19.23425 -14.47666 -14.46754 -14.45539
 Alpha  occ. eigenvalues --  -14.43854 -10.43809 -10.43804 -10.39143 -10.38820
 Alpha  occ. eigenvalues --  -10.36690 -10.35928 -10.35877 -10.35827 -10.35670
 Alpha  occ. eigenvalues --  -10.35657 -10.35532 -10.34818 -10.33928 -10.33302
 Alpha  occ. eigenvalues --  -10.33253 -10.33081 -10.33033 -10.32742 -10.32641
 Alpha  occ. eigenvalues --  -10.32480 -10.32126 -10.31999 -10.31975 -10.31793
 Alpha  occ. eigenvalues --  -10.31789 -10.31430 -10.31347 -10.30964 -10.30734
 Alpha  occ. eigenvalues --  -10.30625 -10.30441 -10.30403 -10.30140 -10.30130
 Alpha  occ. eigenvalues --  -10.30040 -10.29875 -10.29874 -10.29836 -10.29575
 Alpha  occ. eigenvalues --  -10.29453 -10.29453 -10.29291 -10.29251 -10.29184
 Alpha  occ. eigenvalues --  -10.28972 -10.28793 -10.28717 -10.28693 -10.28615
 Alpha  occ. eigenvalues --  -10.28541 -10.28495 -10.28313 -10.28189 -10.27952
 Alpha  occ. eigenvalues --  -10.27710  -3.22898  -1.96433  -1.96032  -1.95851
 Alpha  occ. eigenvalues --   -1.19280  -1.16859  -1.13981  -1.11280  -1.09672
 Alpha  occ. eigenvalues --   -1.08680  -1.07409  -1.06876  -1.06130  -1.04812
 Alpha  occ. eigenvalues --   -0.95722  -0.92229  -0.91589  -0.91130  -0.90872
 Alpha  occ. eigenvalues --   -0.90369  -0.90024  -0.89458  -0.89145  -0.88923
 Alpha  occ. eigenvalues --   -0.88795  -0.87579  -0.86339  -0.85951  -0.85209
 Alpha  occ. eigenvalues --   -0.84397  -0.84110  -0.83339  -0.82791  -0.82291
 Alpha  occ. eigenvalues --   -0.80932  -0.80354  -0.80036  -0.79659  -0.78889
 Alpha  occ. eigenvalues --   -0.77573  -0.77282  -0.76747  -0.76660  -0.75513
 Alpha  occ. eigenvalues --   -0.75365  -0.74546  -0.74121  -0.72467  -0.70957
 Alpha  occ. eigenvalues --   -0.70902  -0.70543  -0.70082  -0.68119  -0.67887
 Alpha  occ. eigenvalues --   -0.67561  -0.67295  -0.67058  -0.66880  -0.65756
 Alpha  occ. eigenvalues --   -0.65272  -0.64406  -0.64273  -0.62830  -0.62688
 Alpha  occ. eigenvalues --   -0.62194  -0.61999  -0.61462  -0.60988  -0.60757
 Alpha  occ. eigenvalues --   -0.59853  -0.59553  -0.58675  -0.58421  -0.57955
 Alpha  occ. eigenvalues --   -0.57496  -0.56861  -0.56759  -0.56463  -0.56200
 Alpha  occ. eigenvalues --   -0.55859  -0.55626  -0.55264  -0.54814  -0.54646
 Alpha  occ. eigenvalues --   -0.54441  -0.54241  -0.54150  -0.54003  -0.53888
 Alpha  occ. eigenvalues --   -0.53468  -0.53233  -0.53046  -0.52810  -0.52519
 Alpha  occ. eigenvalues --   -0.52421  -0.52271  -0.52012  -0.51941  -0.51824
 Alpha  occ. eigenvalues --   -0.51619  -0.51596  -0.51380  -0.51250  -0.51087
 Alpha  occ. eigenvalues --   -0.50736  -0.50089  -0.50008  -0.49901  -0.49700
 Alpha  occ. eigenvalues --   -0.49643  -0.49334  -0.49087  -0.48778  -0.48625
 Alpha  occ. eigenvalues --   -0.48450  -0.48336  -0.48140  -0.47967  -0.47906
 Alpha  occ. eigenvalues --   -0.47682  -0.47616  -0.47376  -0.47106  -0.47038
 Alpha  occ. eigenvalues --   -0.46933  -0.46721  -0.46518  -0.45928  -0.45782
 Alpha  occ. eigenvalues --   -0.45692  -0.45504  -0.45237  -0.45099  -0.44988
 Alpha  occ. eigenvalues --   -0.44781  -0.44536  -0.44088  -0.44008  -0.43944
 Alpha  occ. eigenvalues --   -0.43698  -0.43620  -0.43407  -0.43332  -0.43234
 Alpha  occ. eigenvalues --   -0.43096  -0.42660  -0.42337  -0.42052  -0.41973
 Alpha  occ. eigenvalues --   -0.41538  -0.41182  -0.40949  -0.40862  -0.40774
 Alpha  occ. eigenvalues --   -0.40576  -0.40155  -0.40091  -0.39716  -0.39366
 Alpha  occ. eigenvalues --   -0.39265  -0.38903  -0.38630  -0.38423  -0.38372
 Alpha  occ. eigenvalues --   -0.38056  -0.37871  -0.37201  -0.36511  -0.36318
 Alpha  occ. eigenvalues --   -0.35967  -0.35661  -0.34881  -0.33717  -0.33059
 Alpha  occ. eigenvalues --   -0.32865  -0.32707  -0.32120  -0.31394  -0.26437
 Alpha  occ. eigenvalues --   -0.23200
 Alpha virt. eigenvalues --   -0.07115  -0.00757   0.01788   0.03585   0.04105
 Alpha virt. eigenvalues --    0.06818   0.06991   0.07311   0.08584   0.09485
 Alpha virt. eigenvalues --    0.10255   0.11426   0.11703   0.12490   0.12519

 Mulliken charges:
               1
     1  Mg   0.963766
     2  C   -0.092538
     3  C   -0.063200
     4  C   -0.058606
     5  C   -0.104733
     6  N   -0.340499
     7  C   -0.005696
     8  C   -0.029947
     9  C   -0.130475
    10  C    0.044104
    11  C    0.016393
    12  C   -0.015369
    13  C   -0.016582
    14  C    0.250016
    15  O   -0.279763
    16  O   -0.386506
    17  N   -0.414056
    18  C    0.121744
    19  C   -0.134161
    20  C   -0.090123
    21  C    0.165275
    22  C    0.064983
    23  C    0.043551
    24  O   -0.239615
    25  C   -0.023085
    26  N   -0.316655
    27  C    0.018603
    28  C   -0.108829
    29  C   -0.036373
    30  C    0.031525
    31  C    0.005157
    32  C   -0.005843
    33  C   -0.069523
    34  N   -0.430937
    35  C    0.149817
    36  C   -0.193262
    37  C   -0.077860
    38  C    0.183170
    39  C    0.100868
    40  C    0.112555
    41  O   -0.153536
    42  C   -0.087033
    43  C    0.282295
    44  O   -0.248539
    45  O   -0.357115
    46  C    0.140973
    47  C    0.263355
    48  C   -0.135378
    49  C   -0.189544
    50  C    0.035559
    51  C   -0.007170
    52  C   -0.048477
    53  C    0.013091
    54  C   -0.156623
    55  C    0.004164
    56  C   -0.012017
    57  C   -0.049611
    58  C    0.047866
    59  C   -0.209959
    60  C   -0.032176
    61  C    0.001005
    62  C   -0.038524
    63  C   -0.001168
    64  C   -0.205380
    65  C   -0.024057
    66  C    0.014607
    67  H    0.004127
    68  H   -0.012907
    69  H   -0.009349
    70  H    0.039833
    71  H    0.048366
    72  H    0.047384
    73  H    0.048348
    74  H    0.038910
    75  H    0.023827
    76  H    0.046437
    77  H    0.073034
    78  H    0.064933
    79  H    0.035371
    80  H    0.068242
    81  H    0.050888
    82  H    0.056989
    83  H    0.042026
    84  H    0.068642
    85  H    0.047141
    86  H    0.028526
    87  H    0.036990
    88  H    0.032147
    89  H    0.046819
    90  H    0.048938
    91  H    0.034192
    92  H    0.033519
    93  H    0.033990
    94  H    0.040437
    95  H    0.032196
    96  H    0.036300
    97  H    0.070928
    98  H    0.092883
    99  H    0.058578
   100  H    0.053117
   101  H    0.053387
   102  H    0.046881
   103  H    0.064091
   104  H    0.020514
   105  H    0.037492
   106  H    0.032776
   107  H    0.046592
   108  H    0.035961
   109  H    0.023326
   110  H    0.017989
   111  H    0.016112
   112  H    0.016952
   113  H    0.020229
   114  H    0.015010
   115  H    0.022425
   116  H    0.049706
   117  H    0.015563
   118  H    0.010975
   119  H    0.019238
   120  H    0.019812
   121  H    0.013645
   122  H    0.031437
   123  H    0.018433
   124  H    0.029510
   125  H    0.020867
   126  H    0.045531
   127  H    0.021221
   128  H    0.026127
   129  H    0.014532
   130  H    0.026121
   131  H    0.027215
   132  H    0.022872
   133  H    0.012818
   134  H    0.022555
   135  H    0.027594
   136  H    0.025330
   137  H    0.032071
   138  H    0.023157
   139  H    0.026083
   140  H    0.032151
 Sum of Mulliken charges =  -0.00000

 Dipole moment (field-independent basis, Debye):
    X=             -0.0681    Y=              4.6615    Z=              1.2537  Tot=              4.8277
 Quadrupole moment (field-independent basis, Debye-Ang):
   XX=           -404.3790   YY=           -439.2445   ZZ=           -378.5970
   XY=             58.1731   XZ=            -15.7037   YZ=             22.8200

 Normal termination of Gaussian 16 at Thu May  5 02:39:17 2022.
