 Gaussian 16, Revision A.03,
 Gaussian 16:  ES64L-G16RevA.03 25-Dec-2016

 --------------------
 #p ZINDO=(nstates=5)
 --------------------

 ---------------------------
 step_51_chromophore_2 ZINDO
 ---------------------------
 Symbolic Z-matrix:
 Charge =  0 Multiplicity = 1

                         Standard orientation:
 ---------------------------------------------------------------------
 Center     Atomic      Atomic             Coordinates (Angstroms)
 Number     Number       Type             X           Y           Z
 ---------------------------------------------------------------------
      1         12           0        4.513170    1.333832   -0.575088
      2          6           0        5.319358   -2.137273   -0.451206
      3          6           0        2.109440    0.653495   -2.841261
      4          6           0        3.229364    4.472013   -0.118222
      5          6           0        6.437449    1.695341    2.311907
      6          7           0        3.684008   -0.657402   -1.331583
      7          6           0        4.166169   -1.946399   -1.217433
      8          6           0        3.399346   -2.897268   -2.176726
      9          6           0        2.523463   -1.911769   -3.105268
     10          6           0        2.755436   -0.566279   -2.348293
     11          6           0        3.089713   -1.913469   -4.593848
     12          6           0        2.633303   -3.892485   -1.280191
     13          6           0        1.702538   -3.346166   -0.287736
     14          6           0        0.593688   -4.236576    0.299617
     15          8           0        0.174086   -5.284750   -0.228162
     16          8           0       -0.015618   -3.690533    1.435944
     17          7           0        3.062483    2.534347   -1.507355
     18          6           0        2.256695    2.052462   -2.465510
     19          6           0        1.631012    3.203355   -3.189545
     20          6           0        1.895303    4.374422   -2.400978
     21          6           0        2.841629    3.836608   -1.341416
     22          6           0        0.793304    3.059660   -4.432717
     23          6           0        1.303053    5.719342   -2.587551
     24          8           0        0.463898    6.005951   -3.446543
     25          6           0        1.738892    6.817999   -1.671137
     26          7           0        4.581412    2.788146    1.092343
     27          6           0        4.018129    4.003361    0.974281
     28          6           0        4.353386    4.852796    2.283283
     29          6           0        5.459093    3.958478    2.944526
     30          6           0        5.525906    2.706849    2.026573
     31          6           0        4.841571    6.248740    1.889956
     32          6           0        5.272553    3.500328    4.449342
     33          6           0        6.448775    3.726460    5.386352
     34          7           0        5.715922    0.135875    0.612435
     35          6           0        6.491011    0.478234    1.713488
     36          6           0        7.352433   -0.607157    2.012935
     37          6           0        6.929052   -1.642031    1.165387
     38          6           0        5.881283   -1.149374    0.354626
     39          6           0        8.403275   -0.691691    3.101996
     40          6           0        7.171314   -3.046850    0.797546
     41          8           0        7.972651   -3.830029    1.206533
     42          6           0        6.111186   -3.389502   -0.277722
     43          6           0        6.741100   -3.909288   -1.577954
     44          8           0        7.272738   -5.011317   -1.658263
     45          8           0        6.825620   -3.017614   -2.609801
     46          6           0        7.644487   -3.402084   -3.737274
     47          6           0       -1.223036   -4.337160    1.975055
     48          6           0       -2.305882   -3.290550    2.139363
     49          6           0       -3.268736   -3.179598    3.073382
     50          6           0       -3.548642   -4.189301    4.190805
     51          6           0       -4.125633   -1.840002    3.024795
     52          6           0       -5.358372   -1.996728    2.120473
     53          6           0       -6.280692   -0.736797    2.257816
     54          6           0       -6.443190    0.153069    1.003591
     55          6           0       -6.785861    1.659699    1.447508
     56          6           0       -7.436042   -0.444939    0.025717
     57          6           0       -9.023251   -0.412626    0.358831
     58          6           0       -9.907255    0.410078   -0.646372
     59          6           0      -10.843559   -0.350795   -1.540613
     60          6           0      -10.185618   -0.278624   -3.049783
     61          6           0      -12.246396    0.394471   -1.700382
     62          6           0      -13.324888   -0.289636   -0.744922
     63          6           0      -13.890057    0.679340    0.300552
     64          6           0      -15.373438    0.333793    0.693078
     65          6           0      -16.265640    0.667083   -0.505669
     66          6           0      -15.985674    0.999842    1.914122
     67          1           0        1.554582    0.446704   -3.759330
     68          1           0        2.859650    5.473554    0.112047
     69          1           0        7.041617    1.766071    3.219405
     70          1           0        4.007468   -3.598606   -2.748525
     71          1           0        1.495239   -2.252362   -3.227963
     72          1           0        2.259485   -2.085985   -5.278255
     73          1           0        3.887153   -2.645722   -4.721593
     74          1           0        3.476386   -0.895856   -4.652024
     75          1           0        3.447308   -4.418717   -0.781141
     76          1           0        2.083933   -4.654553   -1.833599
     77          1           0        1.183535   -2.473787   -0.685232
     78          1           0        2.375169   -3.113573    0.537313
     79          1           0        1.411073    2.592020   -5.199170
     80          1           0        0.343933    3.880856   -4.990885
     81          1           0        0.019202    2.334709   -4.179704
     82          1           0        1.680399    7.818014   -2.100637
     83          1           0        2.764790    6.570934   -1.399828
     84          1           0        1.149664    6.842854   -0.754312
     85          1           0        3.513644    5.014047    2.959498
     86          1           0        6.423854    4.379410    2.658855
     87          1           0        4.025586    6.920773    2.154619
     88          1           0        4.932682    6.227519    0.803524
     89          1           0        5.788639    6.629179    2.272306
     90          1           0        5.063436    2.432252    4.482290
     91          1           0        4.437748    4.019745    4.920343
     92          1           0        6.404416    4.684545    5.904622
     93          1           0        7.447750    3.795182    4.954742
     94          1           0        6.371630    2.920801    6.117382
     95          1           0        8.242567   -0.037406    3.959165
     96          1           0        9.250228   -0.165691    2.661083
     97          1           0        8.706545   -1.714519    3.323944
     98          1           0        5.424139   -4.075312    0.216642
     99          1           0        7.961197   -2.539854   -4.324121
    100          1           0        7.196552   -4.195645   -4.335449
    101          1           0        8.542540   -3.840207   -3.301402
    102          1           0       -0.968097   -4.891546    2.878144
    103          1           0       -1.623713   -5.054000    1.257630
    104          1           0       -2.264000   -2.501206    1.388004
    105          1           0       -3.375132   -3.632412    5.111206
    106          1           0       -2.875824   -5.041477    4.282900
    107          1           0       -4.590260   -4.509221    4.225419
    108          1           0       -3.571990   -1.012770    2.581480
    109          1           0       -4.507191   -1.600722    4.017437
    110          1           0       -5.834283   -2.934178    2.406884
    111          1           0       -4.986095   -2.115561    1.102306
    112          1           0       -5.928874   -0.123091    3.086440
    113          1           0       -7.206428   -1.266627    2.486459
    114          1           0       -5.508813    0.036136    0.454961
    115          1           0       -7.838262    1.793115    1.696572
    116          1           0       -6.392822    2.350263    0.701053
    117          1           0       -6.420832    1.807733    2.463398
    118          1           0       -7.141936   -1.490706   -0.056109
    119          1           0       -7.183058   -0.019511   -0.944710
    120          1           0       -9.196935   -0.090057    1.386089
    121          1           0       -9.302186   -1.463687    0.437396
    122          1           0       -9.232476    1.025087   -1.243258
    123          1           0      -10.472086    1.010357    0.066665
    124          1           0      -10.929065   -1.407251   -1.281910
    125          1           0       -9.123555   -0.489225   -2.920204
    126          1           0      -10.397150    0.609351   -3.645609
    127          1           0      -10.519615   -1.157137   -3.600185
    128          1           0      -12.690574    0.486678   -2.691909
    129          1           0      -11.921999    1.403170   -1.444654
    130          1           0      -12.786889   -1.048840   -0.176954
    131          1           0      -14.131056   -0.644169   -1.386960
    132          1           0      -13.719775    1.655642   -0.154353
    133          1           0      -13.216720    0.522572    1.142616
    134          1           0      -15.452795   -0.744536    0.832891
    135          1           0      -15.651520    1.241075   -1.198904
    136          1           0      -17.152522    1.258504   -0.278079
    137          1           0      -16.636689   -0.250368   -0.962321
    138          1           0      -16.284646    2.021175    1.676228
    139          1           0      -15.300658    1.047999    2.760496
    140          1           0      -16.900122    0.442253    2.118311
 ---------------------------------------------------------------------

 SCF Done:  E(RZINDO/S) =  -474.066022728     A.U. after   20 cycles

 Excitation energies and oscillator strengths:

 Excited State   1:      Singlet-A      1.2315 eV 1006.79 nm  f=0.5592  <S**2>=0.000
     175 ->178        -0.20488
     176 ->177         0.65901
 This state for optimization and/or second-order correction.
 Total Energy, E(CIS/TDA) =  -474.020766621
 Copying the excited state density for this state as the 1-particle RhoCI density.

 Excited State   2:      Singlet-A      1.8566 eV  667.79 nm  f=0.0059  <S**2>=0.000
     175 ->177         0.50655
     176 ->178         0.47200

 Excited State   3:      Singlet-A      2.7766 eV  446.53 nm  f=0.0140  <S**2>=0.000
     176 ->179        -0.17727
     176 ->180         0.67453

 Excited State   4:      Singlet-A      2.9331 eV  422.70 nm  f=0.9042  <S**2>=0.000
     171 ->177         0.12829
     175 ->177        -0.38104
     176 ->178         0.44299
     176 ->179        -0.22188
     176 ->180        -0.14186

 Excited State   5:      Singlet-A      2.9604 eV  418.81 nm  f=0.0025  <S**2>=0.000
     168 ->177        -0.25796
     168 ->178         0.14910
     168 ->179        -0.38196
     168 ->181        -0.23763
     168 ->184         0.12859
     168 ->185        -0.20337
     168 ->194        -0.10679
     176 ->179         0.28478

 The electronic state is 1-A.
 Alpha  occ. eigenvalues --   -1.86582  -1.81504  -1.79015  -1.73306  -1.72034
 Alpha  occ. eigenvalues --   -1.69207  -1.63608  -1.61131  -1.60832  -1.58894
 Alpha  occ. eigenvalues --   -1.54588  -1.51271  -1.49387  -1.48064  -1.46722
 Alpha  occ. eigenvalues --   -1.44465  -1.42620  -1.41774  -1.38608  -1.36858
 Alpha  occ. eigenvalues --   -1.36840  -1.34262  -1.32322  -1.31367  -1.29215
 Alpha  occ. eigenvalues --   -1.27219  -1.25611  -1.24174  -1.20750  -1.18155
 Alpha  occ. eigenvalues --   -1.16598  -1.15817  -1.14165  -1.13946  -1.12688
 Alpha  occ. eigenvalues --   -1.11833  -1.10364  -1.09458  -1.05701  -1.04259
 Alpha  occ. eigenvalues --   -1.01357  -1.00742  -1.00184  -0.98747  -0.97064
 Alpha  occ. eigenvalues --   -0.96589  -0.93549  -0.93102  -0.92911  -0.91400
 Alpha  occ. eigenvalues --   -0.90668  -0.90312  -0.88408  -0.87565  -0.86337
 Alpha  occ. eigenvalues --   -0.84969  -0.84093  -0.83853  -0.83128  -0.81499
 Alpha  occ. eigenvalues --   -0.81014  -0.79255  -0.78784  -0.77986  -0.77585
 Alpha  occ. eigenvalues --   -0.77207  -0.75270  -0.74648  -0.74188  -0.74010
 Alpha  occ. eigenvalues --   -0.73243  -0.72285  -0.71704  -0.71646  -0.71240
 Alpha  occ. eigenvalues --   -0.71228  -0.69737  -0.69451  -0.68617  -0.68335
 Alpha  occ. eigenvalues --   -0.67755  -0.67019  -0.66565  -0.66332  -0.65637
 Alpha  occ. eigenvalues --   -0.65361  -0.64972  -0.64464  -0.64296  -0.64190
 Alpha  occ. eigenvalues --   -0.63170  -0.63118  -0.62787  -0.62219  -0.61974
 Alpha  occ. eigenvalues --   -0.61534  -0.61309  -0.61056  -0.60358  -0.59652
 Alpha  occ. eigenvalues --   -0.59595  -0.59130  -0.58760  -0.58620  -0.58299
 Alpha  occ. eigenvalues --   -0.58172  -0.57595  -0.57293  -0.57180  -0.56825
 Alpha  occ. eigenvalues --   -0.56099  -0.55459  -0.55302  -0.55091  -0.54965
 Alpha  occ. eigenvalues --   -0.54701  -0.54271  -0.53906  -0.53436  -0.53141
 Alpha  occ. eigenvalues --   -0.52634  -0.52483  -0.51875  -0.51796  -0.51599
 Alpha  occ. eigenvalues --   -0.51090  -0.50816  -0.50521  -0.50357  -0.50235
 Alpha  occ. eigenvalues --   -0.50014  -0.49853  -0.49621  -0.49513  -0.48991
 Alpha  occ. eigenvalues --   -0.48726  -0.48638  -0.48212  -0.48061  -0.47736
 Alpha  occ. eigenvalues --   -0.47689  -0.47542  -0.47325  -0.47103  -0.46899
 Alpha  occ. eigenvalues --   -0.46740  -0.46597  -0.46248  -0.46192  -0.45866
 Alpha  occ. eigenvalues --   -0.45545  -0.45319  -0.44924  -0.44785  -0.44671
 Alpha  occ. eigenvalues --   -0.44434  -0.43853  -0.43288  -0.43053  -0.42142
 Alpha  occ. eigenvalues --   -0.42010  -0.41682  -0.41424  -0.39289  -0.39066
 Alpha  occ. eigenvalues --   -0.38349  -0.37405  -0.35723  -0.35364  -0.34909
 Alpha  occ. eigenvalues --   -0.33462  -0.32921  -0.32640  -0.31939  -0.27036
 Alpha  occ. eigenvalues --   -0.21884
 Alpha virt. eigenvalues --   -0.08577  -0.02987  -0.00959   0.00020   0.00833
 Alpha virt. eigenvalues --    0.01419   0.02029   0.02302   0.04454   0.05065
 Alpha virt. eigenvalues --    0.05768   0.06118   0.07055   0.07265   0.07645

 Mulliken charges:
               1
     1  Mg   0.435301
     2  C   -0.042627
     3  C   -0.101565
     4  C   -0.092208
     5  C   -0.064391
     6  N   -0.295240
     7  C    0.108389
     8  C    0.000044
     9  C   -0.006320
    10  C    0.133217
    11  C   -0.058796
    12  C   -0.019077
    13  C    0.018688
    14  C    0.457869
    15  O   -0.521851
    16  O   -0.278828
    17  N   -0.287321
    18  C    0.113253
    19  C    0.052527
    20  C   -0.063869
    21  C    0.128807
    22  C   -0.034338
    23  C    0.338139
    24  O   -0.531886
    25  C   -0.031952
    26  N   -0.260103
    27  C    0.123321
    28  C    0.003146
    29  C   -0.012620
    30  C    0.120128
    31  C   -0.057436
    32  C   -0.021704
    33  C   -0.057496
    34  N   -0.328736
    35  C    0.093846
    36  C    0.027003
    37  C   -0.070288
    38  C    0.119961
    39  C   -0.043735
    40  C    0.335793
    41  O   -0.494584
    42  C    0.058130
    43  C    0.477760
    44  O   -0.506400
    45  O   -0.268896
    46  C    0.076594
    47  C    0.109587
    48  C   -0.081692
    49  C   -0.021272
    50  C   -0.040998
    51  C   -0.026771
    52  C   -0.037691
    53  C   -0.041821
    54  C   -0.010441
    55  C   -0.066206
    56  C   -0.037097
    57  C   -0.045811
    58  C   -0.024285
    59  C   -0.014286
    60  C   -0.074630
    61  C   -0.050305
    62  C   -0.046686
    63  C   -0.037246
    64  C   -0.009305
    65  C   -0.058692
    66  C   -0.051784
    67  H    0.027916
    68  H    0.028037
    69  H    0.028627
    70  H    0.037855
    71  H    0.040551
    72  H    0.026695
    73  H    0.030821
    74  H    0.026965
    75  H    0.017098
    76  H    0.028662
    77  H    0.049851
    78  H    0.039085
    79  H    0.021172
    80  H    0.049093
    81  H    0.028885
    82  H    0.039449
    83  H    0.025809
    84  H    0.042180
    85  H    0.038133
    86  H    0.036169
    87  H    0.015925
    88  H    0.019112
    89  H    0.027627
    90  H    0.027224
    91  H    0.020089
    92  H    0.014079
    93  H    0.022028
    94  H    0.019867
    95  H    0.028858
    96  H    0.025293
    97  H    0.044098
    98  H    0.066429
    99  H    0.035880
   100  H    0.045666
   101  H    0.043337
   102  H    0.046258
   103  H    0.055680
   104  H    0.029275
   105  H    0.019590
   106  H    0.027223
   107  H    0.031568
   108  H    0.027229
   109  H    0.021905
   110  H    0.019974
   111  H    0.019762
   112  H    0.022218
   113  H    0.018831
   114  H    0.021294
   115  H    0.024408
   116  H    0.029412
   117  H    0.017032
   118  H    0.009943
   119  H    0.015336
   120  H    0.019029
   121  H    0.014856
   122  H    0.028188
   123  H    0.014002
   124  H    0.034152
   125  H    0.013385
   126  H    0.033606
   127  H    0.007606
   128  H    0.023575
   129  H    0.021252
   130  H    0.024209
   131  H    0.026184
   132  H    0.028269
   133  H    0.012257
   134  H    0.018501
   135  H    0.019443
   136  H    0.016517
   137  H    0.015058
   138  H    0.016488
   139  H    0.016054
   140  H    0.019653
 Sum of Mulliken charges =  -0.00000

 Dipole moment (field-independent basis, Debye):
    X=             -0.4540    Y=              6.6382    Z=              2.0027  Tot=              6.9486
 N-N= 4.332754200297D+03 E-N= 0.000000000000D+00  KE=-9.338864078678D+03
 Leave Link  601 at Thu May  5 02:53:04 2022, MaxMem=  6710886400 cpu:               0.8 elap:               0.0
 (Enter /sw/apps/gaussian-16.0/g16/l9999.exe)
 1\1\GINC-BP1-COMPUTE067\SP\RZINDO CIS\STO-3G\C55H74Mg1N4O6\OF15641\05-
 May-2022\0\\#p ZINDO=(nstates=5)\\step_51_chromophore_2 ZINDO\\0,1\Mg,
 0,3.002,0.734,43.804\C,0,6.081,2.527,43.667\C,0,1.483,3.302,42.231\C,0
 ,0.282,-1.26,43.229\C,0,4.888,-2.075,44.653\N,0,3.859,2.618,42.834\C,0
 ,5.107,3.202,42.926\C,0,5.078,4.636,42.33\C,0,3.513,4.939,42.086\C,0,2
 .927,3.518,42.359\C,0,3.003,6.048,43.109\C,0,5.996,4.609,41.09\C,0,5.6
 96,3.636,40.035\C,0,6.247,3.847,38.614\O,0,6.641,4.94,38.163\O,0,6.143

 Normal termination of Gaussian 16 at Thu May  5 02:53:04 2022.
