 Gaussian 16, Revision A.03,
 Gaussian 16:  ES64L-G16RevA.03 25-Dec-2016

 ------------------------------
 #p blyp/Def2SVP td=(nstates=5)
 ------------------------------

 ------------------------------------------------
 step_1_chromophore_12 TDDFT with blyp functional
 ------------------------------------------------
 Symbolic Z-matrix:
 Charge =  0 Multiplicity = 1

                         Standard orientation:
 ---------------------------------------------------------------------
 Center     Atomic      Atomic             Coordinates (Angstroms)
 Number     Number       Type             X           Y           Z
 ---------------------------------------------------------------------
      1         12           0       -4.034178    0.302464   -0.630674
      2          6           0       -3.106959   -2.907249    0.387657
      3          6           0       -0.627674    1.126305   -0.523704
      4          6           0       -4.786519    3.535473   -1.055670
      5          6           0       -7.267672   -0.397760    0.316693
      6          7           0       -2.012519   -0.808251   -0.220035
      7          6           0       -1.990593   -2.091057    0.229808
      8          6           0       -0.506951   -2.551802    0.518478
      9          6           0        0.255411   -1.133299    0.457052
     10          6           0       -0.835981   -0.191150   -0.078145
     11          6           0        0.575028   -0.711029    1.935069
     12          6           0       -0.065616   -3.482167   -0.670508
     13          6           0        1.410320   -3.964886   -0.690674
     14          6           0        2.366139   -4.027847   -1.844711
     15          8           0        2.123624   -3.840506   -3.053851
     16          8           0        3.611932   -4.361107   -1.368435
     17          7           0       -2.860866    2.002211   -0.961754
     18          6           0       -1.466638    2.170903   -0.924847
     19          6           0       -1.190784    3.521848   -1.181305
     20          6           0       -2.357485    4.192842   -1.522509
     21          6           0       -3.403453    3.238682   -1.193114
     22          6           0        0.222897    3.998128   -1.256526
     23          6           0       -2.595269    5.674193   -1.965502
     24          8           0       -3.686298    6.151953   -2.257631
     25          6           0       -1.436669    6.622799   -2.285082
     26          7           0       -5.757093    1.403678   -0.281637
     27          6           0       -5.841295    2.693082   -0.678610
     28          6           0       -7.280211    3.245218   -0.684745
     29          6           0       -8.057397    2.028181   -0.110665
     30          6           0       -7.035947    0.905092   -0.121098
     31          6           0       -7.444680    4.639763    0.005771
     32          6           0       -9.400763    1.655357   -0.795619
     33          6           0       -9.308134    0.979557   -2.097578
     34          7           0       -5.057383   -1.320882    0.096497
     35          6           0       -6.319641   -1.470955    0.424790
     36          6           0       -6.630404   -2.856547    0.791116
     37          6           0       -5.326202   -3.446354    0.769411
     38          6           0       -4.412159   -2.484406    0.386239
     39          6           0       -7.908211   -3.555262    0.745480
     40          6           0       -4.634648   -4.707360    0.972476
     41          8           0       -5.064408   -5.816095    1.197141
     42          6           0       -3.153481   -4.351885    0.795265
     43          6           0       -2.329434   -4.716292    2.034648
     44          8           0       -2.296792   -4.062426    3.044569
     45          8           0       -1.710857   -5.926383    1.829501
     46          6           0       -0.884542   -6.344048    2.985503
     47          6           0        4.658973   -4.144508   -2.358512
     48          6           0        5.978892   -4.110101   -1.622909
     49          6           0        7.170674   -3.479375   -1.947994
     50          6           0        7.393041   -2.546932   -3.147322
     51          6           0        8.497950   -3.685611   -1.142522
     52          6           0        8.839580   -2.422039   -0.182032
     53          6           0        9.893423   -1.445870   -0.632932
     54          6           0        9.397785   -0.077254   -1.056449
     55          6           0        9.998677    0.417752   -2.391936
     56          6           0        9.642127    1.024371    0.034888
     57          6           0        8.331832    1.634077    0.392693
     58          6           0        8.415594    2.555511    1.588205
     59          6           0        7.497699    3.751265    1.526810
     60          6           0        8.285838    5.068224    1.593536
     61          6           0        6.270034    3.651342    2.470632
     62          6           0        4.993318    4.282625    1.929986
     63          6           0        3.754181    3.502031    2.302771
     64          6           0        2.803770    4.369141    3.218252
     65          6           0        1.975818    3.543118    4.238765
     66          6           0        1.904480    5.346369    2.354392
     67          1           0        0.439591    1.335179   -0.613491
     68          1           0       -5.094415    4.526749   -1.395590
     69          1           0       -8.354901   -0.391376    0.411595
     70          1           0       -0.388403   -2.980769    1.513809
     71          1           0        1.167183   -1.132788   -0.141552
     72          1           0       -0.038833    0.083379    2.358349
     73          1           0        1.520016   -0.171160    2.000214
     74          1           0        0.558184   -1.537809    2.644886
     75          1           0       -0.300090   -2.955442   -1.595144
     76          1           0       -0.745491   -4.334572   -0.673510
     77          1           0        1.370227   -4.936535   -0.197468
     78          1           0        1.867122   -3.220383   -0.039811
     79          1           0        0.985840    3.251164   -1.035662
     80          1           0        0.292228    4.926171   -0.687398
     81          1           0        0.352282    4.245420   -2.310548
     82          1           0       -0.837318    6.893090   -1.415633
     83          1           0       -1.718136    7.509532   -2.853270
     84          1           0       -0.807450    6.100738   -3.006183
     85          1           0       -7.382670    3.346805   -1.764793
     86          1           0       -8.220771    2.290784    0.934540
     87          1           0       -6.530016    5.226032   -0.075987
     88          1           0       -7.661126    4.492182    1.064148
     89          1           0       -8.225569    5.247839   -0.451379
     90          1           0       -9.859501    2.636834   -0.911272
     91          1           0      -10.032689    1.111951   -0.092872
     92          1           0       -9.156477   -0.088412   -1.941716
     93          1           0       -8.532753    1.427966   -2.718413
     94          1           0      -10.247777    1.027721   -2.648700
     95          1           0       -8.499922   -3.000938    0.016602
     96          1           0       -8.557106   -3.557699    1.621425
     97          1           0       -7.688293   -4.581282    0.452390
     98          1           0       -2.783937   -4.900232   -0.071880
     99          1           0       -0.938420   -7.429200    3.070879
    100          1           0       -1.259416   -6.063700    3.970097
    101          1           0        0.162840   -6.087650    2.829632
    102          1           0        4.548547   -3.116334   -2.704177
    103          1           0        4.652612   -4.748059   -3.266204
    104          1           0        6.032127   -4.678883   -0.695159
    105          1           0        8.440794   -2.358204   -3.381810
    106          1           0        6.888285   -1.624234   -2.860056
    107          1           0        6.838578   -2.926780   -4.006210
    108          1           0        9.336067   -4.022846   -1.752956
    109          1           0        8.311171   -4.415023   -0.354272
    110          1           0        9.156524   -2.831509    0.776693
    111          1           0        7.942178   -1.824649   -0.021684
    112          1           0       10.380634   -1.804072   -1.539603
    113          1           0       10.711777   -1.405014    0.085418
    114          1           0        8.317961   -0.111421   -1.203850
    115          1           0        9.184895    0.614908   -3.088490
    116          1           0       10.660881   -0.319165   -2.847478
    117          1           0       10.625016    1.307788   -2.328545
    118          1           0       10.278199    1.860190   -0.256014
    119          1           0       10.131826    0.471861    0.836288
    120          1           0        7.751075    0.779803    0.739859
    121          1           0        7.830240    2.037685   -0.487319
    122          1           0        9.465804    2.754889    1.800212
    123          1           0        8.160198    1.863431    2.391518
    124          1           0        7.057899    3.701314    0.530451
    125          1           0        7.986215    5.647530    0.719928
    126          1           0        9.359915    4.906042    1.688744
    127          1           0        8.066075    5.584644    2.527892
    128          1           0        6.614985    4.156529    3.373106
    129          1           0        6.061793    2.644909    2.833173
    130          1           0        4.896957    4.379155    0.848825
    131          1           0        4.967808    5.303527    2.312349
    132          1           0        3.954321    2.538886    2.772592
    133          1           0        3.240217    3.239096    1.378980
    134          1           0        3.483854    5.006030    3.784514
    135          1           0        2.303977    3.914973    5.209370
    136          1           0        2.344255    2.529450    4.077901
    137          1           0        0.911979    3.537728    4.005106
    138          1           0        2.393910    6.318196    2.417331
    139          1           0        0.877237    5.458115    2.701662
    140          1           0        1.818344    5.168360    1.282844
 ---------------------------------------------------------------------

 SCF Done:  E(RB-LYP) =  -3007.35815363     A.U. after   21 cycles

 Excitation energies and oscillator strengths:

 Excited State   1:      Singlet-A      1.8328 eV  676.48 nm  f=0.3125  <S**2>=0.000
     245 -> 248       -0.19011
     246 -> 247        0.68844
     246 <- 247       -0.14547
 This state for optimization and/or second-order correction.
 Total Energy, E(TD-HF/TD-DFT) =  -3007.29080009
 Copying the excited state density for this state as the 1-particle RhoCI density.

 Excited State   2:      Singlet-A      2.0147 eV  615.41 nm  f=0.0655  <S**2>=0.000
     243 -> 247        0.19362
     244 -> 247       -0.19137
     245 -> 247        0.60772
     246 -> 248        0.20383

 Excited State   3:      Singlet-A      2.0380 eV  608.37 nm  f=0.0054  <S**2>=0.000
     244 -> 247        0.67904
     245 -> 247        0.16158

 Excited State   4:      Singlet-A      2.0878 eV  593.84 nm  f=0.0086  <S**2>=0.000
     243 -> 247        0.67387
     245 -> 247       -0.18744

 Excited State   5:      Singlet-A      2.2878 eV  541.93 nm  f=0.0002  <S**2>=0.000
     242 -> 247        0.70707

 The electronic state is 1-A.
 Alpha  occ. eigenvalues --  -46.27224 -18.82925 -18.82903 -18.77356 -18.77279
 Alpha  occ. eigenvalues --  -18.76013 -18.75757 -14.03202 -14.02535 -14.00897
 Alpha  occ. eigenvalues --  -14.00677 -10.04911 -10.04375 -10.00719  -9.99371
 Alpha  occ. eigenvalues --   -9.98452  -9.97893  -9.96583  -9.96393  -9.96041
 Alpha  occ. eigenvalues --   -9.95781  -9.95681  -9.95657  -9.95182  -9.94795
 Alpha  occ. eigenvalues --   -9.94657  -9.94085  -9.93889  -9.93867  -9.93758
 Alpha  occ. eigenvalues --   -9.93725  -9.93709  -9.93511  -9.93453  -9.93262
 Alpha  occ. eigenvalues --   -9.93152  -9.92911  -9.92853  -9.92851  -9.92830
 Alpha  occ. eigenvalues --   -9.92606  -9.92555  -9.92328  -9.92306  -9.92296
 Alpha  occ. eigenvalues --   -9.92288  -9.92231  -9.92120  -9.91981  -9.91923
 Alpha  occ. eigenvalues --   -9.91671  -9.91614  -9.91474  -9.91373  -9.91087
 Alpha  occ. eigenvalues --   -9.91072  -9.91030  -9.91012  -9.90873  -9.90838
 Alpha  occ. eigenvalues --   -9.90793  -9.90770  -9.90609  -9.90553  -9.90434
 Alpha  occ. eigenvalues --   -9.90221  -2.91882  -1.72293  -1.71787  -1.71578
 Alpha  occ. eigenvalues --   -0.98325  -0.98307  -0.91982  -0.91801  -0.90887
 Alpha  occ. eigenvalues --   -0.89427  -0.87477  -0.86116  -0.85772  -0.84821
 Alpha  occ. eigenvalues --   -0.76718  -0.74080  -0.73034  -0.72817  -0.72701
 Alpha  occ. eigenvalues --   -0.71915  -0.71795  -0.71025  -0.70818  -0.70681
 Alpha  occ. eigenvalues --   -0.69878  -0.69325  -0.68365  -0.67650  -0.67317
 Alpha  occ. eigenvalues --   -0.66589  -0.66071  -0.65429  -0.65002  -0.64600
 Alpha  occ. eigenvalues --   -0.64443  -0.62726  -0.62375  -0.62116  -0.61147
 Alpha  occ. eigenvalues --   -0.60618  -0.60232  -0.59950  -0.59757  -0.59205
 Alpha  occ. eigenvalues --   -0.58191  -0.57520  -0.56937  -0.55800  -0.55277
 Alpha  occ. eigenvalues --   -0.54355  -0.53493  -0.52790  -0.52325  -0.51699
 Alpha  occ. eigenvalues --   -0.51052  -0.50993  -0.50517  -0.50460  -0.50284
 Alpha  occ. eigenvalues --   -0.50018  -0.49561  -0.49385  -0.48847  -0.46620
 Alpha  occ. eigenvalues --   -0.46281  -0.45947  -0.45673  -0.45153  -0.44939
 Alpha  occ. eigenvalues --   -0.44269  -0.44010  -0.43471  -0.42937  -0.42586
 Alpha  occ. eigenvalues --   -0.42525  -0.42130  -0.41987  -0.41418  -0.41165
 Alpha  occ. eigenvalues --   -0.41115  -0.40825  -0.40764  -0.40366  -0.40145
 Alpha  occ. eigenvalues --   -0.40020  -0.39726  -0.39613  -0.39524  -0.39405
 Alpha  occ. eigenvalues --   -0.39194  -0.39059  -0.38641  -0.38436  -0.38398
 Alpha  occ. eigenvalues --   -0.37926  -0.37778  -0.37601  -0.37529  -0.37312
 Alpha  occ. eigenvalues --   -0.36990  -0.36880  -0.36807  -0.36708  -0.36554
 Alpha  occ. eigenvalues --   -0.36297  -0.36102  -0.36081  -0.35920  -0.35842
 Alpha  occ. eigenvalues --   -0.35723  -0.35305  -0.35122  -0.34999  -0.34862
 Alpha  occ. eigenvalues --   -0.34679  -0.34496  -0.34224  -0.34042  -0.33969
 Alpha  occ. eigenvalues --   -0.33745  -0.33605  -0.33362  -0.33336  -0.33201
 Alpha  occ. eigenvalues --   -0.33094  -0.32922  -0.32765  -0.32614  -0.32411
 Alpha  occ. eigenvalues --   -0.32119  -0.31927  -0.31867  -0.31776  -0.31734
 Alpha  occ. eigenvalues --   -0.31608  -0.31400  -0.31328  -0.31204  -0.30974
 Alpha  occ. eigenvalues --   -0.30803  -0.30644  -0.30479  -0.30440  -0.30191
 Alpha  occ. eigenvalues --   -0.30057  -0.29687  -0.29413  -0.29350  -0.29133
 Alpha  occ. eigenvalues --   -0.28657  -0.28500  -0.28054  -0.27934  -0.27823
 Alpha  occ. eigenvalues --   -0.27790  -0.27195  -0.26748  -0.26614  -0.26586
 Alpha  occ. eigenvalues --   -0.26267  -0.26191  -0.26164  -0.25915  -0.25777
 Alpha  occ. eigenvalues --   -0.25409  -0.25091  -0.24920  -0.23937  -0.23453
 Alpha  occ. eigenvalues --   -0.23275  -0.22747  -0.22021  -0.21973  -0.20652
 Alpha  occ. eigenvalues --   -0.20198  -0.19786  -0.18929  -0.18778  -0.17094
 Alpha  occ. eigenvalues --   -0.15765
 Alpha virt. eigenvalues --   -0.11379  -0.06604  -0.06117  -0.04723  -0.03727
 Alpha virt. eigenvalues --   -0.02773  -0.02597  -0.02287  -0.01237   0.00222
 Alpha virt. eigenvalues --    0.00859   0.01753   0.01900   0.02233   0.02466

 Mulliken charges:
               1
     1  Mg   0.710736
     2  C    0.021134
     3  C   -0.049387
     4  C   -0.076285
     5  C   -0.048784
     6  N   -0.158181
     7  C   -0.122403
     8  C   -0.006309
     9  C   -0.007946
    10  C   -0.004133
    11  C    0.100224
    12  C    0.113676
    13  C    0.107753
    14  C    0.112072
    15  O   -0.207554
    16  O   -0.274618
    17  N   -0.301980
    18  C    0.144207
    19  C   -0.139601
    20  C    0.023837
    21  C    0.096250
    22  C    0.166560
    23  C   -0.036882
    24  O   -0.165278
    25  C    0.116428
    26  N   -0.256293
    27  C    0.012561
    28  C    0.005722
    29  C    0.074606
    30  C   -0.061337
    31  C    0.137866
    32  C    0.088985
    33  C    0.102079
    34  N   -0.230525
    35  C    0.148396
    36  C   -0.173565
    37  C    0.055294
    38  C    0.096709
    39  C    0.178895
    40  C   -0.065047
    41  O   -0.109542
    42  C    0.072839
    43  C    0.121176
    44  O   -0.161848
    45  O   -0.267972
    46  C    0.201994
    47  C    0.333799
    48  C   -0.098737
    49  C   -0.178965
    50  C    0.130048
    51  C    0.132296
    52  C    0.049752
    53  C    0.148175
    54  C   -0.110046
    55  C    0.105619
    56  C    0.106306
    57  C    0.017480
    58  C    0.149454
    59  C   -0.065672
    60  C    0.128113
    61  C    0.106654
    62  C    0.082403
    63  C    0.085089
    64  C   -0.130973
    65  C    0.134755
    66  C    0.082429
    67  H   -0.073222
    68  H   -0.038883
    69  H   -0.077173
    70  H   -0.005203
    71  H   -0.012305
    72  H   -0.002435
    73  H   -0.018107
    74  H    0.005566
    75  H   -0.022335
    76  H   -0.020580
    77  H    0.015592
    78  H    0.000789
    79  H   -0.003436
    80  H    0.014945
    81  H   -0.000449
    82  H    0.011218
    83  H   -0.007978
    84  H   -0.004912
    85  H   -0.019204
    86  H   -0.021513
    87  H    0.003419
    88  H   -0.014685
    89  H   -0.007354
    90  H   -0.033323
    91  H   -0.018268
    92  H   -0.011884
    93  H   -0.008690
    94  H   -0.014091
    95  H   -0.013000
    96  H   -0.007954
    97  H    0.016072
    98  H    0.006019
    99  H    0.009165
   100  H    0.026804
   101  H    0.018407
   102  H   -0.016632
   103  H    0.021933
   104  H   -0.034796
   105  H    0.001298
   106  H    0.012234
   107  H   -0.002963
   108  H   -0.006548
   109  H   -0.039221
   110  H   -0.029662
   111  H   -0.019166
   112  H   -0.057919
   113  H   -0.035492
   114  H   -0.031429
   115  H   -0.015730
   116  H   -0.028584
   117  H   -0.018992
   118  H   -0.029634
   119  H   -0.044785
   120  H   -0.038729
   121  H   -0.024221
   122  H   -0.044243
   123  H   -0.053826
   124  H   -0.040886
   125  H   -0.005437
   126  H   -0.019205
   127  H   -0.027756
   128  H   -0.041684
   129  H   -0.037649
   130  H   -0.035205
   131  H   -0.025410
   132  H   -0.032888
   133  H   -0.037709
   134  H   -0.028795
   135  H   -0.004660
   136  H   -0.031170
   137  H   -0.006437
   138  H   -0.019238
   139  H   -0.013251
   140  H   -0.019030
 Sum of Mulliken charges =  -0.00000

 Dipole moment (field-independent basis, Debye):
    X=              3.4432    Y=              2.1007    Z=              0.0325  Tot=              4.0336
 Quadrupole moment (field-independent basis, Debye-Ang):
   XX=           -370.9030   YY=           -429.2525   ZZ=           -414.0149
   XY=            -16.8616   XZ=              7.5843   YZ=              0.7321

 Normal termination of Gaussian 16 at Fri Apr 29 05:37:04 2022.
