 Gaussian 16, Revision A.03,
 Gaussian 16:  ES64L-G16RevA.03 25-Dec-2016

 -----------------------------------
 #p cam-b3lyp/Def2SVP td=(nstates=5)
 -----------------------------------

 -----------------------------------------------------
 step_1_chromophore_12 TDDFT with cam-b3lyp functional
 -----------------------------------------------------
 Symbolic Z-matrix:
 Charge =  0 Multiplicity = 1

                         Standard orientation:
 ---------------------------------------------------------------------
 Center     Atomic      Atomic             Coordinates (Angstroms)
 Number     Number       Type             X           Y           Z
 ---------------------------------------------------------------------
      1         12           0       -4.034178    0.302464   -0.630674
      2          6           0       -3.106959   -2.907249    0.387657
      3          6           0       -0.627674    1.126305   -0.523704
      4          6           0       -4.786519    3.535473   -1.055670
      5          6           0       -7.267672   -0.397760    0.316693
      6          7           0       -2.012519   -0.808251   -0.220035
      7          6           0       -1.990593   -2.091057    0.229808
      8          6           0       -0.506951   -2.551802    0.518478
      9          6           0        0.255411   -1.133299    0.457052
     10          6           0       -0.835981   -0.191150   -0.078145
     11          6           0        0.575028   -0.711029    1.935069
     12          6           0       -0.065616   -3.482167   -0.670508
     13          6           0        1.410320   -3.964886   -0.690674
     14          6           0        2.366139   -4.027847   -1.844711
     15          8           0        2.123624   -3.840506   -3.053851
     16          8           0        3.611932   -4.361107   -1.368435
     17          7           0       -2.860866    2.002211   -0.961754
     18          6           0       -1.466638    2.170903   -0.924847
     19          6           0       -1.190784    3.521848   -1.181305
     20          6           0       -2.357485    4.192842   -1.522509
     21          6           0       -3.403453    3.238682   -1.193114
     22          6           0        0.222897    3.998128   -1.256526
     23          6           0       -2.595269    5.674193   -1.965502
     24          8           0       -3.686298    6.151953   -2.257631
     25          6           0       -1.436669    6.622799   -2.285082
     26          7           0       -5.757093    1.403678   -0.281637
     27          6           0       -5.841295    2.693082   -0.678610
     28          6           0       -7.280211    3.245218   -0.684745
     29          6           0       -8.057397    2.028181   -0.110665
     30          6           0       -7.035947    0.905092   -0.121098
     31          6           0       -7.444680    4.639763    0.005771
     32          6           0       -9.400763    1.655357   -0.795619
     33          6           0       -9.308134    0.979557   -2.097578
     34          7           0       -5.057383   -1.320882    0.096497
     35          6           0       -6.319641   -1.470955    0.424790
     36          6           0       -6.630404   -2.856547    0.791116
     37          6           0       -5.326202   -3.446354    0.769411
     38          6           0       -4.412159   -2.484406    0.386239
     39          6           0       -7.908211   -3.555262    0.745480
     40          6           0       -4.634648   -4.707360    0.972476
     41          8           0       -5.064408   -5.816095    1.197141
     42          6           0       -3.153481   -4.351885    0.795265
     43          6           0       -2.329434   -4.716292    2.034648
     44          8           0       -2.296792   -4.062426    3.044569
     45          8           0       -1.710857   -5.926383    1.829501
     46          6           0       -0.884542   -6.344048    2.985503
     47          6           0        4.658973   -4.144508   -2.358512
     48          6           0        5.978892   -4.110101   -1.622909
     49          6           0        7.170674   -3.479375   -1.947994
     50          6           0        7.393041   -2.546932   -3.147322
     51          6           0        8.497950   -3.685611   -1.142522
     52          6           0        8.839580   -2.422039   -0.182032
     53          6           0        9.893423   -1.445870   -0.632932
     54          6           0        9.397785   -0.077254   -1.056449
     55          6           0        9.998677    0.417752   -2.391936
     56          6           0        9.642127    1.024371    0.034888
     57          6           0        8.331832    1.634077    0.392693
     58          6           0        8.415594    2.555511    1.588205
     59          6           0        7.497699    3.751265    1.526810
     60          6           0        8.285838    5.068224    1.593536
     61          6           0        6.270034    3.651342    2.470632
     62          6           0        4.993318    4.282625    1.929986
     63          6           0        3.754181    3.502031    2.302771
     64          6           0        2.803770    4.369141    3.218252
     65          6           0        1.975818    3.543118    4.238765
     66          6           0        1.904480    5.346369    2.354392
     67          1           0        0.439591    1.335179   -0.613491
     68          1           0       -5.094415    4.526749   -1.395590
     69          1           0       -8.354901   -0.391376    0.411595
     70          1           0       -0.388403   -2.980769    1.513809
     71          1           0        1.167183   -1.132788   -0.141552
     72          1           0       -0.038833    0.083379    2.358349
     73          1           0        1.520016   -0.171160    2.000214
     74          1           0        0.558184   -1.537809    2.644886
     75          1           0       -0.300090   -2.955442   -1.595144
     76          1           0       -0.745491   -4.334572   -0.673510
     77          1           0        1.370227   -4.936535   -0.197468
     78          1           0        1.867122   -3.220383   -0.039811
     79          1           0        0.985840    3.251164   -1.035662
     80          1           0        0.292228    4.926171   -0.687398
     81          1           0        0.352282    4.245420   -2.310548
     82          1           0       -0.837318    6.893090   -1.415633
     83          1           0       -1.718136    7.509532   -2.853270
     84          1           0       -0.807450    6.100738   -3.006183
     85          1           0       -7.382670    3.346805   -1.764793
     86          1           0       -8.220771    2.290784    0.934540
     87          1           0       -6.530016    5.226032   -0.075987
     88          1           0       -7.661126    4.492182    1.064148
     89          1           0       -8.225569    5.247839   -0.451379
     90          1           0       -9.859501    2.636834   -0.911272
     91          1           0      -10.032689    1.111951   -0.092872
     92          1           0       -9.156477   -0.088412   -1.941716
     93          1           0       -8.532753    1.427966   -2.718413
     94          1           0      -10.247777    1.027721   -2.648700
     95          1           0       -8.499922   -3.000938    0.016602
     96          1           0       -8.557106   -3.557699    1.621425
     97          1           0       -7.688293   -4.581282    0.452390
     98          1           0       -2.783937   -4.900232   -0.071880
     99          1           0       -0.938420   -7.429200    3.070879
    100          1           0       -1.259416   -6.063700    3.970097
    101          1           0        0.162840   -6.087650    2.829632
    102          1           0        4.548547   -3.116334   -2.704177
    103          1           0        4.652612   -4.748059   -3.266204
    104          1           0        6.032127   -4.678883   -0.695159
    105          1           0        8.440794   -2.358204   -3.381810
    106          1           0        6.888285   -1.624234   -2.860056
    107          1           0        6.838578   -2.926780   -4.006210
    108          1           0        9.336067   -4.022846   -1.752956
    109          1           0        8.311171   -4.415023   -0.354272
    110          1           0        9.156524   -2.831509    0.776693
    111          1           0        7.942178   -1.824649   -0.021684
    112          1           0       10.380634   -1.804072   -1.539603
    113          1           0       10.711777   -1.405014    0.085418
    114          1           0        8.317961   -0.111421   -1.203850
    115          1           0        9.184895    0.614908   -3.088490
    116          1           0       10.660881   -0.319165   -2.847478
    117          1           0       10.625016    1.307788   -2.328545
    118          1           0       10.278199    1.860190   -0.256014
    119          1           0       10.131826    0.471861    0.836288
    120          1           0        7.751075    0.779803    0.739859
    121          1           0        7.830240    2.037685   -0.487319
    122          1           0        9.465804    2.754889    1.800212
    123          1           0        8.160198    1.863431    2.391518
    124          1           0        7.057899    3.701314    0.530451
    125          1           0        7.986215    5.647530    0.719928
    126          1           0        9.359915    4.906042    1.688744
    127          1           0        8.066075    5.584644    2.527892
    128          1           0        6.614985    4.156529    3.373106
    129          1           0        6.061793    2.644909    2.833173
    130          1           0        4.896957    4.379155    0.848825
    131          1           0        4.967808    5.303527    2.312349
    132          1           0        3.954321    2.538886    2.772592
    133          1           0        3.240217    3.239096    1.378980
    134          1           0        3.483854    5.006030    3.784514
    135          1           0        2.303977    3.914973    5.209370
    136          1           0        2.344255    2.529450    4.077901
    137          1           0        0.911979    3.537728    4.005106
    138          1           0        2.393910    6.318196    2.417331
    139          1           0        0.877237    5.458115    2.701662
    140          1           0        1.818344    5.168360    1.282844
 ---------------------------------------------------------------------

 SCF Done:  E(RCAM-B3LYP) =  -3007.16014422     A.U. after   18 cycles

 Excitation energies and oscillator strengths:

 Excited State   1:      Singlet-A      1.7459 eV  710.15 nm  f=0.3862  <S**2>=0.000
     245 -> 248       -0.18621
     246 -> 247        0.68379
     245 <- 248       -0.10696
 This state for optimization and/or second-order correction.
 Total Energy, E(TD-HF/TD-DFT) =  -3007.09598446
 Copying the excited state density for this state as the 1-particle RhoCI density.

 Excited State   2:      Singlet-A      2.2603 eV  548.52 nm  f=0.1206  <S**2>=0.000
     245 -> 247        0.64520
     246 -> 248        0.27650

 Excited State   3:      Singlet-A      3.4401 eV  360.41 nm  f=0.0359  <S**2>=0.000
     242 -> 247        0.50973
     244 -> 247       -0.41873
     246 -> 248       -0.18896

 Excited State   4:      Singlet-A      3.5235 eV  351.88 nm  f=0.0804  <S**2>=0.000
     241 -> 247        0.13759
     242 -> 247        0.24960
     244 -> 247        0.50421
     246 -> 248       -0.35403

 Excited State   5:      Singlet-A      3.6475 eV  339.91 nm  f=0.4010  <S**2>=0.000
     240 -> 247        0.33428
     240 -> 249        0.12207
     240 -> 251        0.12497
     241 -> 247       -0.13340
     241 -> 249        0.17281
     242 -> 247        0.23748
     244 -> 247        0.15525
     245 -> 247       -0.19821
     246 -> 248        0.38029

 The electronic state is 1-A.
 Alpha  occ. eigenvalues --  -46.88741 -19.25907 -19.25850 -19.20521 -19.20284
 Alpha  occ. eigenvalues --  -19.19454 -19.18881 -14.42321 -14.41093 -14.39179
 Alpha  occ. eigenvalues --  -14.39175 -10.40284 -10.39883 -10.36189 -10.34562
 Alpha  occ. eigenvalues --  -10.32505 -10.31925 -10.31169 -10.30669 -10.30665
 Alpha  occ. eigenvalues --  -10.30395 -10.29992 -10.29693 -10.29653 -10.28940
 Alpha  occ. eigenvalues --  -10.28839 -10.28437 -10.28172 -10.28070 -10.28045
 Alpha  occ. eigenvalues --  -10.27783 -10.27672 -10.27662 -10.27522 -10.27462
 Alpha  occ. eigenvalues --  -10.27413 -10.27332 -10.27135 -10.27071 -10.26709
 Alpha  occ. eigenvalues --  -10.26364 -10.26360 -10.26261 -10.26197 -10.26176
 Alpha  occ. eigenvalues --  -10.26020 -10.26006 -10.26005 -10.25744 -10.25389
 Alpha  occ. eigenvalues --  -10.25305 -10.25303 -10.25122 -10.25120 -10.24865
 Alpha  occ. eigenvalues --  -10.24818 -10.24795 -10.24729 -10.24518 -10.24511
 Alpha  occ. eigenvalues --  -10.24462 -10.24431 -10.24337 -10.24299 -10.24205
 Alpha  occ. eigenvalues --  -10.23887  -3.17303  -1.92189  -1.91772  -1.91590
 Alpha  occ. eigenvalues --   -1.16947  -1.16767  -1.10418  -1.10346  -1.08882
 Alpha  occ. eigenvalues --   -1.07307  -1.05017  -1.03864  -1.03383  -1.02481
 Alpha  occ. eigenvalues --   -0.93887  -0.91017  -0.89891  -0.89505  -0.89451
 Alpha  occ. eigenvalues --   -0.88685  -0.88600  -0.87686  -0.87547  -0.87265
 Alpha  occ. eigenvalues --   -0.86233  -0.85721  -0.84718  -0.83731  -0.83494
 Alpha  occ. eigenvalues --   -0.82678  -0.82084  -0.81431  -0.81045  -0.80545
 Alpha  occ. eigenvalues --   -0.80320  -0.78559  -0.78027  -0.77624  -0.76550
 Alpha  occ. eigenvalues --   -0.76041  -0.75708  -0.75231  -0.75131  -0.74542
 Alpha  occ. eigenvalues --   -0.73240  -0.72470  -0.71854  -0.70641  -0.69839
 Alpha  occ. eigenvalues --   -0.68919  -0.68081  -0.67352  -0.66775  -0.65919
 Alpha  occ. eigenvalues --   -0.65312  -0.65214  -0.64624  -0.64496  -0.64094
 Alpha  occ. eigenvalues --   -0.63895  -0.63650  -0.63383  -0.62569  -0.60347
 Alpha  occ. eigenvalues --   -0.60000  -0.59510  -0.59145  -0.58737  -0.58428
 Alpha  occ. eigenvalues --   -0.57573  -0.57423  -0.56534  -0.56188  -0.55746
 Alpha  occ. eigenvalues --   -0.55529  -0.55179  -0.54969  -0.54710  -0.54494
 Alpha  occ. eigenvalues --   -0.53989  -0.53810  -0.53476  -0.53293  -0.53236
 Alpha  occ. eigenvalues --   -0.52706  -0.52599  -0.52303  -0.52143  -0.52042
 Alpha  occ. eigenvalues --   -0.51739  -0.51511  -0.51187  -0.50999  -0.50635
 Alpha  occ. eigenvalues --   -0.50388  -0.50275  -0.49952  -0.49804  -0.49689
 Alpha  occ. eigenvalues --   -0.49526  -0.49463  -0.49061  -0.48983  -0.48908
 Alpha  occ. eigenvalues --   -0.48879  -0.48531  -0.48375  -0.48032  -0.47925
 Alpha  occ. eigenvalues --   -0.47833  -0.47346  -0.47163  -0.47028  -0.46954
 Alpha  occ. eigenvalues --   -0.46627  -0.46481  -0.46070  -0.46015  -0.45778
 Alpha  occ. eigenvalues --   -0.45506  -0.45414  -0.45121  -0.45006  -0.44980
 Alpha  occ. eigenvalues --   -0.44866  -0.44734  -0.44542  -0.44284  -0.43923
 Alpha  occ. eigenvalues --   -0.43782  -0.43747  -0.43494  -0.43332  -0.43274
 Alpha  occ. eigenvalues --   -0.43238  -0.42941  -0.42774  -0.42668  -0.42496
 Alpha  occ. eigenvalues --   -0.42491  -0.42384  -0.41898  -0.41767  -0.41476
 Alpha  occ. eigenvalues --   -0.41407  -0.40879  -0.40813  -0.40554  -0.40313
 Alpha  occ. eigenvalues --   -0.39647  -0.39567  -0.38921  -0.38868  -0.38775
 Alpha  occ. eigenvalues --   -0.38693  -0.38070  -0.37833  -0.37623  -0.37554
 Alpha  occ. eigenvalues --   -0.37474  -0.37348  -0.37032  -0.36959  -0.36817
 Alpha  occ. eigenvalues --   -0.36506  -0.35807  -0.35564  -0.35023  -0.34431
 Alpha  occ. eigenvalues --   -0.34235  -0.33689  -0.33203  -0.31484  -0.31122
 Alpha  occ. eigenvalues --   -0.30856  -0.30095  -0.29369  -0.29213  -0.23829
 Alpha  occ. eigenvalues --   -0.21131
 Alpha virt. eigenvalues --   -0.08420  -0.01382   0.00393   0.01942   0.02550
 Alpha virt. eigenvalues --    0.04050   0.05110   0.05277   0.06027   0.06391
 Alpha virt. eigenvalues --    0.07420   0.07979   0.08397   0.08653   0.08715

 Mulliken charges:
               1
     1  Mg   0.841125
     2  C    0.002183
     3  C   -0.059497
     4  C   -0.104581
     5  C   -0.054561
     6  N   -0.218535
     7  C   -0.085372
     8  C   -0.050670
     9  C   -0.063517
    10  C    0.012628
    11  C    0.049364
    12  C    0.068728
    13  C    0.038277
    14  C    0.191700
    15  O   -0.249413
    16  O   -0.337559
    17  N   -0.391315
    18  C    0.154979
    19  C   -0.141911
    20  C   -0.042579
    21  C    0.127463
    22  C    0.109775
    23  C    0.040279
    24  O   -0.203330
    25  C    0.038752
    26  N   -0.333361
    27  C    0.048383
    28  C   -0.057804
    29  C    0.015317
    30  C   -0.039185
    31  C    0.082099
    32  C    0.031305
    33  C    0.039564
    34  N   -0.320490
    35  C    0.146597
    36  C   -0.154970
    37  C   -0.024144
    38  C    0.122996
    39  C    0.118317
    40  C    0.036530
    41  O   -0.148586
    42  C   -0.005304
    43  C    0.201303
    44  O   -0.197977
    45  O   -0.330252
    46  C    0.163618
    47  C    0.300023
    48  C   -0.119498
    49  C   -0.198952
    50  C    0.069190
    51  C    0.073232
    52  C   -0.002013
    53  C    0.090384
    54  C   -0.168741
    55  C    0.050212
    56  C    0.057357
    57  C   -0.032806
    58  C    0.092889
    59  C   -0.125277
    60  C    0.069721
    61  C    0.057938
    62  C    0.024424
    63  C    0.034526
    64  C   -0.185920
    65  C    0.076018
    66  C    0.029016
    67  H   -0.038350
    68  H   -0.000244
    69  H   -0.043473
    70  H    0.025403
    71  H    0.019678
    72  H    0.023579
    73  H    0.004802
    74  H    0.029537
    75  H    0.011960
    76  H    0.007296
    77  H    0.046909
    78  H    0.029933
    79  H    0.023356
    80  H    0.036326
    81  H    0.027513
    82  H    0.037968
    83  H    0.028158
    84  H    0.021358
    85  H    0.014972
    86  H    0.015025
    87  H    0.028186
    88  H    0.010036
    89  H    0.017602
    90  H   -0.003729
    91  H    0.009899
    92  H    0.011685
    93  H    0.012581
    94  H    0.011455
    95  H    0.009552
    96  H    0.018100
    97  H    0.040948
    98  H    0.049685
    99  H    0.032660
   100  H    0.052666
   101  H    0.037723
   102  H    0.011740
   103  H    0.049816
   104  H   -0.000201
   105  H    0.024622
   106  H    0.033556
   107  H    0.021866
   108  H    0.021881
   109  H   -0.007236
   110  H    0.000660
   111  H    0.006552
   112  H   -0.028557
   113  H   -0.004908
   114  H   -0.001626
   115  H    0.007171
   116  H   -0.004197
   117  H    0.006001
   118  H   -0.002285
   119  H   -0.015638
   120  H   -0.012691
   121  H    0.002122
   122  H   -0.014050
   123  H   -0.022491
   124  H   -0.009512
   125  H    0.017888
   126  H    0.005845
   127  H   -0.003947
   128  H   -0.013412
   129  H   -0.008828
   130  H   -0.006143
   131  H    0.001790
   132  H   -0.005250
   133  H   -0.012530
   134  H    0.002339
   135  H    0.019311
   136  H   -0.008850
   137  H    0.017037
   138  H    0.004184
   139  H    0.011010
   140  H   -0.001886
 Sum of Mulliken charges =  -0.00000

 Dipole moment (field-independent basis, Debye):
    X=              4.2985    Y=              2.8242    Z=             -0.0721  Tot=              5.1438
 Quadrupole moment (field-independent basis, Debye-Ang):
   XX=           -372.6593   YY=           -425.9417   ZZ=           -413.9412
   XY=            -18.4607   XZ=              8.3965   YZ=             -1.2359

 Normal termination of Gaussian 16 at Fri Apr 29 04:35:09 2022.
