 Gaussian 16, Revision A.03,
 Gaussian 16:  ES64L-G16RevA.03 25-Dec-2016

 ---------------------------------
 #p PBE1PBE/Def2SVP td=(nstates=5)
 ---------------------------------

 ---------------------------------------------------
 step_1_chromophore_12 TDDFT with PBE1PBE functional
 ---------------------------------------------------
 Symbolic Z-matrix:
 Charge =  0 Multiplicity = 1

                         Standard orientation:
 ---------------------------------------------------------------------
 Center     Atomic      Atomic             Coordinates (Angstroms)
 Number     Number       Type             X           Y           Z
 ---------------------------------------------------------------------
      1         12           0       -4.034178    0.302464   -0.630674
      2          6           0       -3.106959   -2.907249    0.387657
      3          6           0       -0.627674    1.126305   -0.523704
      4          6           0       -4.786519    3.535473   -1.055670
      5          6           0       -7.267672   -0.397760    0.316693
      6          7           0       -2.012519   -0.808251   -0.220035
      7          6           0       -1.990593   -2.091057    0.229808
      8          6           0       -0.506951   -2.551802    0.518478
      9          6           0        0.255411   -1.133299    0.457052
     10          6           0       -0.835981   -0.191150   -0.078145
     11          6           0        0.575028   -0.711029    1.935069
     12          6           0       -0.065616   -3.482167   -0.670508
     13          6           0        1.410320   -3.964886   -0.690674
     14          6           0        2.366139   -4.027847   -1.844711
     15          8           0        2.123624   -3.840506   -3.053851
     16          8           0        3.611932   -4.361107   -1.368435
     17          7           0       -2.860866    2.002211   -0.961754
     18          6           0       -1.466638    2.170903   -0.924847
     19          6           0       -1.190784    3.521848   -1.181305
     20          6           0       -2.357485    4.192842   -1.522509
     21          6           0       -3.403453    3.238682   -1.193114
     22          6           0        0.222897    3.998128   -1.256526
     23          6           0       -2.595269    5.674193   -1.965502
     24          8           0       -3.686298    6.151953   -2.257631
     25          6           0       -1.436669    6.622799   -2.285082
     26          7           0       -5.757093    1.403678   -0.281637
     27          6           0       -5.841295    2.693082   -0.678610
     28          6           0       -7.280211    3.245218   -0.684745
     29          6           0       -8.057397    2.028181   -0.110665
     30          6           0       -7.035947    0.905092   -0.121098
     31          6           0       -7.444680    4.639763    0.005771
     32          6           0       -9.400763    1.655357   -0.795619
     33          6           0       -9.308134    0.979557   -2.097578
     34          7           0       -5.057383   -1.320882    0.096497
     35          6           0       -6.319641   -1.470955    0.424790
     36          6           0       -6.630404   -2.856547    0.791116
     37          6           0       -5.326202   -3.446354    0.769411
     38          6           0       -4.412159   -2.484406    0.386239
     39          6           0       -7.908211   -3.555262    0.745480
     40          6           0       -4.634648   -4.707360    0.972476
     41          8           0       -5.064408   -5.816095    1.197141
     42          6           0       -3.153481   -4.351885    0.795265
     43          6           0       -2.329434   -4.716292    2.034648
     44          8           0       -2.296792   -4.062426    3.044569
     45          8           0       -1.710857   -5.926383    1.829501
     46          6           0       -0.884542   -6.344048    2.985503
     47          6           0        4.658973   -4.144508   -2.358512
     48          6           0        5.978892   -4.110101   -1.622909
     49          6           0        7.170674   -3.479375   -1.947994
     50          6           0        7.393041   -2.546932   -3.147322
     51          6           0        8.497950   -3.685611   -1.142522
     52          6           0        8.839580   -2.422039   -0.182032
     53          6           0        9.893423   -1.445870   -0.632932
     54          6           0        9.397785   -0.077254   -1.056449
     55          6           0        9.998677    0.417752   -2.391936
     56          6           0        9.642127    1.024371    0.034888
     57          6           0        8.331832    1.634077    0.392693
     58          6           0        8.415594    2.555511    1.588205
     59          6           0        7.497699    3.751265    1.526810
     60          6           0        8.285838    5.068224    1.593536
     61          6           0        6.270034    3.651342    2.470632
     62          6           0        4.993318    4.282625    1.929986
     63          6           0        3.754181    3.502031    2.302771
     64          6           0        2.803770    4.369141    3.218252
     65          6           0        1.975818    3.543118    4.238765
     66          6           0        1.904480    5.346369    2.354392
     67          1           0        0.439591    1.335179   -0.613491
     68          1           0       -5.094415    4.526749   -1.395590
     69          1           0       -8.354901   -0.391376    0.411595
     70          1           0       -0.388403   -2.980769    1.513809
     71          1           0        1.167183   -1.132788   -0.141552
     72          1           0       -0.038833    0.083379    2.358349
     73          1           0        1.520016   -0.171160    2.000214
     74          1           0        0.558184   -1.537809    2.644886
     75          1           0       -0.300090   -2.955442   -1.595144
     76          1           0       -0.745491   -4.334572   -0.673510
     77          1           0        1.370227   -4.936535   -0.197468
     78          1           0        1.867122   -3.220383   -0.039811
     79          1           0        0.985840    3.251164   -1.035662
     80          1           0        0.292228    4.926171   -0.687398
     81          1           0        0.352282    4.245420   -2.310548
     82          1           0       -0.837318    6.893090   -1.415633
     83          1           0       -1.718136    7.509532   -2.853270
     84          1           0       -0.807450    6.100738   -3.006183
     85          1           0       -7.382670    3.346805   -1.764793
     86          1           0       -8.220771    2.290784    0.934540
     87          1           0       -6.530016    5.226032   -0.075987
     88          1           0       -7.661126    4.492182    1.064148
     89          1           0       -8.225569    5.247839   -0.451379
     90          1           0       -9.859501    2.636834   -0.911272
     91          1           0      -10.032689    1.111951   -0.092872
     92          1           0       -9.156477   -0.088412   -1.941716
     93          1           0       -8.532753    1.427966   -2.718413
     94          1           0      -10.247777    1.027721   -2.648700
     95          1           0       -8.499922   -3.000938    0.016602
     96          1           0       -8.557106   -3.557699    1.621425
     97          1           0       -7.688293   -4.581282    0.452390
     98          1           0       -2.783937   -4.900232   -0.071880
     99          1           0       -0.938420   -7.429200    3.070879
    100          1           0       -1.259416   -6.063700    3.970097
    101          1           0        0.162840   -6.087650    2.829632
    102          1           0        4.548547   -3.116334   -2.704177
    103          1           0        4.652612   -4.748059   -3.266204
    104          1           0        6.032127   -4.678883   -0.695159
    105          1           0        8.440794   -2.358204   -3.381810
    106          1           0        6.888285   -1.624234   -2.860056
    107          1           0        6.838578   -2.926780   -4.006210
    108          1           0        9.336067   -4.022846   -1.752956
    109          1           0        8.311171   -4.415023   -0.354272
    110          1           0        9.156524   -2.831509    0.776693
    111          1           0        7.942178   -1.824649   -0.021684
    112          1           0       10.380634   -1.804072   -1.539603
    113          1           0       10.711777   -1.405014    0.085418
    114          1           0        8.317961   -0.111421   -1.203850
    115          1           0        9.184895    0.614908   -3.088490
    116          1           0       10.660881   -0.319165   -2.847478
    117          1           0       10.625016    1.307788   -2.328545
    118          1           0       10.278199    1.860190   -0.256014
    119          1           0       10.131826    0.471861    0.836288
    120          1           0        7.751075    0.779803    0.739859
    121          1           0        7.830240    2.037685   -0.487319
    122          1           0        9.465804    2.754889    1.800212
    123          1           0        8.160198    1.863431    2.391518
    124          1           0        7.057899    3.701314    0.530451
    125          1           0        7.986215    5.647530    0.719928
    126          1           0        9.359915    4.906042    1.688744
    127          1           0        8.066075    5.584644    2.527892
    128          1           0        6.614985    4.156529    3.373106
    129          1           0        6.061793    2.644909    2.833173
    130          1           0        4.896957    4.379155    0.848825
    131          1           0        4.967808    5.303527    2.312349
    132          1           0        3.954321    2.538886    2.772592
    133          1           0        3.240217    3.239096    1.378980
    134          1           0        3.483854    5.006030    3.784514
    135          1           0        2.303977    3.914973    5.209370
    136          1           0        2.344255    2.529450    4.077901
    137          1           0        0.911979    3.537728    4.005106
    138          1           0        2.393910    6.318196    2.417331
    139          1           0        0.877237    5.458115    2.701662
    140          1           0        1.818344    5.168360    1.282844
 ---------------------------------------------------------------------

 SCF Done:  E(RPBE1PBE) =  -3005.35068015     A.U. after   15 cycles

 Excitation energies and oscillator strengths:

 Excited State   1:      Singlet-A      1.8854 eV  657.59 nm  f=0.3758  <S**2>=0.000
     245 -> 248       -0.17990
     246 -> 247        0.69119
     246 <- 247       -0.10274
 This state for optimization and/or second-order correction.
 Total Energy, E(TD-HF/TD-DFT) =  -3005.28139191
 Copying the excited state density for this state as the 1-particle RhoCI density.

 Excited State   2:      Singlet-A      2.2475 eV  551.66 nm  f=0.1137  <S**2>=0.000
     245 -> 247        0.65594
     246 -> 248        0.25347

 Excited State   3:      Singlet-A      3.0890 eV  401.37 nm  f=0.0013  <S**2>=0.000
     241 -> 247        0.15418
     242 -> 247       -0.30664
     243 -> 247        0.60535

 Excited State   4:      Singlet-A      3.1398 eV  394.88 nm  f=0.0019  <S**2>=0.000
     240 -> 247        0.19478
     240 -> 249        0.12623
     241 -> 247        0.45558
     242 -> 247        0.44015
     243 -> 247        0.12099

 Excited State   5:      Singlet-A      3.1563 eV  392.82 nm  f=0.0032  <S**2>=0.000
     240 -> 247       -0.35569
     241 -> 247        0.44607
     241 -> 249       -0.15390
     242 -> 247       -0.23385
     243 -> 247       -0.27923

 The electronic state is 1-A.
 Alpha  occ. eigenvalues --  -46.92165 -19.26583 -19.26543 -19.20746 -19.20583
 Alpha  occ. eigenvalues --  -19.19549 -19.19166 -14.41644 -14.40787 -14.38885
 Alpha  occ. eigenvalues --  -14.38815 -10.37322 -10.36910 -10.33228 -10.31764
 Alpha  occ. eigenvalues --  -10.29905 -10.29176 -10.28776 -10.28592 -10.28267
 Alpha  occ. eigenvalues --  -10.27874 -10.27853 -10.27540 -10.27195 -10.26719
 Alpha  occ. eigenvalues --  -10.26703 -10.25868 -10.25782 -10.25689 -10.25670
 Alpha  occ. eigenvalues --  -10.25572 -10.25503 -10.25415 -10.25341 -10.25130
 Alpha  occ. eigenvalues --  -10.25042 -10.25011 -10.24728 -10.24323 -10.24302
 Alpha  occ. eigenvalues --  -10.23923 -10.23888 -10.23860 -10.23826 -10.23619
 Alpha  occ. eigenvalues --  -10.23543 -10.23521 -10.23454 -10.23307 -10.23121
 Alpha  occ. eigenvalues --  -10.23099 -10.22905 -10.22787 -10.22584 -10.22395
 Alpha  occ. eigenvalues --  -10.22345 -10.22217 -10.22201 -10.22130 -10.22015
 Alpha  occ. eigenvalues --  -10.21878 -10.21853 -10.21842 -10.21833 -10.21700
 Alpha  occ. eigenvalues --  -10.21416  -3.14304  -1.87131  -1.86694  -1.86514
 Alpha  occ. eigenvalues --   -1.11719  -1.11594  -1.05166  -1.05036  -1.03729
 Alpha  occ. eigenvalues --   -1.02163  -0.99826  -0.98444  -0.98022  -0.97066
 Alpha  occ. eigenvalues --   -0.88326  -0.85104  -0.83990  -0.83760  -0.83659
 Alpha  occ. eigenvalues --   -0.82839  -0.82804  -0.81802  -0.81788  -0.81594
 Alpha  occ. eigenvalues --   -0.80678  -0.79929  -0.78867  -0.78068  -0.77798
 Alpha  occ. eigenvalues --   -0.76878  -0.76349  -0.75599  -0.75229  -0.74803
 Alpha  occ. eigenvalues --   -0.74502  -0.72805  -0.72280  -0.71969  -0.70902
 Alpha  occ. eigenvalues --   -0.70181  -0.69737  -0.69600  -0.69247  -0.68701
 Alpha  occ. eigenvalues --   -0.67607  -0.66916  -0.66265  -0.64924  -0.64264
 Alpha  occ. eigenvalues --   -0.63459  -0.62329  -0.61716  -0.61005  -0.60337
 Alpha  occ. eigenvalues --   -0.59744  -0.59420  -0.59022  -0.58758  -0.58689
 Alpha  occ. eigenvalues --   -0.58376  -0.57770  -0.57546  -0.57191  -0.54789
 Alpha  occ. eigenvalues --   -0.54445  -0.54103  -0.53702  -0.53160  -0.53046
 Alpha  occ. eigenvalues --   -0.52002  -0.51932  -0.51062  -0.50712  -0.50231
 Alpha  occ. eigenvalues --   -0.50119  -0.49736  -0.49337  -0.49313  -0.49128
 Alpha  occ. eigenvalues --   -0.48527  -0.48228  -0.47915  -0.47897  -0.47640
 Alpha  occ. eigenvalues --   -0.47320  -0.46999  -0.46803  -0.46607  -0.46524
 Alpha  occ. eigenvalues --   -0.46361  -0.46053  -0.45775  -0.45491  -0.45433
 Alpha  occ. eigenvalues --   -0.44871  -0.44810  -0.44516  -0.44398  -0.44231
 Alpha  occ. eigenvalues --   -0.44133  -0.44042  -0.43658  -0.43553  -0.43476
 Alpha  occ. eigenvalues --   -0.43435  -0.42998  -0.42940  -0.42601  -0.42508
 Alpha  occ. eigenvalues --   -0.42385  -0.42030  -0.41813  -0.41630  -0.41582
 Alpha  occ. eigenvalues --   -0.41298  -0.41051  -0.40793  -0.40737  -0.40587
 Alpha  occ. eigenvalues --   -0.40264  -0.40204  -0.39876  -0.39775  -0.39672
 Alpha  occ. eigenvalues --   -0.39510  -0.39428  -0.39280  -0.39158  -0.38737
 Alpha  occ. eigenvalues --   -0.38630  -0.38499  -0.38279  -0.38152  -0.38030
 Alpha  occ. eigenvalues --   -0.37959  -0.37713  -0.37494  -0.37465  -0.37381
 Alpha  occ. eigenvalues --   -0.37234  -0.37130  -0.36835  -0.36720  -0.36318
 Alpha  occ. eigenvalues --   -0.36171  -0.35652  -0.35579  -0.35265  -0.35177
 Alpha  occ. eigenvalues --   -0.34596  -0.34361  -0.33883  -0.33712  -0.33664
 Alpha  occ. eigenvalues --   -0.33498  -0.32934  -0.32861  -0.32499  -0.32385
 Alpha  occ. eigenvalues --   -0.32294  -0.32241  -0.31923  -0.31865  -0.31740
 Alpha  occ. eigenvalues --   -0.31552  -0.30626  -0.30393  -0.29904  -0.29602
 Alpha  occ. eigenvalues --   -0.29071  -0.28784  -0.28629  -0.27007  -0.25926
 Alpha  occ. eigenvalues --   -0.25797  -0.25580  -0.25026  -0.24670  -0.20765
 Alpha  occ. eigenvalues --   -0.18720
 Alpha virt. eigenvalues --   -0.10941  -0.04901  -0.03837  -0.02148  -0.00532
 Alpha virt. eigenvalues --   -0.00488   0.00462   0.00769   0.01629   0.03114
 Alpha virt. eigenvalues --    0.03585   0.04498   0.04793   0.05122   0.05343

 Mulliken charges:
               1
     1  Mg   0.984783
     2  C   -0.009966
     3  C   -0.062380
     4  C   -0.086349
     5  C   -0.041142
     6  N   -0.319764
     7  C   -0.005128
     8  C   -0.119271
     9  C   -0.149801
    10  C    0.056962
    11  C    0.002786
    12  C    0.023449
    13  C   -0.036158
    14  C    0.250869
    15  O   -0.282160
    16  O   -0.366866
    17  N   -0.503916
    18  C    0.186116
    19  C   -0.183930
    20  C   -0.082692
    21  C    0.153261
    22  C    0.047954
    23  C    0.088519
    24  O   -0.240337
    25  C   -0.033947
    26  N   -0.435169
    27  C    0.082305
    28  C   -0.133288
    29  C   -0.061565
    30  C    0.000687
    31  C    0.023446
    32  C   -0.037561
    33  C   -0.033892
    34  N   -0.452465
    35  C    0.157867
    36  C   -0.151778
    37  C   -0.077495
    38  C    0.170935
    39  C    0.056244
    40  C    0.137074
    41  O   -0.197702
    42  C   -0.112306
    43  C    0.285253
    44  O   -0.232787
    45  O   -0.362252
    46  C    0.108038
    47  C    0.258671
    48  C   -0.131977
    49  C   -0.242301
    50  C    0.008006
    51  C    0.007300
    52  C   -0.062816
    53  C    0.038586
    54  C   -0.260277
    55  C   -0.004711
    56  C    0.009547
    57  C   -0.104964
    58  C    0.044501
    59  C   -0.217127
    60  C    0.012457
    61  C    0.006752
    62  C   -0.037584
    63  C   -0.020696
    64  C   -0.276473
    65  C    0.012445
    66  C   -0.031578
    67  H   -0.005448
    68  H    0.031882
    69  H   -0.008715
    70  H    0.062445
    71  H    0.053409
    72  H    0.050360
    73  H    0.032476
    74  H    0.055145
    75  H    0.044506
    76  H    0.044763
    77  H    0.078019
    78  H    0.063610
    79  H    0.049574
    80  H    0.064064
    81  H    0.055724
    82  H    0.063454
    83  H    0.054957
    84  H    0.048329
    85  H    0.053344
    86  H    0.053865
    87  H    0.055179
    88  H    0.037445
    89  H    0.045144
    90  H    0.032109
    91  H    0.041181
    92  H    0.039981
    93  H    0.041870
    94  H    0.040929
    95  H    0.038428
    96  H    0.047616
    97  H    0.069404
    98  H    0.087161
    99  H    0.054696
   100  H    0.073570
   101  H    0.059714
   102  H    0.040666
   103  H    0.075211
   104  H    0.030209
   105  H    0.051771
   106  H    0.060469
   107  H    0.049913
   108  H    0.052461
   109  H    0.025978
   110  H    0.033006
   111  H    0.039605
   112  H    0.004639
   113  H    0.026454
   114  H    0.037657
   115  H    0.034199
   116  H    0.021825
   117  H    0.032696
   118  H    0.030149
   119  H    0.017309
   120  H    0.024268
   121  H    0.033868
   122  H    0.017338
   123  H    0.011195
   124  H    0.031035
   125  H    0.044521
   126  H    0.032330
   127  H    0.022853
   128  H    0.019960
   129  H    0.022490
   130  H    0.024735
   131  H    0.033630
   132  H    0.024825
   133  H    0.021603
   134  H    0.040889
   135  H    0.046395
   136  H    0.019514
   137  H    0.043882
   138  H    0.031181
   139  H    0.038003
   140  H    0.028837
 Sum of Mulliken charges =  -0.00000

 Dipole moment (field-independent basis, Debye):
    X=              3.8857    Y=              2.6002    Z=              0.0105  Tot=              4.6754
 Quadrupole moment (field-independent basis, Debye-Ang):
   XX=           -364.2209   YY=           -423.8638   ZZ=           -411.5980
   XY=            -18.0033   XZ=              8.5453   YZ=             -1.3382

 Normal termination of Gaussian 16 at Fri Apr 29 04:52:29 2022.
