 Gaussian 16, Revision A.03,
 Gaussian 16:  ES64L-G16RevA.03 25-Dec-2016

 --------------------------------
 #p wB97XD/Def2SVP td=(nstates=5)
 --------------------------------

 --------------------------------------------------
 step_1_chromophore_12 TDDFT with wB97XD functional
 --------------------------------------------------
 Symbolic Z-matrix:
 Charge =  0 Multiplicity = 1

                         Standard orientation:
 ---------------------------------------------------------------------
 Center     Atomic      Atomic             Coordinates (Angstroms)
 Number     Number       Type             X           Y           Z
 ---------------------------------------------------------------------
      1         12           0       -4.034178    0.302464   -0.630674
      2          6           0       -3.106959   -2.907249    0.387657
      3          6           0       -0.627674    1.126305   -0.523704
      4          6           0       -4.786519    3.535473   -1.055670
      5          6           0       -7.267672   -0.397760    0.316693
      6          7           0       -2.012519   -0.808251   -0.220035
      7          6           0       -1.990593   -2.091057    0.229808
      8          6           0       -0.506951   -2.551802    0.518478
      9          6           0        0.255411   -1.133299    0.457052
     10          6           0       -0.835981   -0.191150   -0.078145
     11          6           0        0.575028   -0.711029    1.935069
     12          6           0       -0.065616   -3.482167   -0.670508
     13          6           0        1.410320   -3.964886   -0.690674
     14          6           0        2.366139   -4.027847   -1.844711
     15          8           0        2.123624   -3.840506   -3.053851
     16          8           0        3.611932   -4.361107   -1.368435
     17          7           0       -2.860866    2.002211   -0.961754
     18          6           0       -1.466638    2.170903   -0.924847
     19          6           0       -1.190784    3.521848   -1.181305
     20          6           0       -2.357485    4.192842   -1.522509
     21          6           0       -3.403453    3.238682   -1.193114
     22          6           0        0.222897    3.998128   -1.256526
     23          6           0       -2.595269    5.674193   -1.965502
     24          8           0       -3.686298    6.151953   -2.257631
     25          6           0       -1.436669    6.622799   -2.285082
     26          7           0       -5.757093    1.403678   -0.281637
     27          6           0       -5.841295    2.693082   -0.678610
     28          6           0       -7.280211    3.245218   -0.684745
     29          6           0       -8.057397    2.028181   -0.110665
     30          6           0       -7.035947    0.905092   -0.121098
     31          6           0       -7.444680    4.639763    0.005771
     32          6           0       -9.400763    1.655357   -0.795619
     33          6           0       -9.308134    0.979557   -2.097578
     34          7           0       -5.057383   -1.320882    0.096497
     35          6           0       -6.319641   -1.470955    0.424790
     36          6           0       -6.630404   -2.856547    0.791116
     37          6           0       -5.326202   -3.446354    0.769411
     38          6           0       -4.412159   -2.484406    0.386239
     39          6           0       -7.908211   -3.555262    0.745480
     40          6           0       -4.634648   -4.707360    0.972476
     41          8           0       -5.064408   -5.816095    1.197141
     42          6           0       -3.153481   -4.351885    0.795265
     43          6           0       -2.329434   -4.716292    2.034648
     44          8           0       -2.296792   -4.062426    3.044569
     45          8           0       -1.710857   -5.926383    1.829501
     46          6           0       -0.884542   -6.344048    2.985503
     47          6           0        4.658973   -4.144508   -2.358512
     48          6           0        5.978892   -4.110101   -1.622909
     49          6           0        7.170674   -3.479375   -1.947994
     50          6           0        7.393041   -2.546932   -3.147322
     51          6           0        8.497950   -3.685611   -1.142522
     52          6           0        8.839580   -2.422039   -0.182032
     53          6           0        9.893423   -1.445870   -0.632932
     54          6           0        9.397785   -0.077254   -1.056449
     55          6           0        9.998677    0.417752   -2.391936
     56          6           0        9.642127    1.024371    0.034888
     57          6           0        8.331832    1.634077    0.392693
     58          6           0        8.415594    2.555511    1.588205
     59          6           0        7.497699    3.751265    1.526810
     60          6           0        8.285838    5.068224    1.593536
     61          6           0        6.270034    3.651342    2.470632
     62          6           0        4.993318    4.282625    1.929986
     63          6           0        3.754181    3.502031    2.302771
     64          6           0        2.803770    4.369141    3.218252
     65          6           0        1.975818    3.543118    4.238765
     66          6           0        1.904480    5.346369    2.354392
     67          1           0        0.439591    1.335179   -0.613491
     68          1           0       -5.094415    4.526749   -1.395590
     69          1           0       -8.354901   -0.391376    0.411595
     70          1           0       -0.388403   -2.980769    1.513809
     71          1           0        1.167183   -1.132788   -0.141552
     72          1           0       -0.038833    0.083379    2.358349
     73          1           0        1.520016   -0.171160    2.000214
     74          1           0        0.558184   -1.537809    2.644886
     75          1           0       -0.300090   -2.955442   -1.595144
     76          1           0       -0.745491   -4.334572   -0.673510
     77          1           0        1.370227   -4.936535   -0.197468
     78          1           0        1.867122   -3.220383   -0.039811
     79          1           0        0.985840    3.251164   -1.035662
     80          1           0        0.292228    4.926171   -0.687398
     81          1           0        0.352282    4.245420   -2.310548
     82          1           0       -0.837318    6.893090   -1.415633
     83          1           0       -1.718136    7.509532   -2.853270
     84          1           0       -0.807450    6.100738   -3.006183
     85          1           0       -7.382670    3.346805   -1.764793
     86          1           0       -8.220771    2.290784    0.934540
     87          1           0       -6.530016    5.226032   -0.075987
     88          1           0       -7.661126    4.492182    1.064148
     89          1           0       -8.225569    5.247839   -0.451379
     90          1           0       -9.859501    2.636834   -0.911272
     91          1           0      -10.032689    1.111951   -0.092872
     92          1           0       -9.156477   -0.088412   -1.941716
     93          1           0       -8.532753    1.427966   -2.718413
     94          1           0      -10.247777    1.027721   -2.648700
     95          1           0       -8.499922   -3.000938    0.016602
     96          1           0       -8.557106   -3.557699    1.621425
     97          1           0       -7.688293   -4.581282    0.452390
     98          1           0       -2.783937   -4.900232   -0.071880
     99          1           0       -0.938420   -7.429200    3.070879
    100          1           0       -1.259416   -6.063700    3.970097
    101          1           0        0.162840   -6.087650    2.829632
    102          1           0        4.548547   -3.116334   -2.704177
    103          1           0        4.652612   -4.748059   -3.266204
    104          1           0        6.032127   -4.678883   -0.695159
    105          1           0        8.440794   -2.358204   -3.381810
    106          1           0        6.888285   -1.624234   -2.860056
    107          1           0        6.838578   -2.926780   -4.006210
    108          1           0        9.336067   -4.022846   -1.752956
    109          1           0        8.311171   -4.415023   -0.354272
    110          1           0        9.156524   -2.831509    0.776693
    111          1           0        7.942178   -1.824649   -0.021684
    112          1           0       10.380634   -1.804072   -1.539603
    113          1           0       10.711777   -1.405014    0.085418
    114          1           0        8.317961   -0.111421   -1.203850
    115          1           0        9.184895    0.614908   -3.088490
    116          1           0       10.660881   -0.319165   -2.847478
    117          1           0       10.625016    1.307788   -2.328545
    118          1           0       10.278199    1.860190   -0.256014
    119          1           0       10.131826    0.471861    0.836288
    120          1           0        7.751075    0.779803    0.739859
    121          1           0        7.830240    2.037685   -0.487319
    122          1           0        9.465804    2.754889    1.800212
    123          1           0        8.160198    1.863431    2.391518
    124          1           0        7.057899    3.701314    0.530451
    125          1           0        7.986215    5.647530    0.719928
    126          1           0        9.359915    4.906042    1.688744
    127          1           0        8.066075    5.584644    2.527892
    128          1           0        6.614985    4.156529    3.373106
    129          1           0        6.061793    2.644909    2.833173
    130          1           0        4.896957    4.379155    0.848825
    131          1           0        4.967808    5.303527    2.312349
    132          1           0        3.954321    2.538886    2.772592
    133          1           0        3.240217    3.239096    1.378980
    134          1           0        3.483854    5.006030    3.784514
    135          1           0        2.303977    3.914973    5.209370
    136          1           0        2.344255    2.529450    4.077901
    137          1           0        0.911979    3.537728    4.005106
    138          1           0        2.393910    6.318196    2.417331
    139          1           0        0.877237    5.458115    2.701662
    140          1           0        1.818344    5.168360    1.282844
 ---------------------------------------------------------------------

 SCF Done:  E(RwB97XD) =  -3007.86072601     A.U. after   19 cycles

 Excitation energies and oscillator strengths:

 Excited State   1:      Singlet-A      1.6951 eV  731.44 nm  f=0.3844  <S**2>=0.000
     245 -> 248       -0.19060
     246 -> 247        0.68139
     245 <- 248       -0.11519
 This state for optimization and/or second-order correction.
 Total Energy, E(TD-HF/TD-DFT) =  -3007.79843324
 Copying the excited state density for this state as the 1-particle RhoCI density.

 Excited State   2:      Singlet-A      2.2124 eV  560.41 nm  f=0.1182  <S**2>=0.000
     245 -> 247        0.64274
     246 -> 248        0.27786

 Excited State   3:      Singlet-A      3.4486 eV  359.52 nm  f=0.0506  <S**2>=0.000
     242 -> 247        0.54996
     244 -> 247       -0.31170
     246 -> 248       -0.24115

 Excited State   4:      Singlet-A      3.5572 eV  348.54 nm  f=0.0995  <S**2>=0.000
     241 -> 247        0.12946
     242 -> 247        0.11501
     244 -> 247        0.54319
     245 -> 247        0.10389
     246 -> 248       -0.35754

 Excited State   5:      Singlet-A      3.6721 eV  337.64 nm  f=0.3512  <S**2>=0.000
     240 -> 247        0.37935
     240 -> 249        0.24670
     240 -> 250       -0.18317
     242 -> 247        0.19545
     244 -> 247        0.13998
     245 -> 247       -0.18540
     246 -> 248        0.34787

 The electronic state is 1-A.
 Alpha  occ. eigenvalues --  -46.95088 -19.31141 -19.31117 -19.25450 -19.25245
 Alpha  occ. eigenvalues --  -19.24516 -19.23897 -14.46933 -14.45649 -14.43817
 Alpha  occ. eigenvalues --  -14.43731 -10.44105 -10.43739 -10.40218 -10.38540
 Alpha  occ. eigenvalues --  -10.36404 -10.35673 -10.35221 -10.34718 -10.34663
 Alpha  occ. eigenvalues --  -10.34498 -10.33972 -10.33784 -10.33606 -10.33019
 Alpha  occ. eigenvalues --  -10.32935 -10.32618 -10.32228 -10.32086 -10.31988
 Alpha  occ. eigenvalues --  -10.31802 -10.31707 -10.31698 -10.31605 -10.31542
 Alpha  occ. eigenvalues --  -10.31431 -10.31397 -10.31186 -10.31053 -10.30683
 Alpha  occ. eigenvalues --  -10.30333 -10.30264 -10.30149 -10.30101 -10.30101
 Alpha  occ. eigenvalues --  -10.30006 -10.29889 -10.29879 -10.29689 -10.29390
 Alpha  occ. eigenvalues --  -10.29359 -10.29119 -10.29106 -10.28921 -10.28800
 Alpha  occ. eigenvalues --  -10.28756 -10.28646 -10.28636 -10.28399 -10.28347
 Alpha  occ. eigenvalues --  -10.28346 -10.28320 -10.28277 -10.28231 -10.28104
 Alpha  occ. eigenvalues --  -10.27812  -3.21092  -1.94666  -1.94230  -1.94048
 Alpha  occ. eigenvalues --   -1.19110  -1.18976  -1.12671  -1.12555  -1.11082
 Alpha  occ. eigenvalues --   -1.09515  -1.07009  -1.05882  -1.05395  -1.04544
 Alpha  occ. eigenvalues --   -0.95864  -0.92787  -0.91689  -0.91336  -0.91299
 Alpha  occ. eigenvalues --   -0.90549  -0.90504  -0.89524  -0.89486  -0.89181
 Alpha  occ. eigenvalues --   -0.88145  -0.87603  -0.86556  -0.85610  -0.85427
 Alpha  occ. eigenvalues --   -0.84544  -0.83984  -0.83321  -0.82968  -0.82487
 Alpha  occ. eigenvalues --   -0.82183  -0.80549  -0.79931  -0.79549  -0.78466
 Alpha  occ. eigenvalues --   -0.77888  -0.77505  -0.77183  -0.76962  -0.76395
 Alpha  occ. eigenvalues --   -0.75183  -0.74431  -0.73814  -0.72564  -0.71752
 Alpha  occ. eigenvalues --   -0.70921  -0.69978  -0.69358  -0.68669  -0.67885
 Alpha  occ. eigenvalues --   -0.67241  -0.67121  -0.66469  -0.66455  -0.66056
 Alpha  occ. eigenvalues --   -0.65858  -0.65481  -0.65216  -0.64561  -0.62316
 Alpha  occ. eigenvalues --   -0.61989  -0.61509  -0.61101  -0.60668  -0.60412
 Alpha  occ. eigenvalues --   -0.59452  -0.59415  -0.58461  -0.58124  -0.57621
 Alpha  occ. eigenvalues --   -0.57473  -0.57172  -0.56819  -0.56673  -0.56481
 Alpha  occ. eigenvalues --   -0.55915  -0.55699  -0.55354  -0.55263  -0.55169
 Alpha  occ. eigenvalues --   -0.54616  -0.54557  -0.54237  -0.54022  -0.53934
 Alpha  occ. eigenvalues --   -0.53669  -0.53406  -0.53120  -0.52871  -0.52541
 Alpha  occ. eigenvalues --   -0.52341  -0.52198  -0.51871  -0.51709  -0.51671
 Alpha  occ. eigenvalues --   -0.51466  -0.51376  -0.50985  -0.50881  -0.50804
 Alpha  occ. eigenvalues --   -0.50784  -0.50489  -0.50254  -0.49939  -0.49833
 Alpha  occ. eigenvalues --   -0.49722  -0.49260  -0.49107  -0.48914  -0.48873
 Alpha  occ. eigenvalues --   -0.48560  -0.48352  -0.48013  -0.47915  -0.47671
 Alpha  occ. eigenvalues --   -0.47420  -0.47341  -0.47045  -0.46906  -0.46879
 Alpha  occ. eigenvalues --   -0.46738  -0.46634  -0.46444  -0.46187  -0.45829
 Alpha  occ. eigenvalues --   -0.45716  -0.45690  -0.45417  -0.45293  -0.45193
 Alpha  occ. eigenvalues --   -0.45127  -0.44858  -0.44658  -0.44611  -0.44458
 Alpha  occ. eigenvalues --   -0.44401  -0.44336  -0.43866  -0.43695  -0.43391
 Alpha  occ. eigenvalues --   -0.43288  -0.42734  -0.42671  -0.42414  -0.42206
 Alpha  occ. eigenvalues --   -0.41542  -0.41437  -0.40785  -0.40763  -0.40625
 Alpha  occ. eigenvalues --   -0.40611  -0.39974  -0.39764  -0.39569  -0.39479
 Alpha  occ. eigenvalues --   -0.39371  -0.39317  -0.38943  -0.38886  -0.38824
 Alpha  occ. eigenvalues --   -0.38421  -0.37669  -0.37412  -0.37000  -0.36387
 Alpha  occ. eigenvalues --   -0.36168  -0.35526  -0.35449  -0.33667  -0.33127
 Alpha  occ. eigenvalues --   -0.32824  -0.32303  -0.31420  -0.31361  -0.25766
 Alpha  occ. eigenvalues --   -0.22949
 Alpha virt. eigenvalues --   -0.06761   0.00545   0.02444   0.04329   0.05464
 Alpha virt. eigenvalues --    0.06296   0.07276   0.07529   0.08404   0.09551
 Alpha virt. eigenvalues --    0.10305   0.10895   0.11625   0.11854   0.12106

 Mulliken charges:
               1
     1  Mg   0.975706
     2  C   -0.007298
     3  C   -0.072164
     4  C   -0.111226
     5  C   -0.060282
     6  N   -0.281958
     7  C   -0.044779
     8  C   -0.089169
     9  C   -0.123255
    10  C    0.039854
    11  C    0.008859
    12  C    0.035386
    13  C   -0.019468
    14  C    0.244462
    15  O   -0.279947
    16  O   -0.366847
    17  N   -0.474907
    18  C    0.176546
    19  C   -0.163471
    20  C   -0.081520
    21  C    0.151692
    22  C    0.063155
    23  C    0.085784
    24  O   -0.233549
    25  C   -0.022528
    26  N   -0.406330
    27  C    0.075952
    28  C   -0.112225
    29  C   -0.035735
    30  C   -0.009981
    31  C    0.035540
    32  C   -0.020920
    33  C   -0.015472
    34  N   -0.411489
    35  C    0.152365
    36  C   -0.156990
    37  C   -0.070397
    38  C    0.150980
    39  C    0.070471
    40  C    0.116816
    41  O   -0.187182
    42  C   -0.075256
    43  C    0.262824
    44  O   -0.227153
    45  O   -0.360985
    46  C    0.124129
    47  C    0.273755
    48  C   -0.142023
    49  C   -0.227238
    50  C    0.019522
    51  C    0.025529
    52  C   -0.045436
    53  C    0.053310
    54  C   -0.224435
    55  C    0.007076
    56  C    0.020999
    57  C   -0.076983
    58  C    0.055279
    59  C   -0.181782
    60  C    0.023511
    61  C    0.022327
    62  C   -0.022515
    63  C   -0.003284
    64  C   -0.245753
    65  C    0.026432
    66  C   -0.016257
    67  H   -0.012808
    68  H    0.022639
    69  H   -0.019246
    70  H    0.047664
    71  H    0.044952
    72  H    0.044289
    73  H    0.026981
    74  H    0.050785
    75  H    0.036970
    76  H    0.031938
    77  H    0.073604
    78  H    0.053038
    79  H    0.046669
    80  H    0.055827
    81  H    0.050189
    82  H    0.059875
    83  H    0.054756
    84  H    0.041574
    85  H    0.041381
    86  H    0.042862
    87  H    0.049015
    88  H    0.031769
    89  H    0.040273
    90  H    0.022829
    91  H    0.034926
    92  H    0.032166
    93  H    0.033044
    94  H    0.035595
    95  H    0.029853
    96  H    0.041919
    97  H    0.064254
    98  H    0.079972
    99  H    0.050767
   100  H    0.069682
   101  H    0.055523
   102  H    0.032581
   103  H    0.071840
   104  H    0.026989
   105  H    0.045627
   106  H    0.053815
   107  H    0.045408
   108  H    0.046701
   109  H    0.018460
   110  H    0.027277
   111  H    0.026443
   112  H   -0.008872
   113  H    0.019678
   114  H    0.016852
   115  H    0.028643
   116  H    0.015670
   117  H    0.027020
   118  H    0.020111
   119  H    0.007293
   120  H    0.010862
   121  H    0.023828
   122  H    0.007699
   123  H    0.002437
   124  H    0.012796
   125  H    0.039845
   126  H    0.026672
   127  H    0.016177
   128  H    0.010146
   129  H    0.012276
   130  H    0.017499
   131  H    0.023735
   132  H    0.014372
   133  H    0.011253
   134  H    0.027442
   135  H    0.041724
   136  H    0.011897
   137  H    0.038309
   138  H    0.025286
   139  H    0.032399
   140  H    0.016210
 Sum of Mulliken charges =  -0.00000

 Dipole moment (field-independent basis, Debye):
    X=              4.4221    Y=              2.9895    Z=             -0.1158  Tot=              5.3390
 Quadrupole moment (field-independent basis, Debye-Ang):
   XX=           -367.9337   YY=           -421.9167   ZZ=           -411.0640
   XY=            -18.7334   XZ=              8.8726   YZ=             -1.8671

 Normal termination of Gaussian 16 at Fri Apr 29 05:23:44 2022.
