 Gaussian 16, Revision A.03,
 Gaussian 16:  ES64L-G16RevA.03 25-Dec-2016

 --------------------
 #p ZINDO=(nstates=5)
 --------------------

 ---------------------------
 step_1_chromophore_12 ZINDO
 ---------------------------
 Symbolic Z-matrix:
 Charge =  0 Multiplicity = 1

                         Standard orientation:
 ---------------------------------------------------------------------
 Center     Atomic      Atomic             Coordinates (Angstroms)
 Number     Number       Type             X           Y           Z
 ---------------------------------------------------------------------
      1         12           0       -4.034178    0.302464   -0.630674
      2          6           0       -3.106959   -2.907249    0.387657
      3          6           0       -0.627674    1.126305   -0.523704
      4          6           0       -4.786519    3.535473   -1.055670
      5          6           0       -7.267672   -0.397760    0.316693
      6          7           0       -2.012519   -0.808251   -0.220035
      7          6           0       -1.990593   -2.091057    0.229808
      8          6           0       -0.506951   -2.551802    0.518478
      9          6           0        0.255411   -1.133299    0.457052
     10          6           0       -0.835981   -0.191150   -0.078145
     11          6           0        0.575028   -0.711029    1.935069
     12          6           0       -0.065616   -3.482167   -0.670508
     13          6           0        1.410320   -3.964886   -0.690674
     14          6           0        2.366139   -4.027847   -1.844711
     15          8           0        2.123624   -3.840506   -3.053851
     16          8           0        3.611932   -4.361107   -1.368435
     17          7           0       -2.860866    2.002211   -0.961754
     18          6           0       -1.466638    2.170903   -0.924847
     19          6           0       -1.190784    3.521848   -1.181305
     20          6           0       -2.357485    4.192842   -1.522509
     21          6           0       -3.403453    3.238682   -1.193114
     22          6           0        0.222897    3.998128   -1.256526
     23          6           0       -2.595269    5.674193   -1.965502
     24          8           0       -3.686298    6.151953   -2.257631
     25          6           0       -1.436669    6.622799   -2.285082
     26          7           0       -5.757093    1.403678   -0.281637
     27          6           0       -5.841295    2.693082   -0.678610
     28          6           0       -7.280211    3.245218   -0.684745
     29          6           0       -8.057397    2.028181   -0.110665
     30          6           0       -7.035947    0.905092   -0.121098
     31          6           0       -7.444680    4.639763    0.005771
     32          6           0       -9.400763    1.655357   -0.795619
     33          6           0       -9.308134    0.979557   -2.097578
     34          7           0       -5.057383   -1.320882    0.096497
     35          6           0       -6.319641   -1.470955    0.424790
     36          6           0       -6.630404   -2.856547    0.791116
     37          6           0       -5.326202   -3.446354    0.769411
     38          6           0       -4.412159   -2.484406    0.386239
     39          6           0       -7.908211   -3.555262    0.745480
     40          6           0       -4.634648   -4.707360    0.972476
     41          8           0       -5.064408   -5.816095    1.197141
     42          6           0       -3.153481   -4.351885    0.795265
     43          6           0       -2.329434   -4.716292    2.034648
     44          8           0       -2.296792   -4.062426    3.044569
     45          8           0       -1.710857   -5.926383    1.829501
     46          6           0       -0.884542   -6.344048    2.985503
     47          6           0        4.658973   -4.144508   -2.358512
     48          6           0        5.978892   -4.110101   -1.622909
     49          6           0        7.170674   -3.479375   -1.947994
     50          6           0        7.393041   -2.546932   -3.147322
     51          6           0        8.497950   -3.685611   -1.142522
     52          6           0        8.839580   -2.422039   -0.182032
     53          6           0        9.893423   -1.445870   -0.632932
     54          6           0        9.397785   -0.077254   -1.056449
     55          6           0        9.998677    0.417752   -2.391936
     56          6           0        9.642127    1.024371    0.034888
     57          6           0        8.331832    1.634077    0.392693
     58          6           0        8.415594    2.555511    1.588205
     59          6           0        7.497699    3.751265    1.526810
     60          6           0        8.285838    5.068224    1.593536
     61          6           0        6.270034    3.651342    2.470632
     62          6           0        4.993318    4.282625    1.929986
     63          6           0        3.754181    3.502031    2.302771
     64          6           0        2.803770    4.369141    3.218252
     65          6           0        1.975818    3.543118    4.238765
     66          6           0        1.904480    5.346369    2.354392
     67          1           0        0.439591    1.335179   -0.613491
     68          1           0       -5.094415    4.526749   -1.395590
     69          1           0       -8.354901   -0.391376    0.411595
     70          1           0       -0.388403   -2.980769    1.513809
     71          1           0        1.167183   -1.132788   -0.141552
     72          1           0       -0.038833    0.083379    2.358349
     73          1           0        1.520016   -0.171160    2.000214
     74          1           0        0.558184   -1.537809    2.644886
     75          1           0       -0.300090   -2.955442   -1.595144
     76          1           0       -0.745491   -4.334572   -0.673510
     77          1           0        1.370227   -4.936535   -0.197468
     78          1           0        1.867122   -3.220383   -0.039811
     79          1           0        0.985840    3.251164   -1.035662
     80          1           0        0.292228    4.926171   -0.687398
     81          1           0        0.352282    4.245420   -2.310548
     82          1           0       -0.837318    6.893090   -1.415633
     83          1           0       -1.718136    7.509532   -2.853270
     84          1           0       -0.807450    6.100738   -3.006183
     85          1           0       -7.382670    3.346805   -1.764793
     86          1           0       -8.220771    2.290784    0.934540
     87          1           0       -6.530016    5.226032   -0.075987
     88          1           0       -7.661126    4.492182    1.064148
     89          1           0       -8.225569    5.247839   -0.451379
     90          1           0       -9.859501    2.636834   -0.911272
     91          1           0      -10.032689    1.111951   -0.092872
     92          1           0       -9.156477   -0.088412   -1.941716
     93          1           0       -8.532753    1.427966   -2.718413
     94          1           0      -10.247777    1.027721   -2.648700
     95          1           0       -8.499922   -3.000938    0.016602
     96          1           0       -8.557106   -3.557699    1.621425
     97          1           0       -7.688293   -4.581282    0.452390
     98          1           0       -2.783937   -4.900232   -0.071880
     99          1           0       -0.938420   -7.429200    3.070879
    100          1           0       -1.259416   -6.063700    3.970097
    101          1           0        0.162840   -6.087650    2.829632
    102          1           0        4.548547   -3.116334   -2.704177
    103          1           0        4.652612   -4.748059   -3.266204
    104          1           0        6.032127   -4.678883   -0.695159
    105          1           0        8.440794   -2.358204   -3.381810
    106          1           0        6.888285   -1.624234   -2.860056
    107          1           0        6.838578   -2.926780   -4.006210
    108          1           0        9.336067   -4.022846   -1.752956
    109          1           0        8.311171   -4.415023   -0.354272
    110          1           0        9.156524   -2.831509    0.776693
    111          1           0        7.942178   -1.824649   -0.021684
    112          1           0       10.380634   -1.804072   -1.539603
    113          1           0       10.711777   -1.405014    0.085418
    114          1           0        8.317961   -0.111421   -1.203850
    115          1           0        9.184895    0.614908   -3.088490
    116          1           0       10.660881   -0.319165   -2.847478
    117          1           0       10.625016    1.307788   -2.328545
    118          1           0       10.278199    1.860190   -0.256014
    119          1           0       10.131826    0.471861    0.836288
    120          1           0        7.751075    0.779803    0.739859
    121          1           0        7.830240    2.037685   -0.487319
    122          1           0        9.465804    2.754889    1.800212
    123          1           0        8.160198    1.863431    2.391518
    124          1           0        7.057899    3.701314    0.530451
    125          1           0        7.986215    5.647530    0.719928
    126          1           0        9.359915    4.906042    1.688744
    127          1           0        8.066075    5.584644    2.527892
    128          1           0        6.614985    4.156529    3.373106
    129          1           0        6.061793    2.644909    2.833173
    130          1           0        4.896957    4.379155    0.848825
    131          1           0        4.967808    5.303527    2.312349
    132          1           0        3.954321    2.538886    2.772592
    133          1           0        3.240217    3.239096    1.378980
    134          1           0        3.483854    5.006030    3.784514
    135          1           0        2.303977    3.914973    5.209370
    136          1           0        2.344255    2.529450    4.077901
    137          1           0        0.911979    3.537728    4.005106
    138          1           0        2.393910    6.318196    2.417331
    139          1           0        0.877237    5.458115    2.701662
    140          1           0        1.818344    5.168360    1.282844
 ---------------------------------------------------------------------

 SCF Done:  E(RZINDO/S) =  -474.531630795     A.U. after   19 cycles

 Excitation energies and oscillator strengths:

 Excited State   1:      Singlet-A      1.2862 eV  963.95 nm  f=0.5681  <S**2>=0.000
     175 ->178        -0.18254
     176 ->177         0.66466
 This state for optimization and/or second-order correction.
 Total Energy, E(CIS/TDA) =  -474.484363247
 Copying the excited state density for this state as the 1-particle RhoCI density.

 Excited State   2:      Singlet-A      1.9636 eV  631.40 nm  f=0.0452  <S**2>=0.000
     175 ->177         0.54622
     176 ->178         0.41858

 Excited State   3:      Singlet-A      2.9182 eV  424.86 nm  f=0.0052  <S**2>=0.000
     167 ->179        -0.11552
     168 ->177         0.27572
     168 ->179        -0.42508
     168 ->181         0.26782
     168 ->182         0.10792
     168 ->183         0.11589
     168 ->186        -0.21793
     168 ->188        -0.10286
     171 ->177        -0.10134

 Excited State   4:      Singlet-A      2.9935 eV  414.18 nm  f=0.8133  <S**2>=0.000
     175 ->177        -0.32694
     176 ->178         0.46976
     176 ->179         0.29722
     176 ->181         0.17534

 Excited State   5:      Singlet-A      3.0609 eV  405.06 nm  f=0.0034  <S**2>=0.000
     170 ->177         0.30218
     170 ->178         0.20123
     170 ->179         0.29643
     170 ->181         0.31870
     170 ->183         0.14151
     170 ->186         0.18501
     170 ->187         0.15194
     170 ->188        -0.10340
     170 ->202        -0.10081

 The electronic state is 1-A.
 Alpha  occ. eigenvalues --   -1.86078  -1.82102  -1.80448  -1.73991  -1.72336
 Alpha  occ. eigenvalues --   -1.71843  -1.67757  -1.62138  -1.59862  -1.58842
 Alpha  occ. eigenvalues --   -1.55397  -1.50134  -1.49666  -1.48869  -1.47124
 Alpha  occ. eigenvalues --   -1.45051  -1.43447  -1.41560  -1.39761  -1.39515
 Alpha  occ. eigenvalues --   -1.36118  -1.33513  -1.33407  -1.32427  -1.29132
 Alpha  occ. eigenvalues --   -1.27877  -1.25280  -1.22595  -1.21058  -1.18757
 Alpha  occ. eigenvalues --   -1.17157  -1.16809  -1.15355  -1.14573  -1.13716
 Alpha  occ. eigenvalues --   -1.12779  -1.11450  -1.11002  -1.04828  -1.04311
 Alpha  occ. eigenvalues --   -1.02661  -1.01456  -0.98781  -0.98366  -0.96907
 Alpha  occ. eigenvalues --   -0.96188  -0.95228  -0.94576  -0.93467  -0.92279
 Alpha  occ. eigenvalues --   -0.91233  -0.90432  -0.89699  -0.88307  -0.87740
 Alpha  occ. eigenvalues --   -0.85656  -0.84874  -0.83516  -0.82201  -0.80250
 Alpha  occ. eigenvalues --   -0.79468  -0.78550  -0.78110  -0.76916  -0.76488
 Alpha  occ. eigenvalues --   -0.75947  -0.75459  -0.74986  -0.74673  -0.73725
 Alpha  occ. eigenvalues --   -0.72990  -0.71996  -0.71865  -0.71146  -0.70466
 Alpha  occ. eigenvalues --   -0.69995  -0.69562  -0.69141  -0.68359  -0.68038
 Alpha  occ. eigenvalues --   -0.67539  -0.67131  -0.66687  -0.66265  -0.65693
 Alpha  occ. eigenvalues --   -0.65193  -0.64931  -0.64326  -0.63578  -0.63479
 Alpha  occ. eigenvalues --   -0.63290  -0.63132  -0.62795  -0.62652  -0.62189
 Alpha  occ. eigenvalues --   -0.61492  -0.61125  -0.61024  -0.60896  -0.60566
 Alpha  occ. eigenvalues --   -0.60184  -0.59911  -0.59668  -0.59340  -0.58397
 Alpha  occ. eigenvalues --   -0.58154  -0.57390  -0.57310  -0.57110  -0.56644
 Alpha  occ. eigenvalues --   -0.56008  -0.55498  -0.55233  -0.55103  -0.54502
 Alpha  occ. eigenvalues --   -0.54383  -0.54066  -0.53425  -0.53174  -0.53013
 Alpha  occ. eigenvalues --   -0.52888  -0.52712  -0.52017  -0.51754  -0.51330
 Alpha  occ. eigenvalues --   -0.51014  -0.50846  -0.50804  -0.50403  -0.50140
 Alpha  occ. eigenvalues --   -0.50000  -0.49803  -0.49616  -0.49515  -0.49037
 Alpha  occ. eigenvalues --   -0.48868  -0.48235  -0.47836  -0.47770  -0.47404
 Alpha  occ. eigenvalues --   -0.47320  -0.47106  -0.46997  -0.46729  -0.46472
 Alpha  occ. eigenvalues --   -0.46023  -0.45842  -0.45793  -0.45659  -0.45470
 Alpha  occ. eigenvalues --   -0.45277  -0.45091  -0.44868  -0.44421  -0.44363
 Alpha  occ. eigenvalues --   -0.43909  -0.43565  -0.42825  -0.42537  -0.42439
 Alpha  occ. eigenvalues --   -0.42323  -0.41753  -0.40895  -0.39450  -0.39127
 Alpha  occ. eigenvalues --   -0.38191  -0.36836  -0.35830  -0.34723  -0.34407
 Alpha  occ. eigenvalues --   -0.33916  -0.32294  -0.31877  -0.31123  -0.26465
 Alpha  occ. eigenvalues --   -0.21671
 Alpha virt. eigenvalues --   -0.08140  -0.01776  -0.00310   0.01056   0.01295
 Alpha virt. eigenvalues --    0.01693   0.02877   0.03136   0.04043   0.04841
 Alpha virt. eigenvalues --    0.06401   0.06604   0.07400   0.07861   0.08461

 Mulliken charges:
               1
     1  Mg   0.431694
     2  C   -0.010903
     3  C   -0.062126
     4  C   -0.103320
     5  C   -0.093393
     6  N   -0.263417
     7  C    0.079665
     8  C   -0.009837
     9  C    0.003374
    10  C    0.154893
    11  C   -0.056811
    12  C   -0.025580
    13  C    0.000866
    14  C    0.476755
    15  O   -0.525755
    16  O   -0.262310
    17  N   -0.352327
    18  C    0.110143
    19  C    0.049731
    20  C   -0.044454
    21  C    0.169119
    22  C   -0.049156
    23  C    0.323148
    24  O   -0.509585
    25  C   -0.027609
    26  N   -0.286809
    27  C    0.175250
    28  C   -0.000864
    29  C    0.010009
    30  C    0.094933
    31  C   -0.049856
    32  C   -0.018968
    33  C   -0.045238
    34  N   -0.298749
    35  C    0.116811
    36  C   -0.012347
    37  C   -0.059035
    38  C    0.082293
    39  C   -0.031820
    40  C    0.337645
    41  O   -0.519909
    42  C    0.056152
    43  C    0.489563
    44  O   -0.514463
    45  O   -0.261490
    46  C    0.070941
    47  C    0.112436
    48  C   -0.095339
    49  C   -0.017217
    50  C   -0.046152
    51  C   -0.028176
    52  C   -0.033044
    53  C   -0.028725
    54  C   -0.015074
    55  C   -0.061130
    56  C   -0.036926
    57  C   -0.032311
    58  C   -0.034856
    59  C   -0.009134
    60  C   -0.057205
    61  C   -0.030605
    62  C   -0.029926
    63  C   -0.033355
    64  C   -0.018682
    65  C   -0.063242
    66  C   -0.062415
    67  H    0.013819
    68  H    0.043958
    69  H    0.029381
    70  H    0.048980
    71  H    0.040292
    72  H    0.024903
    73  H    0.010638
    74  H    0.030188
    75  H    0.030256
    76  H    0.020354
    77  H    0.046841
    78  H    0.037501
    79  H    0.033386
    80  H    0.033360
    81  H    0.028248
    82  H    0.036306
    83  H    0.040581
    84  H    0.026592
    85  H    0.037439
    86  H    0.030819
    87  H    0.029905
    88  H    0.022069
    89  H    0.022114
    90  H    0.007619
    91  H    0.020529
    92  H    0.021569
    93  H    0.023777
    94  H    0.011486
    95  H    0.020279
    96  H    0.031561
    97  H    0.036920
    98  H    0.051135
    99  H    0.026935
   100  H    0.055145
   101  H    0.038373
   102  H    0.038238
   103  H    0.067872
   104  H    0.029189
   105  H    0.030925
   106  H    0.028186
   107  H    0.024465
   108  H    0.039179
   109  H    0.012575
   110  H    0.016113
   111  H    0.023173
   112  H    0.009889
   113  H    0.019808
   114  H    0.021469
   115  H    0.014337
   116  H    0.014181
   117  H    0.018677
   118  H    0.019876
   119  H    0.019108
   120  H    0.007534
   121  H    0.024655
   122  H    0.017933
   123  H    0.008462
   124  H    0.011662
   125  H    0.023823
   126  H    0.022341
   127  H    0.016005
   128  H    0.013138
   129  H    0.020389
   130  H    0.018136
   131  H    0.018650
   132  H    0.020187
   133  H    0.009605
   134  H    0.019245
   135  H    0.028691
   136  H    0.015100
   137  H    0.030206
   138  H    0.010912
   139  H    0.019424
   140  H    0.017612
 Sum of Mulliken charges =  -0.00000

 Dipole moment (field-independent basis, Debye):
    X=              7.8701    Y=              5.4347    Z=             -0.5787  Tot=              9.5818
 N-N= 4.550464647058D+03 E-N= 0.000000000000D+00  KE=-9.775035867237D+03
 Leave Link  601 at Fri Apr 29 05:37:11 2022, MaxMem=  6710886400 cpu:               0.8 elap:               0.1
 (Enter /sw/apps/gaussian-16.0/g16/l9999.exe)
 1\1\GINC-BP1-COMPUTE102\SP\RZINDO CIS\STO-3G\C55H74Mg1N4O6\OF15641\29-
 Apr-2022\0\\#p ZINDO=(nstates=5)\\step_1_chromophore_12 ZINDO\\0,1\Mg,
 0,47.671,15.89,28.454\C,0,45.344,15.655,31.048\C,0,49.48,18.075,30.515
 \C,0,49.687,16.659,25.896\C,0,45.306,14.621,26.3\N,0,47.507,16.717,30.
 64\C,0,46.409,16.477,31.405\C,0,46.52,17.235,32.787\C,0,47.758,18.22,3
 2.48\C,0,48.271,17.699,31.127\C,0,47.166,19.656,32.251\C,0,46.904,16.1
 68,33.877\C,0,47.204,16.686,35.31\C,0,48.316,16.299,36.239\O,0,49.143,

 Normal termination of Gaussian 16 at Fri Apr 29 05:37:11 2022.
