 Gaussian 16, Revision A.03,
 Gaussian 16:  ES64L-G16RevA.03 25-Dec-2016

 ------------------------------
 #p blyp/Def2SVP td=(nstates=5)
 ------------------------------

 --------------------------------------------------
 step_1001_chromophore_1 TDDFT with blyp functional
 --------------------------------------------------
 Symbolic Z-matrix:
 Charge =  0 Multiplicity = 1

                         Standard orientation:
 ---------------------------------------------------------------------
 Center     Atomic      Atomic             Coordinates (Angstroms)
 Number     Number       Type             X           Y           Z
 ---------------------------------------------------------------------
      1         12           0        6.176788    0.393915   -0.115394
      2          6           0        4.118903   -2.239939   -0.755232
      3          6           0        3.859857    2.443923   -1.795225
      4          6           0        8.248169    2.977008    0.353059
      5          6           0        8.633171   -1.713585    1.105790
      6          7           0        4.171200    0.099866   -1.354181
      7          6           0        3.512779   -1.090373   -1.306657
      8          6           0        2.110510   -0.811254   -1.854084
      9          6           0        2.238664    0.612595   -2.573011
     10          6           0        3.523999    1.090823   -1.935147
     11          6           0        2.430212    0.530307   -4.131435
     12          6           0        0.948447   -0.893232   -0.739801
     13          6           0       -0.476821   -1.391619   -1.152554
     14          6           0       -1.461697   -1.617043    0.046281
     15          8           0       -1.140278   -1.783356    1.187147
     16          8           0       -2.806354   -1.766118   -0.361441
     17          7           0        5.966125    2.441355   -0.385131
     18          6           0        4.950356    3.050600   -1.131873
     19          6           0        5.201925    4.518711   -1.048710
     20          6           0        6.416468    4.757628   -0.399337
     21          6           0        6.963538    3.372756   -0.107259
     22          6           0        4.239183    5.490620   -1.636127
     23          6           0        7.159231    5.947502   -0.034278
     24          8           0        8.229902    5.945624    0.514734
     25          6           0        6.615749    7.228902   -0.178485
     26          7           0        8.114948    0.659401    0.685235
     27          6           0        8.791550    1.803635    0.679014
     28          6           0       10.298500    1.630468    0.980216
     29          6           0       10.327189    0.148731    1.529112
     30          6           0        8.937497   -0.401356    1.060301
     31          6           0       11.293002    1.982483   -0.163808
     32          6           0       10.527549    0.063728    3.060283
     33          6           0        9.366948    0.546871    3.870767
     34          7           0        6.382349   -1.597066    0.092898
     35          6           0        7.408307   -2.345255    0.604560
     36          6           0        7.041123   -3.713200    0.569995
     37          6           0        5.752783   -3.769662    0.115879
     38          6           0        5.414846   -2.444920   -0.230131
     39          6           0        7.929001   -4.817367    0.981140
     40          6           0        4.608096   -4.501859   -0.112743
     41          8           0        4.422103   -5.669215    0.145627
     42          6           0        3.515550   -3.658717   -0.847392
     43          6           0        2.285431   -3.927652   -0.057512
     44          8           0        2.110991   -3.736170    1.115455
     45          8           0        1.323729   -4.495231   -0.901721
     46          6           0        0.078491   -5.020393   -0.317374
     47          6           0       -3.836322   -2.084556    0.642483
     48          6           0       -5.068909   -1.571663   -0.116263
     49          6           0       -6.138850   -2.286553   -0.545834
     50          6           0       -6.385994   -3.792948   -0.302231
     51          6           0       -7.248993   -1.634021   -1.323052
     52          6           0       -8.649398   -1.476683   -0.568254
     53          6           0       -8.499792   -0.487810    0.651952
     54          6           0       -9.470019    0.737418    0.443038
     55          6           0       -8.657289    1.831028   -0.248801
     56          6           0      -10.074145    1.189267    1.798740
     57          6           0      -11.324150    1.927353    1.623052
     58          6           0      -12.466312    1.177960    2.353978
     59          6           0      -13.764279    2.027861    2.637994
     60          6           0      -13.982675    2.083304    4.141970
     61          6           0      -14.980810    1.479366    1.886757
     62          6           0      -14.952317    1.981133    0.465016
     63          6           0      -14.787913    0.792762   -0.581741
     64          6           0      -13.961004    1.028474   -1.851049
     65          6           0      -14.792338    1.167092   -3.114118
     66          6           0      -12.780866    0.049787   -2.003903
     67          1           0        3.235945    3.166023   -2.325428
     68          1           0        8.910215    3.840621    0.440500
     69          1           0        9.344050   -2.420925    1.538322
     70          1           0        1.928377   -1.667364   -2.504128
     71          1           0        1.526020    1.364871   -2.233745
     72          1           0        2.753606    1.479991   -4.559705
     73          1           0        1.437861    0.255948   -4.489502
     74          1           0        3.200954   -0.227209   -4.271910
     75          1           0        0.869630    0.120567   -0.345673
     76          1           0        1.365944   -1.460946    0.092163
     77          1           0       -0.379797   -2.321296   -1.712287
     78          1           0       -1.028283   -0.704228   -1.793235
     79          1           0        4.214157    6.407281   -1.047917
     80          1           0        3.242990    5.061102   -1.734439
     81          1           0        4.592010    5.712757   -2.643109
     82          1           0        6.760279    7.633811   -1.180199
     83          1           0        7.143516    7.918192    0.480186
     84          1           0        5.561850    7.300435    0.090065
     85          1           0       10.586459    2.311089    1.781278
     86          1           0       11.079181   -0.419138    0.980040
     87          1           0       12.260973    2.421296    0.074512
     88          1           0       10.834708    2.699446   -0.846312
     89          1           0       11.390023    1.061098   -0.738006
     90          1           0       11.453604    0.530172    3.397827
     91          1           0       10.608122   -0.999579    3.284041
     92          1           0        8.430158    0.006180    3.736706
     93          1           0        9.346360    1.617378    4.076100
     94          1           0        9.578908    0.224641    4.890382
     95          1           0        8.500590   -4.605551    1.884002
     96          1           0        8.528452   -5.150187    0.134072
     97          1           0        7.289626   -5.660390    1.241911
     98          1           0        3.293351   -4.085625   -1.825303
     99          1           0       -0.271179   -5.980821   -0.697708
    100          1           0       -0.750876   -4.363983   -0.577977
    101          1           0        0.081370   -5.119602    0.767505
    102          1           0       -3.648837   -1.572556    1.586156
    103          1           0       -3.766906   -3.169981    0.706718
    104          1           0       -5.080931   -0.540968   -0.470658
    105          1           0       -7.381310   -3.984597    0.099143
    106          1           0       -5.642812   -4.243707    0.354423
    107          1           0       -6.392032   -4.300030   -1.267031
    108          1           0       -7.334219   -2.234310   -2.229558
    109          1           0       -6.953014   -0.654717   -1.698246
    110          1           0       -9.026762   -2.437311   -0.216355
    111          1           0       -9.391702   -1.095836   -1.269902
    112          1           0       -7.443098   -0.221227    0.648747
    113          1           0       -8.708939   -0.942806    1.621017
    114          1           0      -10.247780    0.533037   -0.292996
    115          1           0       -8.890497    2.734720    0.312783
    116          1           0       -8.844543    1.920275   -1.319108
    117          1           0       -7.584593    1.654977   -0.167863
    118          1           0       -9.428956    1.857869    2.368518
    119          1           0      -10.057255    0.357405    2.502748
    120          1           0      -11.577631    2.004641    0.564702
    121          1           0      -11.178430    2.940254    1.999418
    122          1           0      -12.249350    0.758512    3.336172
    123          1           0      -12.659989    0.313436    1.719229
    124          1           0      -13.578954    3.024155    2.236953
    125          1           0      -13.254574    1.614701    4.804297
    126          1           0      -14.867139    1.484506    4.360703
    127          1           0      -14.096069    3.122899    4.449334
    128          1           0      -15.891645    1.836074    2.366495
    129          1           0      -15.018351    0.392912    1.969085
    130          1           0      -14.211366    2.770670    0.345364
    131          1           0      -15.876450    2.530695    0.288556
    132          1           0      -15.784424    0.438570   -0.848001
    133          1           0      -14.285473   -0.015858   -0.051487
    134          1           0      -13.573991    2.031700   -1.671353
    135          1           0      -14.641143    2.144167   -3.572217
    136          1           0      -15.849050    1.218265   -2.852747
    137          1           0      -14.593083    0.398493   -3.861783
    138          1           0      -13.067621   -0.952795   -2.320131
    139          1           0      -12.125394    0.037007   -1.133383
    140          1           0      -12.316193    0.513924   -2.873948
 ---------------------------------------------------------------------

 SCF Done:  E(RB-LYP) =  -3007.38022954     A.U. after   21 cycles

 Excitation energies and oscillator strengths:

 Excited State   1:      Singlet-A      1.7801 eV  696.51 nm  f=0.0200  <S**2>=0.000
     244 -> 247        0.67977
     246 -> 247       -0.17789
 This state for optimization and/or second-order correction.
 Total Energy, E(TD-HF/TD-DFT) =  -3007.31481303
 Copying the excited state density for this state as the 1-particle RhoCI density.

 Excited State   2:      Singlet-A      1.8571 eV  667.62 nm  f=0.2832  <S**2>=0.000
     243 -> 247       -0.10695
     244 -> 247        0.17087
     245 -> 248        0.19033
     246 -> 247        0.65628
     246 <- 247       -0.13647

 Excited State   3:      Singlet-A      1.9283 eV  642.96 nm  f=0.0240  <S**2>=0.000
     243 -> 247        0.64133
     245 -> 247        0.25862
     246 -> 247        0.11372

 Excited State   4:      Singlet-A      2.0566 eV  602.87 nm  f=0.0702  <S**2>=0.000
     243 -> 247       -0.27355
     245 -> 247        0.59645
     246 -> 248       -0.23378

 Excited State   5:      Singlet-A      2.3626 eV  524.78 nm  f=0.0002  <S**2>=0.000
     242 -> 247        0.70699

 The electronic state is 1-A.
 Alpha  occ. eigenvalues --  -46.26882 -18.81383 -18.80660 -18.76947 -18.76153
 Alpha  occ. eigenvalues --  -18.74951 -18.74360 -14.02790 -14.02529 -14.01518
 Alpha  occ. eigenvalues --  -14.00831 -10.03939 -10.03190  -9.98724  -9.98211
 Alpha  occ. eigenvalues --   -9.98183  -9.96953  -9.96645  -9.96496  -9.96464
 Alpha  occ. eigenvalues --   -9.96206  -9.95778  -9.95566  -9.95142  -9.94810
 Alpha  occ. eigenvalues --   -9.94757  -9.94568  -9.94395  -9.94354  -9.94228
 Alpha  occ. eigenvalues --   -9.93416  -9.93399  -9.93395  -9.93357  -9.93311
 Alpha  occ. eigenvalues --   -9.93252  -9.93243  -9.93166  -9.92906  -9.92650
 Alpha  occ. eigenvalues --   -9.92528  -9.92481  -9.92368  -9.92206  -9.92162
 Alpha  occ. eigenvalues --   -9.92081  -9.92027  -9.91645  -9.91600  -9.91562
 Alpha  occ. eigenvalues --   -9.91217  -9.91178  -9.91135  -9.91032  -9.90926
 Alpha  occ. eigenvalues --   -9.90863  -9.90854  -9.90807  -9.90705  -9.90702
 Alpha  occ. eigenvalues --   -9.90687  -9.90491  -9.90467  -9.90316  -9.90254
 Alpha  occ. eigenvalues --   -9.90012  -2.91555  -1.71993  -1.71439  -1.71262
 Alpha  occ. eigenvalues --   -0.96968  -0.96668  -0.93112  -0.91292  -0.89691
 Alpha  occ. eigenvalues --   -0.89402  -0.87367  -0.86617  -0.85610  -0.83964
 Alpha  occ. eigenvalues --   -0.75527  -0.73638  -0.72920  -0.72408  -0.72117
 Alpha  occ. eigenvalues --   -0.71620  -0.71487  -0.71370  -0.71028  -0.70889
 Alpha  occ. eigenvalues --   -0.70474  -0.68885  -0.68122  -0.67550  -0.67270
 Alpha  occ. eigenvalues --   -0.66747  -0.66230  -0.65700  -0.65127  -0.64734
 Alpha  occ. eigenvalues --   -0.63760  -0.63103  -0.62435  -0.61550  -0.60797
 Alpha  occ. eigenvalues --   -0.60483  -0.60299  -0.60022  -0.59169  -0.59018
 Alpha  occ. eigenvalues --   -0.58190  -0.57756  -0.56896  -0.55598  -0.54857
 Alpha  occ. eigenvalues --   -0.54523  -0.53602  -0.53334  -0.52301  -0.51949
 Alpha  occ. eigenvalues --   -0.51040  -0.50746  -0.50678  -0.50186  -0.50116
 Alpha  occ. eigenvalues --   -0.49888  -0.48413  -0.48404  -0.48245  -0.46306
 Alpha  occ. eigenvalues --   -0.46107  -0.46049  -0.45538  -0.44748  -0.44230
 Alpha  occ. eigenvalues --   -0.43611  -0.43238  -0.43185  -0.42870  -0.42282
 Alpha  occ. eigenvalues --   -0.42059  -0.41858  -0.41351  -0.41185  -0.40998
 Alpha  occ. eigenvalues --   -0.40906  -0.40776  -0.40605  -0.40373  -0.40186
 Alpha  occ. eigenvalues --   -0.40099  -0.39943  -0.39580  -0.39501  -0.39162
 Alpha  occ. eigenvalues --   -0.38868  -0.38798  -0.38633  -0.38360  -0.38342
 Alpha  occ. eigenvalues --   -0.38195  -0.38033  -0.37650  -0.37526  -0.37277
 Alpha  occ. eigenvalues --   -0.37128  -0.36874  -0.36744  -0.36693  -0.36518
 Alpha  occ. eigenvalues --   -0.36250  -0.36110  -0.36005  -0.35682  -0.35450
 Alpha  occ. eigenvalues --   -0.35327  -0.35202  -0.34948  -0.34897  -0.34668
 Alpha  occ. eigenvalues --   -0.34562  -0.34321  -0.34212  -0.33898  -0.33770
 Alpha  occ. eigenvalues --   -0.33705  -0.33633  -0.33205  -0.33074  -0.32982
 Alpha  occ. eigenvalues --   -0.32633  -0.32515  -0.32316  -0.32171  -0.32003
 Alpha  occ. eigenvalues --   -0.31975  -0.31893  -0.31691  -0.31569  -0.31424
 Alpha  occ. eigenvalues --   -0.31284  -0.31152  -0.30939  -0.30875  -0.30542
 Alpha  occ. eigenvalues --   -0.30415  -0.30349  -0.30219  -0.29901  -0.29701
 Alpha  occ. eigenvalues --   -0.29398  -0.29353  -0.29252  -0.29225  -0.29057
 Alpha  occ. eigenvalues --   -0.28708  -0.28579  -0.28351  -0.28221  -0.27873
 Alpha  occ. eigenvalues --   -0.27813  -0.27107  -0.26742  -0.26594  -0.26550
 Alpha  occ. eigenvalues --   -0.26084  -0.25829  -0.25363  -0.24959  -0.24898
 Alpha  occ. eigenvalues --   -0.24630  -0.24308  -0.23976  -0.23564  -0.23461
 Alpha  occ. eigenvalues --   -0.23267  -0.22521  -0.22381  -0.21471  -0.21232
 Alpha  occ. eigenvalues --   -0.20824  -0.20190  -0.18541  -0.17982  -0.17311
 Alpha  occ. eigenvalues --   -0.15984
 Alpha virt. eigenvalues --   -0.11509  -0.06688  -0.06109  -0.04212  -0.02351
 Alpha virt. eigenvalues --   -0.02009  -0.01743  -0.01300  -0.00868   0.00330
 Alpha virt. eigenvalues --    0.01153   0.01864   0.02192   0.02835   0.02944

 Mulliken charges:
               1
     1  Mg   0.693811
     2  C    0.056276
     3  C   -0.062442
     4  C   -0.035508
     5  C   -0.074894
     6  N   -0.154659
     7  C   -0.109264
     8  C    0.044970
     9  C    0.019430
    10  C   -0.022268
    11  C    0.144167
    12  C    0.092794
    13  C    0.114976
    14  C    0.078980
    15  O   -0.155428
    16  O   -0.322652
    17  N   -0.318747
    18  C    0.151195
    19  C   -0.158290
    20  C    0.106686
    21  C    0.060119
    22  C    0.177752
    23  C   -0.116138
    24  O   -0.148584
    25  C    0.138268
    26  N   -0.225691
    27  C    0.047887
    28  C    0.028226
    29  C    0.049295
    30  C    0.062089
    31  C    0.128172
    32  C    0.103203
    33  C    0.082437
    34  N   -0.263723
    35  C    0.070969
    36  C   -0.200178
    37  C    0.221721
    38  C    0.030826
    39  C    0.175222
    40  C   -0.149300
    41  O   -0.131239
    42  C    0.085720
    43  C    0.081017
    44  O   -0.144314
    45  O   -0.294605
    46  C    0.210962
    47  C    0.336703
    48  C   -0.047469
    49  C   -0.156342
    50  C    0.140011
    51  C    0.113789
    52  C    0.058451
    53  C    0.113273
    54  C   -0.120226
    55  C    0.114327
    56  C    0.131035
    57  C    0.092588
    58  C    0.077375
    59  C   -0.097125
    60  C    0.127998
    61  C    0.118355
    62  C    0.080198
    63  C    0.097795
    64  C   -0.093680
    65  C    0.117124
    66  C    0.083157
    67  H   -0.068906
    68  H   -0.048962
    69  H   -0.065249
    70  H   -0.039959
    71  H   -0.030065
    72  H   -0.005097
    73  H    0.002674
    74  H    0.002131
    75  H   -0.029706
    76  H    0.016350
    77  H    0.008670
    78  H   -0.007797
    79  H   -0.009566
    80  H   -0.001155
    81  H    0.005658
    82  H    0.003777
    83  H   -0.012171
    84  H   -0.000336
    85  H   -0.028149
    86  H   -0.041471
    87  H    0.000611
    88  H   -0.014458
    89  H   -0.017198
    90  H   -0.020406
    91  H   -0.032768
    92  H    0.006707
    93  H   -0.005114
    94  H   -0.037108
    95  H   -0.003000
    96  H    0.004609
    97  H   -0.005079
    98  H   -0.006945
    99  H    0.005880
   100  H   -0.000663
   101  H    0.027482
   102  H    0.012916
   103  H   -0.009182
   104  H   -0.041062
   105  H   -0.007080
   106  H   -0.015951
   107  H   -0.007788
   108  H   -0.031505
   109  H   -0.037924
   110  H   -0.022972
   111  H   -0.020701
   112  H   -0.028280
   113  H   -0.041111
   114  H   -0.022631
   115  H   -0.022655
   116  H   -0.016699
   117  H   -0.022825
   118  H   -0.050429
   119  H   -0.041781
   120  H   -0.020033
   121  H   -0.034440
   122  H   -0.038917
   123  H   -0.039204
   124  H   -0.039799
   125  H   -0.022364
   126  H   -0.027699
   127  H   -0.012330
   128  H   -0.047877
   129  H   -0.031222
   130  H   -0.030967
   131  H   -0.040839
   132  H   -0.035850
   133  H   -0.042167
   134  H   -0.040544
   135  H   -0.024756
   136  H   -0.028148
   137  H   -0.014457
   138  H   -0.011570
   139  H    0.018519
   140  H   -0.017484
 Sum of Mulliken charges =  -0.00000

 Dipole moment (field-independent basis, Debye):
    X=             -2.1543    Y=              3.5616    Z=             -3.7338  Tot=              5.5917
 Quadrupole moment (field-independent basis, Debye-Ang):
   XX=           -372.7754   YY=           -419.1208   ZZ=           -401.3552
   XY=              6.7349   XZ=             -0.5411   YZ=             -2.9502

 Normal termination of Gaussian 16 at Tue Apr 26 18:01:44 2022.
