 Gaussian 16, Revision A.03,
 Gaussian 16:  ES64L-G16RevA.03 25-Dec-2016

 -----------------------------------
 #p cam-b3lyp/Def2SVP td=(nstates=5)
 -----------------------------------

 -------------------------------------------------------
 step_1001_chromophore_1 TDDFT with cam-b3lyp functional
 -------------------------------------------------------
 Symbolic Z-matrix:
 Charge =  0 Multiplicity = 1

                         Standard orientation:
 ---------------------------------------------------------------------
 Center     Atomic      Atomic             Coordinates (Angstroms)
 Number     Number       Type             X           Y           Z
 ---------------------------------------------------------------------
      1         12           0        6.176788    0.393915   -0.115394
      2          6           0        4.118903   -2.239939   -0.755232
      3          6           0        3.859857    2.443923   -1.795225
      4          6           0        8.248169    2.977008    0.353059
      5          6           0        8.633171   -1.713585    1.105790
      6          7           0        4.171200    0.099866   -1.354181
      7          6           0        3.512779   -1.090373   -1.306657
      8          6           0        2.110510   -0.811254   -1.854084
      9          6           0        2.238664    0.612595   -2.573011
     10          6           0        3.523999    1.090823   -1.935147
     11          6           0        2.430212    0.530307   -4.131435
     12          6           0        0.948447   -0.893232   -0.739801
     13          6           0       -0.476821   -1.391619   -1.152554
     14          6           0       -1.461697   -1.617043    0.046281
     15          8           0       -1.140278   -1.783356    1.187147
     16          8           0       -2.806354   -1.766118   -0.361441
     17          7           0        5.966125    2.441355   -0.385131
     18          6           0        4.950356    3.050600   -1.131873
     19          6           0        5.201925    4.518711   -1.048710
     20          6           0        6.416468    4.757628   -0.399337
     21          6           0        6.963538    3.372756   -0.107259
     22          6           0        4.239183    5.490620   -1.636127
     23          6           0        7.159231    5.947502   -0.034278
     24          8           0        8.229902    5.945624    0.514734
     25          6           0        6.615749    7.228902   -0.178485
     26          7           0        8.114948    0.659401    0.685235
     27          6           0        8.791550    1.803635    0.679014
     28          6           0       10.298500    1.630468    0.980216
     29          6           0       10.327189    0.148731    1.529112
     30          6           0        8.937497   -0.401356    1.060301
     31          6           0       11.293002    1.982483   -0.163808
     32          6           0       10.527549    0.063728    3.060283
     33          6           0        9.366948    0.546871    3.870767
     34          7           0        6.382349   -1.597066    0.092898
     35          6           0        7.408307   -2.345255    0.604560
     36          6           0        7.041123   -3.713200    0.569995
     37          6           0        5.752783   -3.769662    0.115879
     38          6           0        5.414846   -2.444920   -0.230131
     39          6           0        7.929001   -4.817367    0.981140
     40          6           0        4.608096   -4.501859   -0.112743
     41          8           0        4.422103   -5.669215    0.145627
     42          6           0        3.515550   -3.658717   -0.847392
     43          6           0        2.285431   -3.927652   -0.057512
     44          8           0        2.110991   -3.736170    1.115455
     45          8           0        1.323729   -4.495231   -0.901721
     46          6           0        0.078491   -5.020393   -0.317374
     47          6           0       -3.836322   -2.084556    0.642483
     48          6           0       -5.068909   -1.571663   -0.116263
     49          6           0       -6.138850   -2.286553   -0.545834
     50          6           0       -6.385994   -3.792948   -0.302231
     51          6           0       -7.248993   -1.634021   -1.323052
     52          6           0       -8.649398   -1.476683   -0.568254
     53          6           0       -8.499792   -0.487810    0.651952
     54          6           0       -9.470019    0.737418    0.443038
     55          6           0       -8.657289    1.831028   -0.248801
     56          6           0      -10.074145    1.189267    1.798740
     57          6           0      -11.324150    1.927353    1.623052
     58          6           0      -12.466312    1.177960    2.353978
     59          6           0      -13.764279    2.027861    2.637994
     60          6           0      -13.982675    2.083304    4.141970
     61          6           0      -14.980810    1.479366    1.886757
     62          6           0      -14.952317    1.981133    0.465016
     63          6           0      -14.787913    0.792762   -0.581741
     64          6           0      -13.961004    1.028474   -1.851049
     65          6           0      -14.792338    1.167092   -3.114118
     66          6           0      -12.780866    0.049787   -2.003903
     67          1           0        3.235945    3.166023   -2.325428
     68          1           0        8.910215    3.840621    0.440500
     69          1           0        9.344050   -2.420925    1.538322
     70          1           0        1.928377   -1.667364   -2.504128
     71          1           0        1.526020    1.364871   -2.233745
     72          1           0        2.753606    1.479991   -4.559705
     73          1           0        1.437861    0.255948   -4.489502
     74          1           0        3.200954   -0.227209   -4.271910
     75          1           0        0.869630    0.120567   -0.345673
     76          1           0        1.365944   -1.460946    0.092163
     77          1           0       -0.379797   -2.321296   -1.712287
     78          1           0       -1.028283   -0.704228   -1.793235
     79          1           0        4.214157    6.407281   -1.047917
     80          1           0        3.242990    5.061102   -1.734439
     81          1           0        4.592010    5.712757   -2.643109
     82          1           0        6.760279    7.633811   -1.180199
     83          1           0        7.143516    7.918192    0.480186
     84          1           0        5.561850    7.300435    0.090065
     85          1           0       10.586459    2.311089    1.781278
     86          1           0       11.079181   -0.419138    0.980040
     87          1           0       12.260973    2.421296    0.074512
     88          1           0       10.834708    2.699446   -0.846312
     89          1           0       11.390023    1.061098   -0.738006
     90          1           0       11.453604    0.530172    3.397827
     91          1           0       10.608122   -0.999579    3.284041
     92          1           0        8.430158    0.006180    3.736706
     93          1           0        9.346360    1.617378    4.076100
     94          1           0        9.578908    0.224641    4.890382
     95          1           0        8.500590   -4.605551    1.884002
     96          1           0        8.528452   -5.150187    0.134072
     97          1           0        7.289626   -5.660390    1.241911
     98          1           0        3.293351   -4.085625   -1.825303
     99          1           0       -0.271179   -5.980821   -0.697708
    100          1           0       -0.750876   -4.363983   -0.577977
    101          1           0        0.081370   -5.119602    0.767505
    102          1           0       -3.648837   -1.572556    1.586156
    103          1           0       -3.766906   -3.169981    0.706718
    104          1           0       -5.080931   -0.540968   -0.470658
    105          1           0       -7.381310   -3.984597    0.099143
    106          1           0       -5.642812   -4.243707    0.354423
    107          1           0       -6.392032   -4.300030   -1.267031
    108          1           0       -7.334219   -2.234310   -2.229558
    109          1           0       -6.953014   -0.654717   -1.698246
    110          1           0       -9.026762   -2.437311   -0.216355
    111          1           0       -9.391702   -1.095836   -1.269902
    112          1           0       -7.443098   -0.221227    0.648747
    113          1           0       -8.708939   -0.942806    1.621017
    114          1           0      -10.247780    0.533037   -0.292996
    115          1           0       -8.890497    2.734720    0.312783
    116          1           0       -8.844543    1.920275   -1.319108
    117          1           0       -7.584593    1.654977   -0.167863
    118          1           0       -9.428956    1.857869    2.368518
    119          1           0      -10.057255    0.357405    2.502748
    120          1           0      -11.577631    2.004641    0.564702
    121          1           0      -11.178430    2.940254    1.999418
    122          1           0      -12.249350    0.758512    3.336172
    123          1           0      -12.659989    0.313436    1.719229
    124          1           0      -13.578954    3.024155    2.236953
    125          1           0      -13.254574    1.614701    4.804297
    126          1           0      -14.867139    1.484506    4.360703
    127          1           0      -14.096069    3.122899    4.449334
    128          1           0      -15.891645    1.836074    2.366495
    129          1           0      -15.018351    0.392912    1.969085
    130          1           0      -14.211366    2.770670    0.345364
    131          1           0      -15.876450    2.530695    0.288556
    132          1           0      -15.784424    0.438570   -0.848001
    133          1           0      -14.285473   -0.015858   -0.051487
    134          1           0      -13.573991    2.031700   -1.671353
    135          1           0      -14.641143    2.144167   -3.572217
    136          1           0      -15.849050    1.218265   -2.852747
    137          1           0      -14.593083    0.398493   -3.861783
    138          1           0      -13.067621   -0.952795   -2.320131
    139          1           0      -12.125394    0.037007   -1.133383
    140          1           0      -12.316193    0.513924   -2.873948
 ---------------------------------------------------------------------

 SCF Done:  E(RCAM-B3LYP) =  -3007.18994841     A.U. after   17 cycles

 Excitation energies and oscillator strengths:

 Excited State   1:      Singlet-A      1.8156 eV  682.89 nm  f=0.3817  <S**2>=0.000
     245 -> 248        0.17688
     246 -> 247        0.68543
     245 <- 248        0.10122
 This state for optimization and/or second-order correction.
 Total Energy, E(TD-HF/TD-DFT) =  -3007.12322720
 Copying the excited state density for this state as the 1-particle RhoCI density.

 Excited State   2:      Singlet-A      2.2944 eV  540.37 nm  f=0.1167  <S**2>=0.000
     245 -> 247        0.64535
     246 -> 248       -0.27412

 Excited State   3:      Singlet-A      3.5361 eV  350.62 nm  f=0.2151  <S**2>=0.000
     239 -> 247        0.19318
     241 -> 247        0.39889
     244 -> 247       -0.22674
     245 -> 247        0.14177
     246 -> 248        0.42588

 Excited State   4:      Singlet-A      3.5399 eV  350.25 nm  f=0.0259  <S**2>=0.000
     243 -> 247        0.22297
     243 -> 250        0.13150
     244 -> 247        0.51492
     244 -> 249       -0.18723
     244 -> 250        0.21737
     246 -> 248        0.16571

 Excited State   5:      Singlet-A      3.5851 eV  345.83 nm  f=0.0075  <S**2>=0.000
     239 -> 249        0.10137
     240 -> 247        0.55694
     240 -> 249        0.33364
     240 -> 250        0.10861
     241 -> 247       -0.11051

 The electronic state is 1-A.
 Alpha  occ. eigenvalues --  -46.88389 -19.24164 -19.23398 -19.19881 -19.19104
 Alpha  occ. eigenvalues --  -19.18620 -19.17000 -14.41801 -14.41103 -14.40258
 Alpha  occ. eigenvalues --  -14.38973 -10.39205 -10.38479 -10.34218 -10.32965
 Alpha  occ. eigenvalues --  -10.32238 -10.31716 -10.31591 -10.31023 -10.30859
 Alpha  occ. eigenvalues --  -10.30793 -10.30323 -10.30299 -10.29750 -10.28867
 Alpha  occ. eigenvalues --  -10.28729 -10.28676 -10.28563 -10.28342 -10.28068
 Alpha  occ. eigenvalues --  -10.27952 -10.27913 -10.27866 -10.27499 -10.27364
 Alpha  occ. eigenvalues --  -10.27302 -10.27158 -10.27141 -10.27017 -10.26194
 Alpha  occ. eigenvalues --  -10.26155 -10.26024 -10.25989 -10.25984 -10.25931
 Alpha  occ. eigenvalues --  -10.25903 -10.25785 -10.25441 -10.25367 -10.25239
 Alpha  occ. eigenvalues --  -10.24880 -10.24830 -10.24813 -10.24785 -10.24592
 Alpha  occ. eigenvalues --  -10.24561 -10.24431 -10.24420 -10.24397 -10.24374
 Alpha  occ. eigenvalues --  -10.24276 -10.24081 -10.24076 -10.23886 -10.23857
 Alpha  occ. eigenvalues --  -10.23414  -3.16970  -1.91883  -1.91414  -1.91282
 Alpha  occ. eigenvalues --   -1.15377  -1.15088  -1.12049  -1.09249  -1.07433
 Alpha  occ. eigenvalues --   -1.07158  -1.04925  -1.04137  -1.03204  -1.01898
 Alpha  occ. eigenvalues --   -0.92405  -0.90511  -0.89739  -0.89384  -0.88821
 Alpha  occ. eigenvalues --   -0.88406  -0.88193  -0.88173  -0.87625  -0.87461
 Alpha  occ. eigenvalues --   -0.86703  -0.85319  -0.84446  -0.83819  -0.83495
 Alpha  occ. eigenvalues --   -0.83023  -0.82252  -0.81656  -0.80987  -0.80556
 Alpha  occ. eigenvalues --   -0.79484  -0.79181  -0.77961  -0.76882  -0.76125
 Alpha  occ. eigenvalues --   -0.75851  -0.75608  -0.75294  -0.74448  -0.74278
 Alpha  occ. eigenvalues --   -0.73186  -0.72772  -0.71803  -0.70460  -0.69419
 Alpha  occ. eigenvalues --   -0.69119  -0.68147  -0.67991  -0.66693  -0.66163
 Alpha  occ. eigenvalues --   -0.65252  -0.64927  -0.64475  -0.64188  -0.64068
 Alpha  occ. eigenvalues --   -0.63924  -0.62278  -0.62020  -0.61736  -0.60239
 Alpha  occ. eigenvalues --   -0.59592  -0.59517  -0.59131  -0.58077  -0.57580
 Alpha  occ. eigenvalues --   -0.57102  -0.56509  -0.56268  -0.56109  -0.55769
 Alpha  occ. eigenvalues --   -0.55162  -0.54758  -0.54322  -0.54076  -0.54056
 Alpha  occ. eigenvalues --   -0.53843  -0.53814  -0.53561  -0.53123  -0.52740
 Alpha  occ. eigenvalues --   -0.52677  -0.52563  -0.52411  -0.52158  -0.51784
 Alpha  occ. eigenvalues --   -0.51601  -0.51229  -0.51119  -0.51095  -0.50760
 Alpha  occ. eigenvalues --   -0.50606  -0.50478  -0.50303  -0.49942  -0.49783
 Alpha  occ. eigenvalues --   -0.49604  -0.49327  -0.49158  -0.48978  -0.48740
 Alpha  occ. eigenvalues --   -0.48461  -0.48242  -0.48216  -0.48023  -0.47686
 Alpha  occ. eigenvalues --   -0.47611  -0.47123  -0.46958  -0.46768  -0.46484
 Alpha  occ. eigenvalues --   -0.46422  -0.46254  -0.45964  -0.45601  -0.45526
 Alpha  occ. eigenvalues --   -0.45424  -0.45263  -0.45149  -0.44690  -0.44550
 Alpha  occ. eigenvalues --   -0.44406  -0.44188  -0.43978  -0.43826  -0.43592
 Alpha  occ. eigenvalues --   -0.43404  -0.43316  -0.43226  -0.43052  -0.42827
 Alpha  occ. eigenvalues --   -0.42732  -0.42598  -0.42458  -0.42217  -0.42206
 Alpha  occ. eigenvalues --   -0.42031  -0.41767  -0.41527  -0.41331  -0.41045
 Alpha  occ. eigenvalues --   -0.40987  -0.40606  -0.40435  -0.40356  -0.40279
 Alpha  occ. eigenvalues --   -0.39701  -0.39604  -0.39396  -0.39182  -0.38854
 Alpha  occ. eigenvalues --   -0.38735  -0.37896  -0.37868  -0.37447  -0.37443
 Alpha  occ. eigenvalues --   -0.36751  -0.36501  -0.36130  -0.36013  -0.35872
 Alpha  occ. eigenvalues --   -0.35649  -0.35478  -0.34510  -0.34354  -0.34119
 Alpha  occ. eigenvalues --   -0.33836  -0.33631  -0.32828  -0.31799  -0.31417
 Alpha  occ. eigenvalues --   -0.30861  -0.29996  -0.29943  -0.29651  -0.24214
 Alpha  occ. eigenvalues --   -0.21428
 Alpha virt. eigenvalues --   -0.08521  -0.01535   0.00209   0.02873   0.03887
 Alpha virt. eigenvalues --    0.05338   0.05672   0.05910   0.05967   0.06464
 Alpha virt. eigenvalues --    0.08263   0.08389   0.08764   0.09121   0.09230

 Mulliken charges:
               1
     1  Mg   0.827798
     2  C    0.034297
     3  C   -0.079516
     4  C   -0.069920
     5  C   -0.077891
     6  N   -0.218983
     7  C   -0.066830
     8  C   -0.001691
     9  C   -0.043430
    10  C    0.004920
    11  C    0.090164
    12  C    0.039899
    13  C    0.049383
    14  C    0.159159
    15  O   -0.193741
    16  O   -0.388260
    17  N   -0.407918
    18  C    0.167536
    19  C   -0.155854
    20  C    0.026964
    21  C    0.101459
    22  C    0.119300
    23  C   -0.027105
    24  O   -0.186994
    25  C    0.044869
    26  N   -0.303241
    27  C    0.077359
    28  C   -0.027501
    29  C   -0.003254
    30  C    0.068961
    31  C    0.071639
    32  C    0.049984
    33  C    0.013265
    34  N   -0.354634
    35  C    0.073107
    36  C   -0.200276
    37  C    0.137137
    38  C    0.058080
    39  C    0.121691
    40  C   -0.050635
    41  O   -0.174783
    42  C    0.001641
    43  C    0.173505
    44  O   -0.180161
    45  O   -0.360524
    46  C    0.179850
    47  C    0.302783
    48  C   -0.074640
    49  C   -0.177158
    50  C    0.083422
    51  C    0.054514
    52  C    0.009566
    53  C    0.060159
    54  C   -0.172005
    55  C    0.061045
    56  C    0.071392
    57  C    0.042067
    58  C    0.031954
    59  C   -0.153215
    60  C    0.065945
    61  C    0.060234
    62  C    0.025892
    63  C    0.044185
    64  C   -0.152909
    65  C    0.055113
    66  C    0.033234
    67  H   -0.032658
    68  H   -0.007981
    69  H   -0.030504
    70  H   -0.004495
    71  H    0.004669
    72  H    0.018732
    73  H    0.027832
    74  H    0.026664
    75  H   -0.001290
    76  H    0.047129
    77  H    0.038047
    78  H    0.023336
    79  H    0.019378
    80  H    0.027548
    81  H    0.037124
    82  H    0.035558
    83  H    0.026843
    84  H    0.027480
    85  H    0.007689
    86  H   -0.004441
    87  H    0.025978
    88  H    0.010736
    89  H    0.007447
    90  H    0.007537
    91  H   -0.003799
    92  H    0.032129
    93  H    0.017345
    94  H   -0.010201
    95  H    0.018664
    96  H    0.028864
    97  H    0.022089
    98  H    0.038341
    99  H    0.028571
   100  H    0.012703
   101  H    0.053437
   102  H    0.043264
   103  H    0.019174
   104  H   -0.007232
   105  H    0.016172
   106  H    0.008084
   107  H    0.016976
   108  H   -0.001178
   109  H   -0.008630
   110  H    0.003394
   111  H    0.005726
   112  H   -0.001776
   113  H   -0.010879
   114  H    0.002886
   115  H    0.001167
   116  H    0.007158
   117  H   -0.000614
   118  H   -0.018583
   119  H   -0.011586
   120  H    0.001856
   121  H   -0.005598
   122  H   -0.010186
   123  H   -0.014712
   124  H   -0.007555
   125  H    0.002968
   126  H   -0.002843
   127  H    0.011999
   128  H   -0.015092
   129  H   -0.002403
   130  H   -0.004788
   131  H   -0.010502
   132  H   -0.006464
   133  H   -0.014982
   134  H   -0.008909
   135  H    0.000448
   136  H   -0.002585
   137  H    0.009978
   138  H    0.012615
   139  H    0.030276
   140  H    0.006052
 Sum of Mulliken charges =  -0.00000

 Dipole moment (field-independent basis, Debye):
    X=             -2.4002    Y=              5.3195    Z=             -4.2200  Tot=              7.2018
 Quadrupole moment (field-independent basis, Debye-Ang):
   XX=           -373.9254   YY=           -413.2121   ZZ=           -400.7132
   XY=             16.8203   XZ=             -2.3433   YZ=             -4.0933

 Normal termination of Gaussian 16 at Tue Apr 26 17:03:25 2022.
