 Gaussian 16, Revision A.03,
 Gaussian 16:  ES64L-G16RevA.03 25-Dec-2016

 ---------------------------------
 #p PBE1PBE/Def2SVP td=(nstates=5)
 ---------------------------------

 -----------------------------------------------------
 step_1001_chromophore_1 TDDFT with PBE1PBE functional
 -----------------------------------------------------
 Symbolic Z-matrix:
 Charge =  0 Multiplicity = 1

                         Standard orientation:
 ---------------------------------------------------------------------
 Center     Atomic      Atomic             Coordinates (Angstroms)
 Number     Number       Type             X           Y           Z
 ---------------------------------------------------------------------
      1         12           0        6.176788    0.393915   -0.115394
      2          6           0        4.118903   -2.239939   -0.755232
      3          6           0        3.859857    2.443923   -1.795225
      4          6           0        8.248169    2.977008    0.353059
      5          6           0        8.633171   -1.713585    1.105790
      6          7           0        4.171200    0.099866   -1.354181
      7          6           0        3.512779   -1.090373   -1.306657
      8          6           0        2.110510   -0.811254   -1.854084
      9          6           0        2.238664    0.612595   -2.573011
     10          6           0        3.523999    1.090823   -1.935147
     11          6           0        2.430212    0.530307   -4.131435
     12          6           0        0.948447   -0.893232   -0.739801
     13          6           0       -0.476821   -1.391619   -1.152554
     14          6           0       -1.461697   -1.617043    0.046281
     15          8           0       -1.140278   -1.783356    1.187147
     16          8           0       -2.806354   -1.766118   -0.361441
     17          7           0        5.966125    2.441355   -0.385131
     18          6           0        4.950356    3.050600   -1.131873
     19          6           0        5.201925    4.518711   -1.048710
     20          6           0        6.416468    4.757628   -0.399337
     21          6           0        6.963538    3.372756   -0.107259
     22          6           0        4.239183    5.490620   -1.636127
     23          6           0        7.159231    5.947502   -0.034278
     24          8           0        8.229902    5.945624    0.514734
     25          6           0        6.615749    7.228902   -0.178485
     26          7           0        8.114948    0.659401    0.685235
     27          6           0        8.791550    1.803635    0.679014
     28          6           0       10.298500    1.630468    0.980216
     29          6           0       10.327189    0.148731    1.529112
     30          6           0        8.937497   -0.401356    1.060301
     31          6           0       11.293002    1.982483   -0.163808
     32          6           0       10.527549    0.063728    3.060283
     33          6           0        9.366948    0.546871    3.870767
     34          7           0        6.382349   -1.597066    0.092898
     35          6           0        7.408307   -2.345255    0.604560
     36          6           0        7.041123   -3.713200    0.569995
     37          6           0        5.752783   -3.769662    0.115879
     38          6           0        5.414846   -2.444920   -0.230131
     39          6           0        7.929001   -4.817367    0.981140
     40          6           0        4.608096   -4.501859   -0.112743
     41          8           0        4.422103   -5.669215    0.145627
     42          6           0        3.515550   -3.658717   -0.847392
     43          6           0        2.285431   -3.927652   -0.057512
     44          8           0        2.110991   -3.736170    1.115455
     45          8           0        1.323729   -4.495231   -0.901721
     46          6           0        0.078491   -5.020393   -0.317374
     47          6           0       -3.836322   -2.084556    0.642483
     48          6           0       -5.068909   -1.571663   -0.116263
     49          6           0       -6.138850   -2.286553   -0.545834
     50          6           0       -6.385994   -3.792948   -0.302231
     51          6           0       -7.248993   -1.634021   -1.323052
     52          6           0       -8.649398   -1.476683   -0.568254
     53          6           0       -8.499792   -0.487810    0.651952
     54          6           0       -9.470019    0.737418    0.443038
     55          6           0       -8.657289    1.831028   -0.248801
     56          6           0      -10.074145    1.189267    1.798740
     57          6           0      -11.324150    1.927353    1.623052
     58          6           0      -12.466312    1.177960    2.353978
     59          6           0      -13.764279    2.027861    2.637994
     60          6           0      -13.982675    2.083304    4.141970
     61          6           0      -14.980810    1.479366    1.886757
     62          6           0      -14.952317    1.981133    0.465016
     63          6           0      -14.787913    0.792762   -0.581741
     64          6           0      -13.961004    1.028474   -1.851049
     65          6           0      -14.792338    1.167092   -3.114118
     66          6           0      -12.780866    0.049787   -2.003903
     67          1           0        3.235945    3.166023   -2.325428
     68          1           0        8.910215    3.840621    0.440500
     69          1           0        9.344050   -2.420925    1.538322
     70          1           0        1.928377   -1.667364   -2.504128
     71          1           0        1.526020    1.364871   -2.233745
     72          1           0        2.753606    1.479991   -4.559705
     73          1           0        1.437861    0.255948   -4.489502
     74          1           0        3.200954   -0.227209   -4.271910
     75          1           0        0.869630    0.120567   -0.345673
     76          1           0        1.365944   -1.460946    0.092163
     77          1           0       -0.379797   -2.321296   -1.712287
     78          1           0       -1.028283   -0.704228   -1.793235
     79          1           0        4.214157    6.407281   -1.047917
     80          1           0        3.242990    5.061102   -1.734439
     81          1           0        4.592010    5.712757   -2.643109
     82          1           0        6.760279    7.633811   -1.180199
     83          1           0        7.143516    7.918192    0.480186
     84          1           0        5.561850    7.300435    0.090065
     85          1           0       10.586459    2.311089    1.781278
     86          1           0       11.079181   -0.419138    0.980040
     87          1           0       12.260973    2.421296    0.074512
     88          1           0       10.834708    2.699446   -0.846312
     89          1           0       11.390023    1.061098   -0.738006
     90          1           0       11.453604    0.530172    3.397827
     91          1           0       10.608122   -0.999579    3.284041
     92          1           0        8.430158    0.006180    3.736706
     93          1           0        9.346360    1.617378    4.076100
     94          1           0        9.578908    0.224641    4.890382
     95          1           0        8.500590   -4.605551    1.884002
     96          1           0        8.528452   -5.150187    0.134072
     97          1           0        7.289626   -5.660390    1.241911
     98          1           0        3.293351   -4.085625   -1.825303
     99          1           0       -0.271179   -5.980821   -0.697708
    100          1           0       -0.750876   -4.363983   -0.577977
    101          1           0        0.081370   -5.119602    0.767505
    102          1           0       -3.648837   -1.572556    1.586156
    103          1           0       -3.766906   -3.169981    0.706718
    104          1           0       -5.080931   -0.540968   -0.470658
    105          1           0       -7.381310   -3.984597    0.099143
    106          1           0       -5.642812   -4.243707    0.354423
    107          1           0       -6.392032   -4.300030   -1.267031
    108          1           0       -7.334219   -2.234310   -2.229558
    109          1           0       -6.953014   -0.654717   -1.698246
    110          1           0       -9.026762   -2.437311   -0.216355
    111          1           0       -9.391702   -1.095836   -1.269902
    112          1           0       -7.443098   -0.221227    0.648747
    113          1           0       -8.708939   -0.942806    1.621017
    114          1           0      -10.247780    0.533037   -0.292996
    115          1           0       -8.890497    2.734720    0.312783
    116          1           0       -8.844543    1.920275   -1.319108
    117          1           0       -7.584593    1.654977   -0.167863
    118          1           0       -9.428956    1.857869    2.368518
    119          1           0      -10.057255    0.357405    2.502748
    120          1           0      -11.577631    2.004641    0.564702
    121          1           0      -11.178430    2.940254    1.999418
    122          1           0      -12.249350    0.758512    3.336172
    123          1           0      -12.659989    0.313436    1.719229
    124          1           0      -13.578954    3.024155    2.236953
    125          1           0      -13.254574    1.614701    4.804297
    126          1           0      -14.867139    1.484506    4.360703
    127          1           0      -14.096069    3.122899    4.449334
    128          1           0      -15.891645    1.836074    2.366495
    129          1           0      -15.018351    0.392912    1.969085
    130          1           0      -14.211366    2.770670    0.345364
    131          1           0      -15.876450    2.530695    0.288556
    132          1           0      -15.784424    0.438570   -0.848001
    133          1           0      -14.285473   -0.015858   -0.051487
    134          1           0      -13.573991    2.031700   -1.671353
    135          1           0      -14.641143    2.144167   -3.572217
    136          1           0      -15.849050    1.218265   -2.852747
    137          1           0      -14.593083    0.398493   -3.861783
    138          1           0      -13.067621   -0.952795   -2.320131
    139          1           0      -12.125394    0.037007   -1.133383
    140          1           0      -12.316193    0.513924   -2.873948
 ---------------------------------------------------------------------

 SCF Done:  E(RPBE1PBE) =  -3005.37574254     A.U. after   15 cycles

 Excitation energies and oscillator strengths:

 Excited State   1:      Singlet-A      1.9132 eV  648.04 nm  f=0.3716  <S**2>=0.000
     245 -> 248        0.17766
     246 -> 247        0.69150
 This state for optimization and/or second-order correction.
 Total Energy, E(TD-HF/TD-DFT) =  -3005.30543268
 Copying the excited state density for this state as the 1-particle RhoCI density.

 Excited State   2:      Singlet-A      2.2720 eV  545.71 nm  f=0.1118  <S**2>=0.000
     245 -> 247        0.65708
     246 -> 248       -0.25389

 Excited State   3:      Singlet-A      2.9054 eV  426.73 nm  f=0.0002  <S**2>=0.000
     244 -> 247        0.68189
     244 -> 249       -0.12610
     244 -> 250       -0.11774

 Excited State   4:      Singlet-A      3.0617 eV  404.95 nm  f=0.0007  <S**2>=0.000
     241 -> 247        0.59964
     241 -> 249        0.17751
     242 -> 247       -0.29929

 Excited State   5:      Singlet-A      3.2510 eV  381.37 nm  f=0.0007  <S**2>=0.000
     240 -> 247       -0.24645
     241 -> 247        0.28328
     242 -> 247        0.59119

 The electronic state is 1-A.
 Alpha  occ. eigenvalues --  -46.91786 -19.24912 -19.24170 -19.20146 -19.19382
 Alpha  occ. eigenvalues --  -19.18527 -19.17561 -14.41167 -14.40755 -14.39789
 Alpha  occ. eigenvalues --  -14.38790 -10.36287 -10.35582 -10.30943 -10.30380
 Alpha  occ. eigenvalues --  -10.29652 -10.28984 -10.28842 -10.28759 -10.28426
 Alpha  occ. eigenvalues --  -10.28139 -10.27757 -10.27710 -10.27396 -10.26873
 Alpha  occ. eigenvalues --  -10.26741 -10.26440 -10.26383 -10.26143 -10.25862
 Alpha  occ. eigenvalues --  -10.25334 -10.25271 -10.25175 -10.25131 -10.24999
 Alpha  occ. eigenvalues --  -10.24945 -10.24936 -10.24818 -10.24539 -10.24357
 Alpha  occ. eigenvalues --  -10.24055 -10.23667 -10.23580 -10.23522 -10.23511
 Alpha  occ. eigenvalues --  -10.23430 -10.23207 -10.23111 -10.22886 -10.22582
 Alpha  occ. eigenvalues --  -10.22525 -10.22452 -10.22451 -10.22228 -10.22173
 Alpha  occ. eigenvalues --  -10.22137 -10.21973 -10.21934 -10.21923 -10.21901
 Alpha  occ. eigenvalues --  -10.21651 -10.21630 -10.21484 -10.21457 -10.21414
 Alpha  occ. eigenvalues --  -10.21285  -3.13948  -1.86802  -1.86311  -1.86183
 Alpha  occ. eigenvalues --   -1.10205  -1.09911  -1.06480  -1.04296  -1.02350
 Alpha  occ. eigenvalues --   -1.02073  -0.99681  -0.98932  -0.97810  -0.96257
 Alpha  occ. eigenvalues --   -0.86954  -0.84601  -0.83857  -0.83498  -0.82953
 Alpha  occ. eigenvalues --   -0.82539  -0.82464  -0.82373  -0.81793  -0.81742
 Alpha  occ. eigenvalues --   -0.81283  -0.79482  -0.78593  -0.77961  -0.77791
 Alpha  occ. eigenvalues --   -0.77192  -0.76469  -0.75942  -0.75205  -0.74896
 Alpha  occ. eigenvalues --   -0.73668  -0.73305  -0.72273  -0.71254  -0.70475
 Alpha  occ. eigenvalues --   -0.69944  -0.69791  -0.69606  -0.68603  -0.68433
 Alpha  occ. eigenvalues --   -0.67649  -0.67080  -0.66222  -0.64738  -0.63745
 Alpha  occ. eigenvalues --   -0.63654  -0.62471  -0.62306  -0.60939  -0.60561
 Alpha  occ. eigenvalues --   -0.59772  -0.59156  -0.59110  -0.58551  -0.58298
 Alpha  occ. eigenvalues --   -0.58057  -0.56590  -0.56487  -0.56415  -0.54533
 Alpha  occ. eigenvalues --   -0.54248  -0.53913  -0.53603  -0.52646  -0.52254
 Alpha  occ. eigenvalues --   -0.51578  -0.50984  -0.50868  -0.50499  -0.50171
 Alpha  occ. eigenvalues --   -0.49689  -0.49210  -0.48834  -0.48510  -0.48418
 Alpha  occ. eigenvalues --   -0.48280  -0.47973  -0.47957  -0.47817  -0.47311
 Alpha  occ. eigenvalues --   -0.47284  -0.47104  -0.46973  -0.46643  -0.46354
 Alpha  occ. eigenvalues --   -0.46227  -0.45896  -0.45663  -0.45358  -0.45299
 Alpha  occ. eigenvalues --   -0.45160  -0.44987  -0.44870  -0.44463  -0.44414
 Alpha  occ. eigenvalues --   -0.44125  -0.43823  -0.43731  -0.43659  -0.43316
 Alpha  occ. eigenvalues --   -0.43101  -0.42923  -0.42778  -0.42702  -0.42395
 Alpha  occ. eigenvalues --   -0.42175  -0.41729  -0.41618  -0.41600  -0.41226
 Alpha  occ. eigenvalues --   -0.41064  -0.40957  -0.40577  -0.40390  -0.40247
 Alpha  occ. eigenvalues --   -0.40071  -0.39929  -0.39808  -0.39435  -0.39284
 Alpha  occ. eigenvalues --   -0.39242  -0.38924  -0.38647  -0.38585  -0.38457
 Alpha  occ. eigenvalues --   -0.38182  -0.38068  -0.37974  -0.37877  -0.37605
 Alpha  occ. eigenvalues --   -0.37511  -0.37461  -0.37287  -0.37004  -0.36907
 Alpha  occ. eigenvalues --   -0.36802  -0.36629  -0.36303  -0.36251  -0.35950
 Alpha  occ. eigenvalues --   -0.35773  -0.35406  -0.35258  -0.35213  -0.35209
 Alpha  occ. eigenvalues --   -0.34641  -0.34357  -0.34342  -0.34018  -0.33642
 Alpha  occ. eigenvalues --   -0.33570  -0.32885  -0.32701  -0.32445  -0.32187
 Alpha  occ. eigenvalues --   -0.31832  -0.31334  -0.31101  -0.30916  -0.30808
 Alpha  occ. eigenvalues --   -0.30663  -0.30387  -0.29528  -0.29376  -0.29025
 Alpha  occ. eigenvalues --   -0.28865  -0.28602  -0.28342  -0.27217  -0.26334
 Alpha  occ. eigenvalues --   -0.25849  -0.25782  -0.25347  -0.24811  -0.21047
 Alpha  occ. eigenvalues --   -0.18970
 Alpha virt. eigenvalues --   -0.11068  -0.05060  -0.03884  -0.01603   0.00853
 Alpha virt. eigenvalues --    0.01122   0.01210   0.01365   0.01837   0.02724
 Alpha virt. eigenvalues --    0.04234   0.04840   0.05099   0.05829   0.05908

 Mulliken charges:
               1
     1  Mg   0.978256
     2  C    0.018986
     3  C   -0.072352
     4  C   -0.066398
     5  C   -0.067949
     6  N   -0.321311
     7  C    0.019156
     8  C   -0.069732
     9  C   -0.128388
    10  C    0.052980
    11  C    0.032121
    12  C   -0.010260
    13  C   -0.027252
    14  C    0.226552
    15  O   -0.226465
    16  O   -0.417927
    17  N   -0.515270
    18  C    0.186331
    19  C   -0.186056
    20  C   -0.030844
    21  C    0.139208
    22  C    0.062318
    23  C    0.024425
    24  O   -0.229287
    25  C   -0.025588
    26  N   -0.407119
    27  C    0.104041
    28  C   -0.093885
    29  C   -0.077132
    30  C    0.097797
    31  C    0.013775
    32  C   -0.015661
    33  C   -0.058303
    34  N   -0.490599
    35  C    0.109641
    36  C   -0.223314
    37  C    0.077179
    38  C    0.111114
    39  C    0.070242
    40  C    0.055422
    41  O   -0.217438
    42  C   -0.119632
    43  C    0.273500
    44  O   -0.216897
    45  O   -0.394283
    46  C    0.123499
    47  C    0.261741
    48  C   -0.097744
    49  C   -0.210410
    50  C    0.022270
    51  C   -0.017655
    52  C   -0.050906
    53  C    0.006201
    54  C   -0.275152
    55  C    0.009587
    56  C    0.021845
    57  C   -0.028929
    58  C   -0.015542
    59  C   -0.243635
    60  C    0.007042
    61  C    0.002197
    62  C   -0.032586
    63  C   -0.010105
    64  C   -0.244438
    65  C   -0.004073
    66  C   -0.041559
    67  H   -0.001805
    68  H    0.024127
    69  H    0.001936
    70  H    0.033619
    71  H    0.040022
    72  H    0.047296
    73  H    0.055870
    74  H    0.053786
    75  H    0.033656
    76  H    0.080899
    77  H    0.069338
    78  H    0.055575
    79  H    0.045745
    80  H    0.051891
    81  H    0.064251
    82  H    0.062017
    83  H    0.053113
    84  H    0.052845
    85  H    0.044752
    86  H    0.032598
    87  H    0.052252
    88  H    0.039573
    89  H    0.034887
    90  H    0.041076
    91  H    0.029859
    92  H    0.059760
    93  H    0.045907
    94  H    0.019961
    95  H    0.046156
    96  H    0.059308
    97  H    0.051910
    98  H    0.074485
    99  H    0.050938
   100  H    0.038199
   101  H    0.073693
   102  H    0.069194
   103  H    0.046307
   104  H    0.022542
   105  H    0.043753
   106  H    0.035452
   107  H    0.044760
   108  H    0.032650
   109  H    0.025485
   110  H    0.035563
   111  H    0.038336
   112  H    0.034426
   113  H    0.021711
   114  H    0.050441
   115  H    0.029505
   116  H    0.033185
   117  H    0.025950
   118  H    0.014828
   119  H    0.019118
   120  H    0.037461
   121  H    0.026637
   122  H    0.021814
   123  H    0.020369
   124  H    0.030914
   125  H    0.029129
   126  H    0.024694
   127  H    0.039697
   128  H    0.018835
   129  H    0.029620
   130  H    0.024755
   131  H    0.022957
   132  H    0.026042
   133  H    0.018668
   134  H    0.030821
   135  H    0.028194
   136  H    0.024995
   137  H    0.036757
   138  H    0.040786
   139  H    0.063558
   140  H    0.035250
 Sum of Mulliken charges =  -0.00000

 Dipole moment (field-independent basis, Debye):
    X=             -2.2728    Y=              4.4505    Z=             -4.0242  Tot=              6.4161
 Quadrupole moment (field-independent basis, Debye-Ang):
   XX=           -366.4241   YY=           -411.2560   ZZ=           -397.7244
   XY=             11.2155   XZ=             -0.1094   YZ=             -4.1515

 Normal termination of Gaussian 16 at Tue Apr 26 17:22:20 2022.
