 Gaussian 16, Revision A.03,
 Gaussian 16:  ES64L-G16RevA.03 25-Dec-2016

 --------------------------------
 #p wB97XD/Def2SVP td=(nstates=5)
 --------------------------------

 ----------------------------------------------------
 step_1001_chromophore_1 TDDFT with wB97XD functional
 ----------------------------------------------------
 Symbolic Z-matrix:
 Charge =  0 Multiplicity = 1

                         Standard orientation:
 ---------------------------------------------------------------------
 Center     Atomic      Atomic             Coordinates (Angstroms)
 Number     Number       Type             X           Y           Z
 ---------------------------------------------------------------------
      1         12           0        6.176788    0.393915   -0.115394
      2          6           0        4.118903   -2.239939   -0.755232
      3          6           0        3.859857    2.443923   -1.795225
      4          6           0        8.248169    2.977008    0.353059
      5          6           0        8.633171   -1.713585    1.105790
      6          7           0        4.171200    0.099866   -1.354181
      7          6           0        3.512779   -1.090373   -1.306657
      8          6           0        2.110510   -0.811254   -1.854084
      9          6           0        2.238664    0.612595   -2.573011
     10          6           0        3.523999    1.090823   -1.935147
     11          6           0        2.430212    0.530307   -4.131435
     12          6           0        0.948447   -0.893232   -0.739801
     13          6           0       -0.476821   -1.391619   -1.152554
     14          6           0       -1.461697   -1.617043    0.046281
     15          8           0       -1.140278   -1.783356    1.187147
     16          8           0       -2.806354   -1.766118   -0.361441
     17          7           0        5.966125    2.441355   -0.385131
     18          6           0        4.950356    3.050600   -1.131873
     19          6           0        5.201925    4.518711   -1.048710
     20          6           0        6.416468    4.757628   -0.399337
     21          6           0        6.963538    3.372756   -0.107259
     22          6           0        4.239183    5.490620   -1.636127
     23          6           0        7.159231    5.947502   -0.034278
     24          8           0        8.229902    5.945624    0.514734
     25          6           0        6.615749    7.228902   -0.178485
     26          7           0        8.114948    0.659401    0.685235
     27          6           0        8.791550    1.803635    0.679014
     28          6           0       10.298500    1.630468    0.980216
     29          6           0       10.327189    0.148731    1.529112
     30          6           0        8.937497   -0.401356    1.060301
     31          6           0       11.293002    1.982483   -0.163808
     32          6           0       10.527549    0.063728    3.060283
     33          6           0        9.366948    0.546871    3.870767
     34          7           0        6.382349   -1.597066    0.092898
     35          6           0        7.408307   -2.345255    0.604560
     36          6           0        7.041123   -3.713200    0.569995
     37          6           0        5.752783   -3.769662    0.115879
     38          6           0        5.414846   -2.444920   -0.230131
     39          6           0        7.929001   -4.817367    0.981140
     40          6           0        4.608096   -4.501859   -0.112743
     41          8           0        4.422103   -5.669215    0.145627
     42          6           0        3.515550   -3.658717   -0.847392
     43          6           0        2.285431   -3.927652   -0.057512
     44          8           0        2.110991   -3.736170    1.115455
     45          8           0        1.323729   -4.495231   -0.901721
     46          6           0        0.078491   -5.020393   -0.317374
     47          6           0       -3.836322   -2.084556    0.642483
     48          6           0       -5.068909   -1.571663   -0.116263
     49          6           0       -6.138850   -2.286553   -0.545834
     50          6           0       -6.385994   -3.792948   -0.302231
     51          6           0       -7.248993   -1.634021   -1.323052
     52          6           0       -8.649398   -1.476683   -0.568254
     53          6           0       -8.499792   -0.487810    0.651952
     54          6           0       -9.470019    0.737418    0.443038
     55          6           0       -8.657289    1.831028   -0.248801
     56          6           0      -10.074145    1.189267    1.798740
     57          6           0      -11.324150    1.927353    1.623052
     58          6           0      -12.466312    1.177960    2.353978
     59          6           0      -13.764279    2.027861    2.637994
     60          6           0      -13.982675    2.083304    4.141970
     61          6           0      -14.980810    1.479366    1.886757
     62          6           0      -14.952317    1.981133    0.465016
     63          6           0      -14.787913    0.792762   -0.581741
     64          6           0      -13.961004    1.028474   -1.851049
     65          6           0      -14.792338    1.167092   -3.114118
     66          6           0      -12.780866    0.049787   -2.003903
     67          1           0        3.235945    3.166023   -2.325428
     68          1           0        8.910215    3.840621    0.440500
     69          1           0        9.344050   -2.420925    1.538322
     70          1           0        1.928377   -1.667364   -2.504128
     71          1           0        1.526020    1.364871   -2.233745
     72          1           0        2.753606    1.479991   -4.559705
     73          1           0        1.437861    0.255948   -4.489502
     74          1           0        3.200954   -0.227209   -4.271910
     75          1           0        0.869630    0.120567   -0.345673
     76          1           0        1.365944   -1.460946    0.092163
     77          1           0       -0.379797   -2.321296   -1.712287
     78          1           0       -1.028283   -0.704228   -1.793235
     79          1           0        4.214157    6.407281   -1.047917
     80          1           0        3.242990    5.061102   -1.734439
     81          1           0        4.592010    5.712757   -2.643109
     82          1           0        6.760279    7.633811   -1.180199
     83          1           0        7.143516    7.918192    0.480186
     84          1           0        5.561850    7.300435    0.090065
     85          1           0       10.586459    2.311089    1.781278
     86          1           0       11.079181   -0.419138    0.980040
     87          1           0       12.260973    2.421296    0.074512
     88          1           0       10.834708    2.699446   -0.846312
     89          1           0       11.390023    1.061098   -0.738006
     90          1           0       11.453604    0.530172    3.397827
     91          1           0       10.608122   -0.999579    3.284041
     92          1           0        8.430158    0.006180    3.736706
     93          1           0        9.346360    1.617378    4.076100
     94          1           0        9.578908    0.224641    4.890382
     95          1           0        8.500590   -4.605551    1.884002
     96          1           0        8.528452   -5.150187    0.134072
     97          1           0        7.289626   -5.660390    1.241911
     98          1           0        3.293351   -4.085625   -1.825303
     99          1           0       -0.271179   -5.980821   -0.697708
    100          1           0       -0.750876   -4.363983   -0.577977
    101          1           0        0.081370   -5.119602    0.767505
    102          1           0       -3.648837   -1.572556    1.586156
    103          1           0       -3.766906   -3.169981    0.706718
    104          1           0       -5.080931   -0.540968   -0.470658
    105          1           0       -7.381310   -3.984597    0.099143
    106          1           0       -5.642812   -4.243707    0.354423
    107          1           0       -6.392032   -4.300030   -1.267031
    108          1           0       -7.334219   -2.234310   -2.229558
    109          1           0       -6.953014   -0.654717   -1.698246
    110          1           0       -9.026762   -2.437311   -0.216355
    111          1           0       -9.391702   -1.095836   -1.269902
    112          1           0       -7.443098   -0.221227    0.648747
    113          1           0       -8.708939   -0.942806    1.621017
    114          1           0      -10.247780    0.533037   -0.292996
    115          1           0       -8.890497    2.734720    0.312783
    116          1           0       -8.844543    1.920275   -1.319108
    117          1           0       -7.584593    1.654977   -0.167863
    118          1           0       -9.428956    1.857869    2.368518
    119          1           0      -10.057255    0.357405    2.502748
    120          1           0      -11.577631    2.004641    0.564702
    121          1           0      -11.178430    2.940254    1.999418
    122          1           0      -12.249350    0.758512    3.336172
    123          1           0      -12.659989    0.313436    1.719229
    124          1           0      -13.578954    3.024155    2.236953
    125          1           0      -13.254574    1.614701    4.804297
    126          1           0      -14.867139    1.484506    4.360703
    127          1           0      -14.096069    3.122899    4.449334
    128          1           0      -15.891645    1.836074    2.366495
    129          1           0      -15.018351    0.392912    1.969085
    130          1           0      -14.211366    2.770670    0.345364
    131          1           0      -15.876450    2.530695    0.288556
    132          1           0      -15.784424    0.438570   -0.848001
    133          1           0      -14.285473   -0.015858   -0.051487
    134          1           0      -13.573991    2.031700   -1.671353
    135          1           0      -14.641143    2.144167   -3.572217
    136          1           0      -15.849050    1.218265   -2.852747
    137          1           0      -14.593083    0.398493   -3.861783
    138          1           0      -13.067621   -0.952795   -2.320131
    139          1           0      -12.125394    0.037007   -1.133383
    140          1           0      -12.316193    0.513924   -2.873948
 ---------------------------------------------------------------------

 SCF Done:  E(RwB97XD) =  -3007.88932158     A.U. after   17 cycles

 Excitation energies and oscillator strengths:

 Excited State   1:      Singlet-A      1.7903 eV  692.51 nm  f=0.3809  <S**2>=0.000
     245 -> 248        0.17889
     246 -> 247        0.68266
     245 <- 248        0.10727
 This state for optimization and/or second-order correction.
 Total Energy, E(TD-HF/TD-DFT) =  -3007.82352749
 Copying the excited state density for this state as the 1-particle RhoCI density.

 Excited State   2:      Singlet-A      2.2524 eV  550.45 nm  f=0.1146  <S**2>=0.000
     245 -> 247        0.64241
     246 -> 248       -0.27449

 Excited State   3:      Singlet-A      3.5340 eV  350.83 nm  f=0.2190  <S**2>=0.000
     239 -> 247        0.21869
     241 -> 247        0.43023
     243 -> 247       -0.14043
     245 -> 247        0.13637
     246 -> 248        0.44409

 Excited State   4:      Singlet-A      3.5770 eV  346.62 nm  f=0.0051  <S**2>=0.000
     240 -> 247        0.56096
     240 -> 249        0.36064
     240 -> 250       -0.10889

 Excited State   5:      Singlet-A      3.6051 eV  343.92 nm  f=0.0011  <S**2>=0.000
     244 -> 247        0.56121
     244 -> 248       -0.11319
     244 -> 249       -0.23387
     244 -> 250       -0.28049

 The electronic state is 1-A.
 Alpha  occ. eigenvalues --  -46.94708 -19.29358 -19.28654 -19.24763 -19.23976
 Alpha  occ. eigenvalues --  -19.23696 -19.21947 -14.46382 -14.45675 -14.44905
 Alpha  occ. eigenvalues --  -14.43500 -10.43014 -10.42289 -10.38174 -10.36867
 Alpha  occ. eigenvalues --  -10.36126 -10.35900 -10.35774 -10.35092 -10.34768
 Alpha  occ. eigenvalues --  -10.34584 -10.34560 -10.34387 -10.33717 -10.32944
 Alpha  occ. eigenvalues --  -10.32801 -10.32692 -10.32583 -10.32268 -10.32083
 Alpha  occ. eigenvalues --  -10.32064 -10.31962 -10.31874 -10.31498 -10.31415
 Alpha  occ. eigenvalues --  -10.31316 -10.31135 -10.31046 -10.31045 -10.30144
 Alpha  occ. eigenvalues --  -10.30109 -10.29936 -10.29886 -10.29879 -10.29872
 Alpha  occ. eigenvalues --  -10.29865 -10.29649 -10.29383 -10.29325 -10.29175
 Alpha  occ. eigenvalues --  -10.28855 -10.28852 -10.28669 -10.28569 -10.28525
 Alpha  occ. eigenvalues --  -10.28503 -10.28343 -10.28326 -10.28302 -10.28234
 Alpha  occ. eigenvalues --  -10.28080 -10.27991 -10.27902 -10.27785 -10.27704
 Alpha  occ. eigenvalues --  -10.27323  -3.20726  -1.94330  -1.93840  -1.93705
 Alpha  occ. eigenvalues --   -1.17516  -1.17193  -1.14309  -1.11386  -1.09633
 Alpha  occ. eigenvalues --   -1.09315  -1.06909  -1.06116  -1.05212  -1.03995
 Alpha  occ. eigenvalues --   -0.94338  -0.92272  -0.91526  -0.91362  -0.90609
 Alpha  occ. eigenvalues --   -0.90361  -0.90105  -0.90026  -0.89405  -0.89365
 Alpha  occ. eigenvalues --   -0.88581  -0.87212  -0.86302  -0.85745  -0.85366
 Alpha  occ. eigenvalues --   -0.84941  -0.84121  -0.83535  -0.82839  -0.82503
 Alpha  occ. eigenvalues --   -0.81375  -0.81155  -0.79847  -0.78763  -0.78042
 Alpha  occ. eigenvalues --   -0.77641  -0.77452  -0.77214  -0.76269  -0.76108
 Alpha  occ. eigenvalues --   -0.75125  -0.74698  -0.73768  -0.72412  -0.71350
 Alpha  occ. eigenvalues --   -0.71063  -0.70061  -0.69960  -0.68564  -0.68096
 Alpha  occ. eigenvalues --   -0.67265  -0.66790  -0.66454  -0.65990  -0.65989
 Alpha  occ. eigenvalues --   -0.65731  -0.64112  -0.64007  -0.63698  -0.62273
 Alpha  occ. eigenvalues --   -0.61585  -0.61418  -0.61076  -0.60045  -0.59557
 Alpha  occ. eigenvalues --   -0.59004  -0.58419  -0.58227  -0.58045  -0.57711
 Alpha  occ. eigenvalues --   -0.57055  -0.56659  -0.56249  -0.56038  -0.55948
 Alpha  occ. eigenvalues --   -0.55785  -0.55751  -0.55414  -0.55038  -0.54638
 Alpha  occ. eigenvalues --   -0.54616  -0.54423  -0.54308  -0.54025  -0.53668
 Alpha  occ. eigenvalues --   -0.53492  -0.53158  -0.53106  -0.52976  -0.52679
 Alpha  occ. eigenvalues --   -0.52524  -0.52346  -0.52217  -0.51869  -0.51680
 Alpha  occ. eigenvalues --   -0.51538  -0.51244  -0.51047  -0.50838  -0.50610
 Alpha  occ. eigenvalues --   -0.50421  -0.50165  -0.50094  -0.49937  -0.49601
 Alpha  occ. eigenvalues --   -0.49557  -0.49001  -0.48853  -0.48651  -0.48402
 Alpha  occ. eigenvalues --   -0.48290  -0.48174  -0.47821  -0.47559  -0.47418
 Alpha  occ. eigenvalues --   -0.47290  -0.47133  -0.47088  -0.46539  -0.46407
 Alpha  occ. eigenvalues --   -0.46328  -0.46102  -0.45905  -0.45707  -0.45485
 Alpha  occ. eigenvalues --   -0.45275  -0.45214  -0.45158  -0.44962  -0.44687
 Alpha  occ. eigenvalues --   -0.44612  -0.44488  -0.44388  -0.44250  -0.44091
 Alpha  occ. eigenvalues --   -0.43960  -0.43668  -0.43386  -0.43250  -0.42949
 Alpha  occ. eigenvalues --   -0.42854  -0.42475  -0.42323  -0.42268  -0.42160
 Alpha  occ. eigenvalues --   -0.41605  -0.41451  -0.41281  -0.41029  -0.40712
 Alpha  occ. eigenvalues --   -0.40593  -0.39782  -0.39739  -0.39379  -0.39299
 Alpha  occ. eigenvalues --   -0.38790  -0.38339  -0.38129  -0.37844  -0.37800
 Alpha  occ. eigenvalues --   -0.37611  -0.37306  -0.36399  -0.36316  -0.36036
 Alpha  occ. eigenvalues --   -0.35796  -0.35472  -0.35036  -0.33981  -0.33406
 Alpha  occ. eigenvalues --   -0.33069  -0.32017  -0.31984  -0.31573  -0.26170
 Alpha  occ. eigenvalues --   -0.23264
 Alpha virt. eigenvalues --   -0.06830   0.00396   0.02242   0.05033   0.06985
 Alpha virt. eigenvalues --    0.07661   0.08071   0.08125   0.08575   0.08845
 Alpha virt. eigenvalues --    0.11003   0.11562   0.11665   0.12519   0.12613

 Mulliken charges:
               1
     1  Mg   0.967876
     2  C    0.020452
     3  C   -0.090207
     4  C   -0.087002
     5  C   -0.084454
     6  N   -0.283024
     7  C   -0.023523
     8  C   -0.044358
     9  C   -0.099584
    10  C    0.035008
    11  C    0.041737
    12  C    0.003675
    13  C   -0.008165
    14  C    0.213662
    15  O   -0.222997
    16  O   -0.416528
    17  N   -0.490442
    18  C    0.184652
    19  C   -0.171083
    20  C   -0.023944
    21  C    0.133974
    22  C    0.073167
    23  C    0.026049
    24  O   -0.220030
    25  C   -0.021040
    26  N   -0.376812
    27  C    0.102054
    28  C   -0.077618
    29  C   -0.050228
    30  C    0.086132
    31  C    0.025061
    32  C   -0.000830
    33  C   -0.042693
    34  N   -0.450212
    35  C    0.091624
    36  C   -0.218863
    37  C    0.086703
    38  C    0.089537
    39  C    0.078026
    40  C    0.032269
    41  O   -0.212161
    42  C   -0.074923
    43  C    0.241364
    44  O   -0.209529
    45  O   -0.391130
    46  C    0.142854
    47  C    0.271998
    48  C   -0.101387
    49  C   -0.202218
    50  C    0.036296
    51  C    0.009056
    52  C   -0.037216
    53  C    0.026670
    54  C   -0.225601
    55  C    0.017477
    56  C    0.034055
    57  C   -0.003702
    58  C    0.000894
    59  C   -0.210200
    60  C    0.018813
    61  C    0.017579
    62  C   -0.017112
    63  C    0.007028
    64  C   -0.214393
    65  C    0.005969
    66  C   -0.014858
    67  H   -0.007999
    68  H    0.018625
    69  H   -0.004880
    70  H    0.021495
    71  H    0.031193
    72  H    0.041267
    73  H    0.051174
    74  H    0.048395
    75  H    0.024049
    76  H    0.069748
    77  H    0.060794
    78  H    0.049663
    79  H    0.041921
    80  H    0.049416
    81  H    0.062060
    82  H    0.059836
    83  H    0.053416
    84  H    0.047890
    85  H    0.035030
    86  H    0.023471
    87  H    0.048701
    88  H    0.032085
    89  H    0.028629
    90  H    0.033832
    91  H    0.021663
    92  H    0.052759
    93  H    0.038841
    94  H    0.013517
    95  H    0.039363
    96  H    0.052518
    97  H    0.046456
    98  H    0.069221
    99  H    0.047316
   100  H    0.028287
   101  H    0.070641
   102  H    0.066149
   103  H    0.041491
   104  H    0.018603
   105  H    0.037050
   106  H    0.029431
   107  H    0.039080
   108  H    0.024720
   109  H    0.015265
   110  H    0.027250
   111  H    0.029821
   112  H    0.015295
   113  H    0.014071
   114  H    0.019882
   115  H    0.022467
   116  H    0.029280
   117  H    0.018906
   118  H    0.006925
   119  H    0.009019
   120  H    0.020349
   121  H    0.019140
   122  H    0.010989
   123  H    0.005637
   124  H    0.016629
   125  H    0.023442
   126  H    0.017927
   127  H    0.034781
   128  H    0.011069
   129  H    0.020054
   130  H    0.013026
   131  H    0.016286
   132  H    0.017926
   133  H    0.004140
   134  H    0.017218
   135  H    0.022860
   136  H    0.018460
   137  H    0.031509
   138  H    0.035269
   139  H    0.046856
   140  H    0.027692
 Sum of Mulliken charges =  -0.00000

 Dipole moment (field-independent basis, Debye):
    X=             -2.4538    Y=              5.6263    Z=             -4.2967  Tot=              7.4926
 Quadrupole moment (field-independent basis, Debye-Ang):
   XX=           -369.2297   YY=           -408.4940   ZZ=           -397.2816
   XY=             18.4309   XZ=             -1.8337   YZ=             -4.4579

 Normal termination of Gaussian 16 at Tue Apr 26 17:49:01 2022.
