 Gaussian 16, Revision A.03,
 Gaussian 16:  ES64L-G16RevA.03 25-Dec-2016

 --------------------
 #p ZINDO=(nstates=5)
 --------------------

 -----------------------------
 step_1001_chromophore_1 ZINDO
 -----------------------------
 Symbolic Z-matrix:
 Charge =  0 Multiplicity = 1

                         Standard orientation:
 ---------------------------------------------------------------------
 Center     Atomic      Atomic             Coordinates (Angstroms)
 Number     Number       Type             X           Y           Z
 ---------------------------------------------------------------------
      1         12           0        6.176788    0.393915   -0.115394
      2          6           0        4.118903   -2.239939   -0.755232
      3          6           0        3.859857    2.443923   -1.795225
      4          6           0        8.248169    2.977008    0.353059
      5          6           0        8.633171   -1.713585    1.105790
      6          7           0        4.171200    0.099866   -1.354181
      7          6           0        3.512779   -1.090373   -1.306657
      8          6           0        2.110510   -0.811254   -1.854084
      9          6           0        2.238664    0.612595   -2.573011
     10          6           0        3.523999    1.090823   -1.935147
     11          6           0        2.430212    0.530307   -4.131435
     12          6           0        0.948447   -0.893232   -0.739801
     13          6           0       -0.476821   -1.391619   -1.152554
     14          6           0       -1.461697   -1.617043    0.046281
     15          8           0       -1.140278   -1.783356    1.187147
     16          8           0       -2.806354   -1.766118   -0.361441
     17          7           0        5.966125    2.441355   -0.385131
     18          6           0        4.950356    3.050600   -1.131873
     19          6           0        5.201925    4.518711   -1.048710
     20          6           0        6.416468    4.757628   -0.399337
     21          6           0        6.963538    3.372756   -0.107259
     22          6           0        4.239183    5.490620   -1.636127
     23          6           0        7.159231    5.947502   -0.034278
     24          8           0        8.229902    5.945624    0.514734
     25          6           0        6.615749    7.228902   -0.178485
     26          7           0        8.114948    0.659401    0.685235
     27          6           0        8.791550    1.803635    0.679014
     28          6           0       10.298500    1.630468    0.980216
     29          6           0       10.327189    0.148731    1.529112
     30          6           0        8.937497   -0.401356    1.060301
     31          6           0       11.293002    1.982483   -0.163808
     32          6           0       10.527549    0.063728    3.060283
     33          6           0        9.366948    0.546871    3.870767
     34          7           0        6.382349   -1.597066    0.092898
     35          6           0        7.408307   -2.345255    0.604560
     36          6           0        7.041123   -3.713200    0.569995
     37          6           0        5.752783   -3.769662    0.115879
     38          6           0        5.414846   -2.444920   -0.230131
     39          6           0        7.929001   -4.817367    0.981140
     40          6           0        4.608096   -4.501859   -0.112743
     41          8           0        4.422103   -5.669215    0.145627
     42          6           0        3.515550   -3.658717   -0.847392
     43          6           0        2.285431   -3.927652   -0.057512
     44          8           0        2.110991   -3.736170    1.115455
     45          8           0        1.323729   -4.495231   -0.901721
     46          6           0        0.078491   -5.020393   -0.317374
     47          6           0       -3.836322   -2.084556    0.642483
     48          6           0       -5.068909   -1.571663   -0.116263
     49          6           0       -6.138850   -2.286553   -0.545834
     50          6           0       -6.385994   -3.792948   -0.302231
     51          6           0       -7.248993   -1.634021   -1.323052
     52          6           0       -8.649398   -1.476683   -0.568254
     53          6           0       -8.499792   -0.487810    0.651952
     54          6           0       -9.470019    0.737418    0.443038
     55          6           0       -8.657289    1.831028   -0.248801
     56          6           0      -10.074145    1.189267    1.798740
     57          6           0      -11.324150    1.927353    1.623052
     58          6           0      -12.466312    1.177960    2.353978
     59          6           0      -13.764279    2.027861    2.637994
     60          6           0      -13.982675    2.083304    4.141970
     61          6           0      -14.980810    1.479366    1.886757
     62          6           0      -14.952317    1.981133    0.465016
     63          6           0      -14.787913    0.792762   -0.581741
     64          6           0      -13.961004    1.028474   -1.851049
     65          6           0      -14.792338    1.167092   -3.114118
     66          6           0      -12.780866    0.049787   -2.003903
     67          1           0        3.235945    3.166023   -2.325428
     68          1           0        8.910215    3.840621    0.440500
     69          1           0        9.344050   -2.420925    1.538322
     70          1           0        1.928377   -1.667364   -2.504128
     71          1           0        1.526020    1.364871   -2.233745
     72          1           0        2.753606    1.479991   -4.559705
     73          1           0        1.437861    0.255948   -4.489502
     74          1           0        3.200954   -0.227209   -4.271910
     75          1           0        0.869630    0.120567   -0.345673
     76          1           0        1.365944   -1.460946    0.092163
     77          1           0       -0.379797   -2.321296   -1.712287
     78          1           0       -1.028283   -0.704228   -1.793235
     79          1           0        4.214157    6.407281   -1.047917
     80          1           0        3.242990    5.061102   -1.734439
     81          1           0        4.592010    5.712757   -2.643109
     82          1           0        6.760279    7.633811   -1.180199
     83          1           0        7.143516    7.918192    0.480186
     84          1           0        5.561850    7.300435    0.090065
     85          1           0       10.586459    2.311089    1.781278
     86          1           0       11.079181   -0.419138    0.980040
     87          1           0       12.260973    2.421296    0.074512
     88          1           0       10.834708    2.699446   -0.846312
     89          1           0       11.390023    1.061098   -0.738006
     90          1           0       11.453604    0.530172    3.397827
     91          1           0       10.608122   -0.999579    3.284041
     92          1           0        8.430158    0.006180    3.736706
     93          1           0        9.346360    1.617378    4.076100
     94          1           0        9.578908    0.224641    4.890382
     95          1           0        8.500590   -4.605551    1.884002
     96          1           0        8.528452   -5.150187    0.134072
     97          1           0        7.289626   -5.660390    1.241911
     98          1           0        3.293351   -4.085625   -1.825303
     99          1           0       -0.271179   -5.980821   -0.697708
    100          1           0       -0.750876   -4.363983   -0.577977
    101          1           0        0.081370   -5.119602    0.767505
    102          1           0       -3.648837   -1.572556    1.586156
    103          1           0       -3.766906   -3.169981    0.706718
    104          1           0       -5.080931   -0.540968   -0.470658
    105          1           0       -7.381310   -3.984597    0.099143
    106          1           0       -5.642812   -4.243707    0.354423
    107          1           0       -6.392032   -4.300030   -1.267031
    108          1           0       -7.334219   -2.234310   -2.229558
    109          1           0       -6.953014   -0.654717   -1.698246
    110          1           0       -9.026762   -2.437311   -0.216355
    111          1           0       -9.391702   -1.095836   -1.269902
    112          1           0       -7.443098   -0.221227    0.648747
    113          1           0       -8.708939   -0.942806    1.621017
    114          1           0      -10.247780    0.533037   -0.292996
    115          1           0       -8.890497    2.734720    0.312783
    116          1           0       -8.844543    1.920275   -1.319108
    117          1           0       -7.584593    1.654977   -0.167863
    118          1           0       -9.428956    1.857869    2.368518
    119          1           0      -10.057255    0.357405    2.502748
    120          1           0      -11.577631    2.004641    0.564702
    121          1           0      -11.178430    2.940254    1.999418
    122          1           0      -12.249350    0.758512    3.336172
    123          1           0      -12.659989    0.313436    1.719229
    124          1           0      -13.578954    3.024155    2.236953
    125          1           0      -13.254574    1.614701    4.804297
    126          1           0      -14.867139    1.484506    4.360703
    127          1           0      -14.096069    3.122899    4.449334
    128          1           0      -15.891645    1.836074    2.366495
    129          1           0      -15.018351    0.392912    1.969085
    130          1           0      -14.211366    2.770670    0.345364
    131          1           0      -15.876450    2.530695    0.288556
    132          1           0      -15.784424    0.438570   -0.848001
    133          1           0      -14.285473   -0.015858   -0.051487
    134          1           0      -13.573991    2.031700   -1.671353
    135          1           0      -14.641143    2.144167   -3.572217
    136          1           0      -15.849050    1.218265   -2.852747
    137          1           0      -14.593083    0.398493   -3.861783
    138          1           0      -13.067621   -0.952795   -2.320131
    139          1           0      -12.125394    0.037007   -1.133383
    140          1           0      -12.316193    0.513924   -2.873948
 ---------------------------------------------------------------------

 SCF Done:  E(RZINDO/S) =  -474.638733681     A.U. after   19 cycles

 Excitation energies and oscillator strengths:

 Excited State   1:      Singlet-A      1.3865 eV  894.25 nm  f=0.5519  <S**2>=0.000
     175 ->178         0.15355
     176 ->177         0.67247
 This state for optimization and/or second-order correction.
 Total Energy, E(CIS/TDA) =  -474.587782233
 Copying the excited state density for this state as the 1-particle RhoCI density.

 Excited State   2:      Singlet-A      2.0234 eV  612.76 nm  f=0.0377  <S**2>=0.000
     175 ->177         0.53907
     176 ->178        -0.41866

 Excited State   3:      Singlet-A      2.7108 eV  457.36 nm  f=0.0014  <S**2>=0.000
     168 ->177         0.35684
     168 ->179        -0.47427
     168 ->180         0.16182
     168 ->186        -0.20656
     168 ->189         0.11274

 Excited State   4:      Singlet-A      2.9403 eV  421.67 nm  f=0.0773  <S**2>=0.000
     171 ->177         0.25833
     171 ->178        -0.16360
     171 ->179         0.16111
     171 ->180         0.34771
     171 ->182        -0.10259
     171 ->186         0.16773
     171 ->189         0.10962
     171 ->205        -0.12739
     172 ->180        -0.13167
     174 ->177        -0.11451
     174 ->180        -0.11046
     175 ->177         0.11419
     176 ->178         0.15695

 Excited State   5:      Singlet-A      3.0009 eV  413.15 nm  f=0.8613  <S**2>=0.000
     170 ->177        -0.10248
     171 ->180        -0.13615
     175 ->177         0.36163
     176 ->178         0.48915
     176 ->179        -0.11636
     176 ->180        -0.14113

 The electronic state is 1-A.
 Alpha  occ. eigenvalues --   -1.85928  -1.80888  -1.80510  -1.72121  -1.71352
 Alpha  occ. eigenvalues --   -1.69993  -1.67349  -1.65343  -1.61495  -1.58654
 Alpha  occ. eigenvalues --   -1.55163  -1.52280  -1.48085  -1.47093  -1.46585
 Alpha  occ. eigenvalues --   -1.43630  -1.41320  -1.40857  -1.38962  -1.38649
 Alpha  occ. eigenvalues --   -1.36034  -1.33439  -1.32522  -1.32265  -1.29986
 Alpha  occ. eigenvalues --   -1.26414  -1.25605  -1.22924  -1.20638  -1.18574
 Alpha  occ. eigenvalues --   -1.17145  -1.16193  -1.15311  -1.14181  -1.12858
 Alpha  occ. eigenvalues --   -1.12295  -1.11817  -1.11024  -1.05345  -1.04642
 Alpha  occ. eigenvalues --   -1.03990  -1.01739  -0.99198  -0.97769  -0.97112
 Alpha  occ. eigenvalues --   -0.96087  -0.94416  -0.93357  -0.93092  -0.92553
 Alpha  occ. eigenvalues --   -0.92379  -0.89901  -0.88595  -0.87815  -0.86238
 Alpha  occ. eigenvalues --   -0.85846  -0.83028  -0.82079  -0.81424  -0.80216
 Alpha  occ. eigenvalues --   -0.79769  -0.79095  -0.77554  -0.76159  -0.76115
 Alpha  occ. eigenvalues --   -0.75506  -0.75091  -0.74813  -0.73723  -0.73280
 Alpha  occ. eigenvalues --   -0.72961  -0.72753  -0.72176  -0.71350  -0.70919
 Alpha  occ. eigenvalues --   -0.70149  -0.70053  -0.69442  -0.69300  -0.68635
 Alpha  occ. eigenvalues --   -0.68148  -0.67385  -0.67079  -0.66222  -0.66021
 Alpha  occ. eigenvalues --   -0.65393  -0.64691  -0.63907  -0.63442  -0.62950
 Alpha  occ. eigenvalues --   -0.62539  -0.62459  -0.62443  -0.61926  -0.61705
 Alpha  occ. eigenvalues --   -0.61129  -0.60939  -0.60557  -0.60175  -0.60058
 Alpha  occ. eigenvalues --   -0.59577  -0.59296  -0.59150  -0.58478  -0.58206
 Alpha  occ. eigenvalues --   -0.57815  -0.57710  -0.56523  -0.56461  -0.55948
 Alpha  occ. eigenvalues --   -0.55538  -0.55086  -0.54718  -0.54511  -0.54329
 Alpha  occ. eigenvalues --   -0.53590  -0.53478  -0.52789  -0.52667  -0.52470
 Alpha  occ. eigenvalues --   -0.52237  -0.52082  -0.51942  -0.51582  -0.51267
 Alpha  occ. eigenvalues --   -0.51052  -0.50703  -0.50621  -0.50317  -0.50121
 Alpha  occ. eigenvalues --   -0.49553  -0.49215  -0.48983  -0.48771  -0.48487
 Alpha  occ. eigenvalues --   -0.48396  -0.48118  -0.47942  -0.47612  -0.47398
 Alpha  occ. eigenvalues --   -0.47269  -0.46904  -0.46606  -0.46469  -0.46414
 Alpha  occ. eigenvalues --   -0.46280  -0.45994  -0.45898  -0.45414  -0.45011
 Alpha  occ. eigenvalues --   -0.44789  -0.44430  -0.44293  -0.43862  -0.43620
 Alpha  occ. eigenvalues --   -0.43141  -0.43025  -0.42038  -0.41949  -0.41753
 Alpha  occ. eigenvalues --   -0.41504  -0.40974  -0.40113  -0.38810  -0.38692
 Alpha  occ. eigenvalues --   -0.37141  -0.36533  -0.35186  -0.34732  -0.34092
 Alpha  occ. eigenvalues --   -0.32851  -0.32786  -0.32175  -0.31524  -0.26972
 Alpha  occ. eigenvalues --   -0.21934
 Alpha virt. eigenvalues --   -0.08092  -0.01853  -0.00667   0.02077   0.02818
 Alpha virt. eigenvalues --    0.03281   0.03533   0.04347   0.04826   0.05352
 Alpha virt. eigenvalues --    0.06343   0.06766   0.07096   0.07360   0.07892

 Mulliken charges:
               1
     1  Mg   0.425676
     2  C   -0.021464
     3  C   -0.082431
     4  C   -0.083138
     5  C   -0.068268
     6  N   -0.279578
     7  C    0.076561
     8  C    0.005541
     9  C   -0.000712
    10  C    0.172591
    11  C   -0.046016
    12  C   -0.028523
    13  C    0.011468
    14  C    0.451271
    15  O   -0.484701
    16  O   -0.298530
    17  N   -0.341624
    18  C    0.127276
    19  C    0.054728
    20  C   -0.039072
    21  C    0.163908
    22  C   -0.041720
    23  C    0.351758
    24  O   -0.522026
    25  C   -0.022563
    26  N   -0.289996
    27  C    0.202689
    28  C    0.001372
    29  C   -0.003507
    30  C    0.090451
    31  C   -0.051027
    32  C   -0.014042
    33  C   -0.060853
    34  N   -0.298075
    35  C    0.052921
    36  C    0.016864
    37  C   -0.047797
    38  C    0.091214
    39  C   -0.043225
    40  C    0.341480
    41  O   -0.543852
    42  C    0.042210
    43  C    0.494762
    44  O   -0.504476
    45  O   -0.290191
    46  C    0.071538
    47  C    0.111093
    48  C   -0.087716
    49  C   -0.008013
    50  C   -0.046128
    51  C   -0.021132
    52  C   -0.036326
    53  C   -0.043940
    54  C   -0.017185
    55  C   -0.060638
    56  C   -0.030312
    57  C   -0.024184
    58  C   -0.044784
    59  C   -0.014899
    60  C   -0.059818
    61  C   -0.025465
    62  C   -0.037764
    63  C   -0.039225
    64  C   -0.009291
    65  C   -0.054856
    66  C   -0.057862
    67  H    0.022692
    68  H    0.033192
    69  H    0.026599
    70  H    0.022713
    71  H    0.036211
    72  H    0.025193
    73  H    0.024361
    74  H    0.033721
    75  H    0.018384
    76  H    0.050805
    77  H    0.048571
    78  H    0.032765
    79  H    0.033045
    80  H    0.030998
    81  H    0.036145
    82  H    0.040485
    83  H    0.034192
    84  H    0.024417
    85  H    0.027008
    86  H    0.022176
    87  H    0.031846
    88  H    0.016796
    89  H    0.018780
    90  H    0.020638
    91  H    0.013563
    92  H    0.039810
    93  H    0.028956
    94  H   -0.003894
    95  H    0.025916
    96  H    0.030999
    97  H    0.023374
    98  H    0.057149
    99  H    0.034066
   100  H    0.026219
   101  H    0.055452
   102  H    0.061208
   103  H    0.049723
   104  H    0.034596
   105  H    0.026091
   106  H    0.023933
   107  H    0.026377
   108  H    0.015283
   109  H    0.016738
   110  H    0.020852
   111  H    0.020363
   112  H    0.027402
   113  H    0.019221
   114  H    0.030029
   115  H    0.017174
   116  H    0.018109
   117  H    0.016607
   118  H    0.009772
   119  H    0.018456
   120  H    0.021002
   121  H    0.016635
   122  H    0.024405
   123  H    0.014000
   124  H    0.020628
   125  H    0.019524
   126  H    0.013690
   127  H    0.016630
   128  H    0.010123
   129  H    0.022110
   130  H    0.022727
   131  H    0.011340
   132  H    0.018551
   133  H    0.013850
   134  H    0.014058
   135  H    0.012631
   136  H    0.016268
   137  H    0.022998
   138  H    0.024496
   139  H    0.026796
   140  H    0.011825
 Sum of Mulliken charges =  -0.00000

 Dipole moment (field-independent basis, Debye):
    X=             -3.8449    Y=              9.8561    Z=             -8.8623  Tot=             13.8009
 N-N= 4.254607809577D+03 E-N= 0.000000000000D+00  KE=-9.184568475353D+03
 Leave Link  601 at Tue Apr 26 18:01:54 2022, MaxMem=  6710886400 cpu:               0.8 elap:               0.1
 (Enter /sw/apps/gaussian-16.0/g16/l9999.exe)
 1\1\GINC-BP1-COMPUTE148\SP\RZINDO CIS\STO-3G\C55H74Mg1N4O6\OF15641\26-
 Apr-2022\0\\#p ZINDO=(nstates=5)\\step_1001_chromophore_1 ZINDO\\0,1\M
 g,0,-1.969,17.241,26.689\C,0,-2.27,15.084,29.304\C,0,-3.13,19.787,28.8
 25\C,0,-1.84,19.356,24.102\C,0,-1.286,14.64,24.513\N,0,-2.812,17.404,2
 8.904\C,0,-2.669,16.358,29.763\C,0,-2.934,16.928,31.159\C,0,-3.63,18.3
 43,30.887\C,0,-3.236,18.532,29.439\C,0,-5.198,18.32,31.001\C,0,-1.622,
 16.999,32.093\C,0,-1.769,16.803,33.639\C,0,-0.411,16.695,34.415\O,0,0.

 Normal termination of Gaussian 16 at Tue Apr 26 18:01:54 2022.
