 Gaussian 16, Revision A.03,
 Gaussian 16:  ES64L-G16RevA.03 25-Dec-2016

 ------------------------------
 #p blyp/Def2SVP td=(nstates=5)
 ------------------------------

 --------------------------------------------------
 step_551_chromophore_12 TDDFT with blyp functional
 --------------------------------------------------
 Symbolic Z-matrix:
 Charge =  0 Multiplicity = 1

                         Standard orientation:
 ---------------------------------------------------------------------
 Center     Atomic      Atomic             Coordinates (Angstroms)
 Number     Number       Type             X           Y           Z
 ---------------------------------------------------------------------
      1         12           0        4.340523    0.594892    0.343272
      2          6           0        3.595318   -2.886620   -0.305019
      3          6           0        0.958999    1.251886   -0.201900
      4          6           0        5.051830    3.732795    0.479201
      5          6           0        7.691809   -0.290709    0.133484
      6          7           0        2.512249   -0.747896   -0.126867
      7          6           0        2.385736   -2.047142   -0.318328
      8          6           0        0.912689   -2.534409   -0.495591
      9          6           0        0.249458   -1.119513   -0.464243
     10          6           0        1.310017   -0.155480   -0.239409
     11          6           0       -0.625469   -0.716150   -1.678477
     12          6           0        0.358618   -3.516369    0.587633
     13          6           0       -1.084455   -3.992164    0.272029
     14          6           0       -2.168592   -3.968586    1.366417
     15          8           0       -1.990978   -3.598395    2.521534
     16          8           0       -3.428416   -4.346610    0.875741
     17          7           0        3.171096    2.242472    0.262895
     18          6           0        1.784414    2.314446    0.095854
     19          6           0        1.431378    3.655411    0.301556
     20          6           0        2.600146    4.417356    0.500073
     21          6           0        3.677712    3.445691    0.366255
     22          6           0       -0.048879    4.128065    0.245731
     23          6           0        2.730885    5.856272    0.788303
     24          8           0        3.754271    6.378934    1.125154
     25          6           0        1.690550    6.856360    0.609167
     26          7           0        6.132434    1.624459    0.080741
     27          6           0        6.192238    2.938875    0.387675
     28          6           0        7.691996    3.404140    0.533308
     29          6           0        8.494185    2.084497    0.570241
     30          6           0        7.394651    1.072713    0.239074
     31          6           0        8.119730    4.462553   -0.535328
     32          6           0        9.152400    1.700362    1.911587
     33          6           0       10.647176    1.891630    2.001339
     34          7           0        5.443564   -1.191913   -0.064896
     35          6           0        6.814538   -1.402337    0.016363
     36          6           0        7.134254   -2.843896   -0.224548
     37          6           0        5.861795   -3.371492   -0.382684
     38          6           0        4.905694   -2.391194   -0.190431
     39          6           0        8.464390   -3.544287   -0.294489
     40          6           0        5.178644   -4.609230   -0.620999
     41          8           0        5.566484   -5.743703   -0.817174
     42          6           0        3.681154   -4.376497   -0.566884
     43          6           0        3.056467   -4.784224   -1.906140
     44          8           0        3.381072   -4.400588   -2.965293
     45          8           0        2.108109   -5.708230   -1.595189
     46          6           0        1.644902   -6.464035   -2.788302
     47          6           0       -4.538364   -4.278258    1.905143
     48          6           0       -5.897193   -4.272133    1.312494
     49          6           0       -7.065980   -3.911642    1.881606
     50          6           0       -7.122169   -3.588846    3.380472
     51          6           0       -8.417440   -3.817260    1.166892
     52          6           0       -8.797074   -2.504284    0.370695
     53          6           0      -10.293867   -2.125036    0.170247
     54          6           0      -10.645530   -0.657488    0.261110
     55          6           0      -12.104106   -0.506749    0.569613
     56          6           0      -10.276598    0.138351   -1.037791
     57          6           0       -8.937607    0.934071   -0.885320
     58          6           0       -9.220436    2.401423   -1.076942
     59          6           0       -8.340925    3.350802   -0.168509
     60          6           0       -9.135917    3.843322    1.106063
     61          6           0       -7.764609    4.554574   -1.021739
     62          6           0       -6.506954    4.087721   -1.661390
     63          6           0       -5.527866    5.272250   -2.094130
     64          6           0       -4.135709    5.114558   -1.598097
     65          6           0       -3.440644    3.845256   -2.042150
     66          6           0       -3.892768    5.362017   -0.088473
     67          1           0       -0.102939    1.486028   -0.308910
     68          1           0        5.407920    4.752088    0.641561
     69          1           0        8.709990   -0.678666    0.197830
     70          1           0        0.933528   -2.817105   -1.547974
     71          1           0       -0.482762   -1.116743    0.343127
     72          1           0       -0.071851   -0.008668   -2.295792
     73          1           0       -1.594126   -0.291021   -1.415579
     74          1           0       -0.708535   -1.619309   -2.283123
     75          1           0        0.333704   -3.065404    1.580482
     76          1           0        1.053381   -4.355953    0.582878
     77          1           0       -0.912557   -4.930344   -0.254889
     78          1           0       -1.594535   -3.396784   -0.485047
     79          1           0       -0.670590    3.314792    0.620681
     80          1           0       -0.305613    4.553810   -0.724645
     81          1           0       -0.331374    4.838027    1.023111
     82          1           0        2.160366    7.820181    0.803872
     83          1           0        0.836182    6.692482    1.265799
     84          1           0        1.421290    6.874967   -0.446781
     85          1           0        7.783907    3.874386    1.512662
     86          1           0        9.199422    2.135461   -0.259006
     87          1           0        8.098099    5.429310   -0.030861
     88          1           0        7.364198    4.665350   -1.294595
     89          1           0        9.131032    4.252974   -0.884456
     90          1           0        8.907695    0.667433    2.156589
     91          1           0        8.649399    2.346597    2.631725
     92          1           0       10.974814    2.707455    1.356751
     93          1           0       11.143980    0.931430    1.864001
     94          1           0       10.853404    2.204869    3.025203
     95          1           0        8.528697   -4.075764   -1.243784
     96          1           0        8.390840   -4.294854    0.492234
     97          1           0        9.289492   -2.835693   -0.226271
     98          1           0        3.243898   -4.850459    0.310941
     99          1           0        1.552675   -5.951185   -3.745259
    100          1           0        0.643565   -6.761787   -2.477191
    101          1           0        2.240285   -7.365918   -2.928676
    102          1           0       -4.493836   -3.585507    2.745102
    103          1           0       -4.530590   -5.261015    2.376469
    104          1           0       -5.957809   -4.428327    0.234852
    105          1           0       -6.750741   -4.427737    3.969906
    106          1           0       -8.164452   -3.482082    3.679606
    107          1           0       -6.561195   -2.661400    3.495165
    108          1           0       -9.193665   -4.257678    1.793351
    109          1           0       -8.197916   -4.556802    0.395895
    110          1           0       -8.368992   -2.780585   -0.592511
    111          1           0       -8.272838   -1.707641    0.899154
    112          1           0      -10.809047   -2.710649    0.932525
    113          1           0      -10.566926   -2.417461   -0.843848
    114          1           0      -10.111517   -0.212301    1.099771
    115          1           0      -12.457178    0.507632    0.385741
    116          1           0      -12.191996   -0.774291    1.622675
    117          1           0      -12.790245   -1.153366    0.022967
    118          1           0      -11.096207    0.715734   -1.466434
    119          1           0      -10.086289   -0.583104   -1.832224
    120          1           0       -8.104010    0.653956   -1.528738
    121          1           0       -8.536912    0.859758    0.125932
    122          1           0      -10.245897    2.631432   -0.787841
    123          1           0       -9.109015    2.624461   -2.137791
    124          1           0       -7.533873    2.732641    0.223961
    125          1           0      -10.219850    3.825741    0.995099
    126          1           0       -9.116895    4.912431    1.317518
    127          1           0       -8.695329    3.255802    1.911160
    128          1           0       -7.728368    5.462852   -0.420265
    129          1           0       -8.496011    4.762644   -1.803343
    130          1           0       -6.781409    3.520492   -2.550764
    131          1           0       -5.893722    3.308681   -1.209207
    132          1           0       -5.854893    6.304595   -1.968700
    133          1           0       -5.424794    5.145598   -3.172022
    134          1           0       -3.675540    5.981101   -2.073229
    135          1           0       -4.124408    3.103320   -2.453306
    136          1           0       -3.104056    3.305341   -1.158055
    137          1           0       -2.551425    3.986553   -2.656396
    138          1           0       -3.456740    4.483151    0.386040
    139          1           0       -4.893525    5.665871    0.218336
    140          1           0       -3.202505    6.190161    0.072413
 ---------------------------------------------------------------------

 SCF Done:  E(RB-LYP) =  -3007.32915009     A.U. after   22 cycles

 Excitation energies and oscillator strengths:

 Excited State   1:      Singlet-A      1.7527 eV  707.38 nm  f=0.0018  <S**2>=0.000
     244 -> 247        0.70082
 This state for optimization and/or second-order correction.
 Total Energy, E(TD-HF/TD-DFT) =  -3007.26473836
 Copying the excited state density for this state as the 1-particle RhoCI density.

 Excited State   2:      Singlet-A      1.8348 eV  675.72 nm  f=0.2926  <S**2>=0.000
     245 -> 248       -0.21325
     246 -> 247        0.68143
     246 <- 247       -0.13933

 Excited State   3:      Singlet-A      1.9694 eV  629.54 nm  f=0.0050  <S**2>=0.000
     243 -> 247        0.68472
     245 -> 247        0.15896

 Excited State   4:      Singlet-A      2.0421 eV  607.13 nm  f=0.0712  <S**2>=0.000
     243 -> 247       -0.16574
     245 -> 247        0.62174
     246 -> 248        0.27146

 Excited State   5:      Singlet-A      2.4845 eV  499.03 nm  f=0.0000  <S**2>=0.000
     242 -> 247        0.70704

 The electronic state is 1-A.
 Alpha  occ. eigenvalues --  -46.27301 -18.82919 -18.82768 -18.77769 -18.77507
 Alpha  occ. eigenvalues --  -18.74832 -18.74104 -14.03333 -14.02602 -14.00660
 Alpha  occ. eigenvalues --  -14.00402 -10.05273 -10.03924  -9.98594  -9.98447
 Alpha  occ. eigenvalues --   -9.98179  -9.97945  -9.96570  -9.96156  -9.96000
 Alpha  occ. eigenvalues --   -9.95858  -9.95408  -9.95393  -9.94709  -9.94612
 Alpha  occ. eigenvalues --   -9.94515  -9.93890  -9.93686  -9.93646  -9.93603
 Alpha  occ. eigenvalues --   -9.93302  -9.93243  -9.93199  -9.93062  -9.93030
 Alpha  occ. eigenvalues --   -9.92968  -9.92959  -9.92761  -9.92666  -9.92340
 Alpha  occ. eigenvalues --   -9.92297  -9.92240  -9.92213  -9.92186  -9.92178
 Alpha  occ. eigenvalues --   -9.92116  -9.92010  -9.91976  -9.91944  -9.91794
 Alpha  occ. eigenvalues --   -9.91693  -9.91648  -9.91314  -9.91309  -9.91171
 Alpha  occ. eigenvalues --   -9.91115  -9.91114  -9.91018  -9.90948  -9.90918
 Alpha  occ. eigenvalues --   -9.90815  -9.90783  -9.90734  -9.90660  -9.90595
 Alpha  occ. eigenvalues --   -9.90175  -2.91958  -1.72360  -1.71860  -1.71665
 Alpha  occ. eigenvalues --   -0.99312  -0.97136  -0.92491  -0.92088  -0.91230
 Alpha  occ. eigenvalues --   -0.89794  -0.87662  -0.86468  -0.86156  -0.85068
 Alpha  occ. eigenvalues --   -0.75363  -0.73869  -0.73345  -0.73131  -0.72836
 Alpha  occ. eigenvalues --   -0.72674  -0.71785  -0.71296  -0.70633  -0.70117
 Alpha  occ. eigenvalues --   -0.69706  -0.69134  -0.68274  -0.67415  -0.67313
 Alpha  occ. eigenvalues --   -0.66651  -0.65899  -0.65032  -0.64953  -0.64376
 Alpha  occ. eigenvalues --   -0.64177  -0.62703  -0.62335  -0.61994  -0.60930
 Alpha  occ. eigenvalues --   -0.60805  -0.60321  -0.60030  -0.59854  -0.59198
 Alpha  occ. eigenvalues --   -0.58391  -0.57473  -0.56633  -0.56007  -0.54281
 Alpha  occ. eigenvalues --   -0.54189  -0.53890  -0.52975  -0.52779  -0.51680
 Alpha  occ. eigenvalues --   -0.51515  -0.50978  -0.50502  -0.50307  -0.50184
 Alpha  occ. eigenvalues --   -0.49750  -0.49307  -0.48766  -0.47175  -0.46702
 Alpha  occ. eigenvalues --   -0.46319  -0.46031  -0.45591  -0.45153  -0.44799
 Alpha  occ. eigenvalues --   -0.44206  -0.43932  -0.42768  -0.42511  -0.42436
 Alpha  occ. eigenvalues --   -0.42244  -0.41743  -0.41641  -0.41403  -0.41159
 Alpha  occ. eigenvalues --   -0.41086  -0.40764  -0.40513  -0.40256  -0.40163
 Alpha  occ. eigenvalues --   -0.40048  -0.39994  -0.39921  -0.39546  -0.39440
 Alpha  occ. eigenvalues --   -0.39285  -0.39069  -0.38651  -0.38603  -0.38334
 Alpha  occ. eigenvalues --   -0.38267  -0.38120  -0.37952  -0.37849  -0.37504
 Alpha  occ. eigenvalues --   -0.37281  -0.37242  -0.37139  -0.36863  -0.36565
 Alpha  occ. eigenvalues --   -0.36317  -0.36107  -0.35879  -0.35849  -0.35713
 Alpha  occ. eigenvalues --   -0.35413  -0.35264  -0.35243  -0.35011  -0.34729
 Alpha  occ. eigenvalues --   -0.34685  -0.34552  -0.34080  -0.34073  -0.33913
 Alpha  occ. eigenvalues --   -0.33750  -0.33603  -0.33459  -0.33205  -0.33022
 Alpha  occ. eigenvalues --   -0.32837  -0.32726  -0.32610  -0.32487  -0.32431
 Alpha  occ. eigenvalues --   -0.32307  -0.32216  -0.32142  -0.31897  -0.31431
 Alpha  occ. eigenvalues --   -0.31211  -0.31106  -0.30900  -0.30480  -0.30417
 Alpha  occ. eigenvalues --   -0.30366  -0.30272  -0.30192  -0.30173  -0.30023
 Alpha  occ. eigenvalues --   -0.29854  -0.29530  -0.29295  -0.29276  -0.29176
 Alpha  occ. eigenvalues --   -0.28756  -0.28690  -0.28469  -0.28083  -0.27990
 Alpha  occ. eigenvalues --   -0.27643  -0.27425  -0.27205  -0.26869  -0.26356
 Alpha  occ. eigenvalues --   -0.26130  -0.26045  -0.25915  -0.25813  -0.25778
 Alpha  occ. eigenvalues --   -0.25739  -0.25276  -0.24774  -0.24050  -0.23458
 Alpha  occ. eigenvalues --   -0.23096  -0.22704  -0.22489  -0.21444  -0.20682
 Alpha  occ. eigenvalues --   -0.20286  -0.20043  -0.18042  -0.17277  -0.16769
 Alpha  occ. eigenvalues --   -0.15366
 Alpha virt. eigenvalues --   -0.10913  -0.06505  -0.05570  -0.03971  -0.03453
 Alpha virt. eigenvalues --   -0.03040  -0.02356  -0.01562  -0.01082   0.00789
 Alpha virt. eigenvalues --    0.01103   0.01773   0.02149   0.02483   0.02596

 Mulliken charges:
               1
     1  Mg   0.698868
     2  C   -0.090981
     3  C   -0.112135
     4  C   -0.048673
     5  C   -0.060044
     6  N   -0.125257
     7  C   -0.179941
     8  C    0.110263
     9  C   -0.082088
    10  C    0.044646
    11  C    0.133960
    12  C    0.172454
    13  C    0.069530
    14  C    0.125687
    15  O   -0.188542
    16  O   -0.303865
    17  N   -0.301674
    18  C    0.170821
    19  C   -0.154252
    20  C    0.094583
    21  C    0.143786
    22  C    0.153716
    23  C   -0.135965
    24  O   -0.153058
    25  C    0.153679
    26  N   -0.251656
    27  C   -0.031084
    28  C    0.028456
    29  C    0.047704
    30  C    0.039285
    31  C    0.131542
    32  C    0.085121
    33  C    0.093209
    34  N   -0.217030
    35  C    0.047476
    36  C   -0.195000
    37  C    0.107622
    38  C    0.097410
    39  C    0.188999
    40  C   -0.106027
    41  O   -0.132943
    42  C    0.111110
    43  C    0.106621
    44  O   -0.115857
    45  O   -0.274684
    46  C    0.197897
    47  C    0.356416
    48  C   -0.096004
    49  C   -0.229100
    50  C    0.133655
    51  C    0.123203
    52  C    0.087651
    53  C    0.116495
    54  C   -0.055294
    55  C    0.104972
    56  C    0.123705
    57  C    0.063291
    58  C    0.086323
    59  C   -0.111637
    60  C    0.103267
    61  C    0.147437
    62  C    0.052052
    63  C    0.113231
    64  C   -0.115275
    65  C    0.117300
    66  C    0.116615
    67  H   -0.059605
    68  H   -0.058984
    69  H   -0.072154
    70  H   -0.027565
    71  H   -0.019374
    72  H   -0.009327
    73  H   -0.000050
    74  H   -0.017538
    75  H   -0.007364
    76  H   -0.010438
    77  H    0.011989
    78  H    0.003221
    79  H   -0.007869
    80  H    0.021349
    81  H   -0.019178
    82  H   -0.013637
    83  H   -0.000495
    84  H   -0.006423
    85  H   -0.024772
    86  H   -0.029684
    87  H   -0.011622
    88  H    0.000904
    89  H   -0.001406
    90  H   -0.016694
    91  H   -0.031447
    92  H   -0.006695
    93  H   -0.001331
    94  H   -0.016757
    95  H    0.013279
    96  H    0.016347
    97  H   -0.010833
    98  H    0.004088
    99  H    0.027884
   100  H    0.006768
   101  H    0.026530
   102  H    0.009328
   103  H   -0.003310
   104  H   -0.044535
   105  H    0.003255
   106  H   -0.021964
   107  H    0.016130
   108  H   -0.026936
   109  H   -0.038254
   110  H   -0.022835
   111  H   -0.019857
   112  H   -0.036933
   113  H   -0.030271
   114  H   -0.039084
   115  H   -0.019580
   116  H   -0.022545
   117  H   -0.021703
   118  H   -0.028965
   119  H   -0.050681
   120  H   -0.030108
   121  H   -0.026118
   122  H   -0.035122
   123  H   -0.028924
   124  H   -0.031446
   125  H   -0.024646
   126  H   -0.027909
   127  H   -0.001530
   128  H   -0.032840
   129  H   -0.033626
   130  H   -0.043266
   131  H   -0.037116
   132  H   -0.031669
   133  H   -0.044460
   134  H   -0.046100
   135  H   -0.020107
   136  H   -0.040587
   137  H   -0.004281
   138  H   -0.012368
   139  H   -0.018232
   140  H   -0.013908
 Sum of Mulliken charges =  -0.00000

 Dipole moment (field-independent basis, Debye):
    X=             -3.9035    Y=              0.4465    Z=              0.2662  Tot=              3.9379
 Quadrupole moment (field-independent basis, Debye-Ang):
   XX=           -373.9109   YY=           -426.8400   ZZ=           -409.7357
   XY=             17.1649   XZ=             13.0323   YZ=             -4.5990

 Normal termination of Gaussian 16 at Sat Apr 30 03:27:28 2022.
