 Gaussian 16, Revision A.03,
 Gaussian 16:  ES64L-G16RevA.03 25-Dec-2016

 -----------------------------------
 #p cam-b3lyp/Def2SVP td=(nstates=5)
 -----------------------------------

 -------------------------------------------------------
 step_551_chromophore_12 TDDFT with cam-b3lyp functional
 -------------------------------------------------------
 Symbolic Z-matrix:
 Charge =  0 Multiplicity = 1

                         Standard orientation:
 ---------------------------------------------------------------------
 Center     Atomic      Atomic             Coordinates (Angstroms)
 Number     Number       Type             X           Y           Z
 ---------------------------------------------------------------------
      1         12           0        4.340523    0.594892    0.343272
      2          6           0        3.595318   -2.886620   -0.305019
      3          6           0        0.958999    1.251886   -0.201900
      4          6           0        5.051830    3.732795    0.479201
      5          6           0        7.691809   -0.290709    0.133484
      6          7           0        2.512249   -0.747896   -0.126867
      7          6           0        2.385736   -2.047142   -0.318328
      8          6           0        0.912689   -2.534409   -0.495591
      9          6           0        0.249458   -1.119513   -0.464243
     10          6           0        1.310017   -0.155480   -0.239409
     11          6           0       -0.625469   -0.716150   -1.678477
     12          6           0        0.358618   -3.516369    0.587633
     13          6           0       -1.084455   -3.992164    0.272029
     14          6           0       -2.168592   -3.968586    1.366417
     15          8           0       -1.990978   -3.598395    2.521534
     16          8           0       -3.428416   -4.346610    0.875741
     17          7           0        3.171096    2.242472    0.262895
     18          6           0        1.784414    2.314446    0.095854
     19          6           0        1.431378    3.655411    0.301556
     20          6           0        2.600146    4.417356    0.500073
     21          6           0        3.677712    3.445691    0.366255
     22          6           0       -0.048879    4.128065    0.245731
     23          6           0        2.730885    5.856272    0.788303
     24          8           0        3.754271    6.378934    1.125154
     25          6           0        1.690550    6.856360    0.609167
     26          7           0        6.132434    1.624459    0.080741
     27          6           0        6.192238    2.938875    0.387675
     28          6           0        7.691996    3.404140    0.533308
     29          6           0        8.494185    2.084497    0.570241
     30          6           0        7.394651    1.072713    0.239074
     31          6           0        8.119730    4.462553   -0.535328
     32          6           0        9.152400    1.700362    1.911587
     33          6           0       10.647176    1.891630    2.001339
     34          7           0        5.443564   -1.191913   -0.064896
     35          6           0        6.814538   -1.402337    0.016363
     36          6           0        7.134254   -2.843896   -0.224548
     37          6           0        5.861795   -3.371492   -0.382684
     38          6           0        4.905694   -2.391194   -0.190431
     39          6           0        8.464390   -3.544287   -0.294489
     40          6           0        5.178644   -4.609230   -0.620999
     41          8           0        5.566484   -5.743703   -0.817174
     42          6           0        3.681154   -4.376497   -0.566884
     43          6           0        3.056467   -4.784224   -1.906140
     44          8           0        3.381072   -4.400588   -2.965293
     45          8           0        2.108109   -5.708230   -1.595189
     46          6           0        1.644902   -6.464035   -2.788302
     47          6           0       -4.538364   -4.278258    1.905143
     48          6           0       -5.897193   -4.272133    1.312494
     49          6           0       -7.065980   -3.911642    1.881606
     50          6           0       -7.122169   -3.588846    3.380472
     51          6           0       -8.417440   -3.817260    1.166892
     52          6           0       -8.797074   -2.504284    0.370695
     53          6           0      -10.293867   -2.125036    0.170247
     54          6           0      -10.645530   -0.657488    0.261110
     55          6           0      -12.104106   -0.506749    0.569613
     56          6           0      -10.276598    0.138351   -1.037791
     57          6           0       -8.937607    0.934071   -0.885320
     58          6           0       -9.220436    2.401423   -1.076942
     59          6           0       -8.340925    3.350802   -0.168509
     60          6           0       -9.135917    3.843322    1.106063
     61          6           0       -7.764609    4.554574   -1.021739
     62          6           0       -6.506954    4.087721   -1.661390
     63          6           0       -5.527866    5.272250   -2.094130
     64          6           0       -4.135709    5.114558   -1.598097
     65          6           0       -3.440644    3.845256   -2.042150
     66          6           0       -3.892768    5.362017   -0.088473
     67          1           0       -0.102939    1.486028   -0.308910
     68          1           0        5.407920    4.752088    0.641561
     69          1           0        8.709990   -0.678666    0.197830
     70          1           0        0.933528   -2.817105   -1.547974
     71          1           0       -0.482762   -1.116743    0.343127
     72          1           0       -0.071851   -0.008668   -2.295792
     73          1           0       -1.594126   -0.291021   -1.415579
     74          1           0       -0.708535   -1.619309   -2.283123
     75          1           0        0.333704   -3.065404    1.580482
     76          1           0        1.053381   -4.355953    0.582878
     77          1           0       -0.912557   -4.930344   -0.254889
     78          1           0       -1.594535   -3.396784   -0.485047
     79          1           0       -0.670590    3.314792    0.620681
     80          1           0       -0.305613    4.553810   -0.724645
     81          1           0       -0.331374    4.838027    1.023111
     82          1           0        2.160366    7.820181    0.803872
     83          1           0        0.836182    6.692482    1.265799
     84          1           0        1.421290    6.874967   -0.446781
     85          1           0        7.783907    3.874386    1.512662
     86          1           0        9.199422    2.135461   -0.259006
     87          1           0        8.098099    5.429310   -0.030861
     88          1           0        7.364198    4.665350   -1.294595
     89          1           0        9.131032    4.252974   -0.884456
     90          1           0        8.907695    0.667433    2.156589
     91          1           0        8.649399    2.346597    2.631725
     92          1           0       10.974814    2.707455    1.356751
     93          1           0       11.143980    0.931430    1.864001
     94          1           0       10.853404    2.204869    3.025203
     95          1           0        8.528697   -4.075764   -1.243784
     96          1           0        8.390840   -4.294854    0.492234
     97          1           0        9.289492   -2.835693   -0.226271
     98          1           0        3.243898   -4.850459    0.310941
     99          1           0        1.552675   -5.951185   -3.745259
    100          1           0        0.643565   -6.761787   -2.477191
    101          1           0        2.240285   -7.365918   -2.928676
    102          1           0       -4.493836   -3.585507    2.745102
    103          1           0       -4.530590   -5.261015    2.376469
    104          1           0       -5.957809   -4.428327    0.234852
    105          1           0       -6.750741   -4.427737    3.969906
    106          1           0       -8.164452   -3.482082    3.679606
    107          1           0       -6.561195   -2.661400    3.495165
    108          1           0       -9.193665   -4.257678    1.793351
    109          1           0       -8.197916   -4.556802    0.395895
    110          1           0       -8.368992   -2.780585   -0.592511
    111          1           0       -8.272838   -1.707641    0.899154
    112          1           0      -10.809047   -2.710649    0.932525
    113          1           0      -10.566926   -2.417461   -0.843848
    114          1           0      -10.111517   -0.212301    1.099771
    115          1           0      -12.457178    0.507632    0.385741
    116          1           0      -12.191996   -0.774291    1.622675
    117          1           0      -12.790245   -1.153366    0.022967
    118          1           0      -11.096207    0.715734   -1.466434
    119          1           0      -10.086289   -0.583104   -1.832224
    120          1           0       -8.104010    0.653956   -1.528738
    121          1           0       -8.536912    0.859758    0.125932
    122          1           0      -10.245897    2.631432   -0.787841
    123          1           0       -9.109015    2.624461   -2.137791
    124          1           0       -7.533873    2.732641    0.223961
    125          1           0      -10.219850    3.825741    0.995099
    126          1           0       -9.116895    4.912431    1.317518
    127          1           0       -8.695329    3.255802    1.911160
    128          1           0       -7.728368    5.462852   -0.420265
    129          1           0       -8.496011    4.762644   -1.803343
    130          1           0       -6.781409    3.520492   -2.550764
    131          1           0       -5.893722    3.308681   -1.209207
    132          1           0       -5.854893    6.304595   -1.968700
    133          1           0       -5.424794    5.145598   -3.172022
    134          1           0       -3.675540    5.981101   -2.073229
    135          1           0       -4.124408    3.103320   -2.453306
    136          1           0       -3.104056    3.305341   -1.158055
    137          1           0       -2.551425    3.986553   -2.656396
    138          1           0       -3.456740    4.483151    0.386040
    139          1           0       -4.893525    5.665871    0.218336
    140          1           0       -3.202505    6.190161    0.072413
 ---------------------------------------------------------------------

 SCF Done:  E(RCAM-B3LYP) =  -3007.13678837     A.U. after   17 cycles

 Excitation energies and oscillator strengths:

 Excited State   1:      Singlet-A      1.7366 eV  713.95 nm  f=0.3781  <S**2>=0.000
     245 -> 248       -0.19766
     246 -> 247        0.68132
     245 <- 248       -0.11087
 This state for optimization and/or second-order correction.
 Total Energy, E(TD-HF/TD-DFT) =  -3007.07296927
 Copying the excited state density for this state as the 1-particle RhoCI density.

 Excited State   2:      Singlet-A      2.2646 eV  547.48 nm  f=0.0908  <S**2>=0.000
     245 -> 247        0.62855
     246 -> 248        0.31721

 Excited State   3:      Singlet-A      3.5002 eV  354.22 nm  f=0.3683  <S**2>=0.000
     240 -> 247       -0.41635
     240 -> 249        0.22263
     240 -> 251        0.12446
     245 -> 247       -0.21023
     246 -> 248        0.43146

 Excited State   4:      Singlet-A      3.5072 eV  353.51 nm  f=0.3510  <S**2>=0.000
     240 -> 247        0.33436
     240 -> 249       -0.20702
     240 -> 251       -0.11352
     241 -> 247       -0.23463
     245 -> 247       -0.20975
     246 -> 248        0.42948

 Excited State   5:      Singlet-A      3.5583 eV  348.43 nm  f=0.0021  <S**2>=0.000
     242 -> 247        0.28686
     242 -> 249        0.20946
     242 -> 251       -0.20311
     244 -> 247        0.50235
     244 -> 249        0.15527
     244 -> 251       -0.12836

 The electronic state is 1-A.
 Alpha  occ. eigenvalues --  -46.88853 -19.25837 -19.25779 -19.20798 -19.20682
 Alpha  occ. eigenvalues --  -19.18186 -19.17239 -14.42393 -14.41222 -14.39067
 Alpha  occ. eigenvalues --  -14.38831 -10.40687 -10.39332 -10.33764 -10.33141
 Alpha  occ. eigenvalues --  -10.32678 -10.32047 -10.31078 -10.30588 -10.30319
 Alpha  occ. eigenvalues --  -10.30302 -10.29792 -10.29787 -10.28876 -10.28625
 Alpha  occ. eigenvalues --  -10.28622 -10.28115 -10.27856 -10.27855 -10.27838
 Alpha  occ. eigenvalues --  -10.27804 -10.27587 -10.27382 -10.27237 -10.27157
 Alpha  occ. eigenvalues --  -10.27077 -10.26988 -10.26901 -10.26375 -10.26076
 Alpha  occ. eigenvalues --  -10.26056 -10.26052 -10.26022 -10.25950 -10.25931
 Alpha  occ. eigenvalues --  -10.25872 -10.25854 -10.25792 -10.25736 -10.25647
 Alpha  occ. eigenvalues --  -10.25333 -10.25320 -10.25029 -10.25005 -10.24925
 Alpha  occ. eigenvalues --  -10.24865 -10.24778 -10.24720 -10.24681 -10.24568
 Alpha  occ. eigenvalues --  -10.24547 -10.24499 -10.24425 -10.24356 -10.24351
 Alpha  occ. eigenvalues --  -10.24346  -3.17414  -1.92290  -1.91879  -1.91713
 Alpha  occ. eigenvalues --   -1.18037  -1.15589  -1.10922  -1.10181  -1.09766
 Alpha  occ. eigenvalues --   -1.07614  -1.05512  -1.04108  -1.03813  -1.02568
 Alpha  occ. eigenvalues --   -0.92600  -0.90762  -0.90205  -0.89954  -0.89626
 Alpha  occ. eigenvalues --   -0.89355  -0.88485  -0.87952  -0.87249  -0.86646
 Alpha  occ. eigenvalues --   -0.86292  -0.85538  -0.84545  -0.83543  -0.83442
 Alpha  occ. eigenvalues --   -0.82714  -0.81935  -0.81045  -0.80791  -0.80265
 Alpha  occ. eigenvalues --   -0.80055  -0.78397  -0.78059  -0.77522  -0.76423
 Alpha  occ. eigenvalues --   -0.76217  -0.75770  -0.75430  -0.75148  -0.74463
 Alpha  occ. eigenvalues --   -0.73441  -0.72501  -0.71556  -0.70823  -0.68952
 Alpha  occ. eigenvalues --   -0.68823  -0.68463  -0.67410  -0.67208  -0.65977
 Alpha  occ. eigenvalues --   -0.65689  -0.65059  -0.64402  -0.64397  -0.64259
 Alpha  occ. eigenvalues --   -0.63472  -0.63264  -0.62617  -0.60959  -0.60324
 Alpha  occ. eigenvalues --   -0.60022  -0.59611  -0.59173  -0.58716  -0.58427
 Alpha  occ. eigenvalues --   -0.57619  -0.57098  -0.55914  -0.55859  -0.55496
 Alpha  occ. eigenvalues --   -0.55263  -0.54996  -0.54732  -0.54568  -0.54487
 Alpha  occ. eigenvalues --   -0.53879  -0.53769  -0.53395  -0.53146  -0.52971
 Alpha  occ. eigenvalues --   -0.52801  -0.52727  -0.52540  -0.52274  -0.52151
 Alpha  occ. eigenvalues --   -0.51895  -0.51468  -0.51283  -0.51059  -0.50915
 Alpha  occ. eigenvalues --   -0.50685  -0.50407  -0.50244  -0.50139  -0.49838
 Alpha  occ. eigenvalues --   -0.49561  -0.49419  -0.49291  -0.49167  -0.48938
 Alpha  occ. eigenvalues --   -0.48655  -0.48451  -0.48172  -0.48014  -0.47841
 Alpha  occ. eigenvalues --   -0.47713  -0.47269  -0.47137  -0.47039  -0.46955
 Alpha  occ. eigenvalues --   -0.46650  -0.46480  -0.46293  -0.45943  -0.45817
 Alpha  occ. eigenvalues --   -0.45664  -0.45329  -0.45237  -0.45032  -0.44888
 Alpha  occ. eigenvalues --   -0.44637  -0.44587  -0.44183  -0.44135  -0.44040
 Alpha  occ. eigenvalues --   -0.43977  -0.43931  -0.43841  -0.43490  -0.43183
 Alpha  occ. eigenvalues --   -0.42883  -0.42808  -0.42380  -0.42157  -0.41838
 Alpha  occ. eigenvalues --   -0.41722  -0.41674  -0.41525  -0.41493  -0.41262
 Alpha  occ. eigenvalues --   -0.41200  -0.40787  -0.40574  -0.40429  -0.40221
 Alpha  occ. eigenvalues --   -0.39747  -0.39678  -0.39439  -0.39072  -0.38878
 Alpha  occ. eigenvalues --   -0.38595  -0.38298  -0.38044  -0.37914  -0.37739
 Alpha  occ. eigenvalues --   -0.37601  -0.37348  -0.36912  -0.36753  -0.36591
 Alpha  occ. eigenvalues --   -0.36478  -0.35977  -0.35352  -0.35326  -0.34944
 Alpha  occ. eigenvalues --   -0.34381  -0.33322  -0.32789  -0.30746  -0.30400
 Alpha  occ. eigenvalues --   -0.30039  -0.29744  -0.29669  -0.29483  -0.23462
 Alpha  occ. eigenvalues --   -0.20649
 Alpha virt. eigenvalues --   -0.07903  -0.01503   0.00936   0.01921   0.03157
 Alpha virt. eigenvalues --    0.04434   0.05101   0.06162   0.06350   0.06685
 Alpha virt. eigenvalues --    0.07536   0.08468   0.08764   0.08806   0.09033

 Mulliken charges:
               1
     1  Mg   0.830477
     2  C   -0.106956
     3  C   -0.108952
     4  C   -0.075877
     5  C   -0.073111
     6  N   -0.191532
     7  C   -0.129551
     8  C    0.053881
     9  C   -0.131691
    10  C    0.057520
    11  C    0.068436
    12  C    0.117328
    13  C    0.004319
    14  C    0.206007
    15  O   -0.230706
    16  O   -0.368940
    17  N   -0.393253
    18  C    0.165681
    19  C   -0.153866
    20  C    0.014219
    21  C    0.174208
    22  C    0.105266
    23  C   -0.053265
    24  O   -0.194726
    25  C    0.070527
    26  N   -0.327050
    27  C   -0.006703
    28  C   -0.020486
    29  C   -0.011317
    30  C    0.059794
    31  C    0.071641
    32  C    0.028523
    33  C    0.031018
    34  N   -0.303472
    35  C    0.055582
    36  C   -0.190696
    37  C    0.024120
    38  C    0.128950
    39  C    0.140763
    40  C   -0.002336
    41  O   -0.170135
    42  C    0.033856
    43  C    0.189146
    44  O   -0.152709
    45  O   -0.337752
    46  C    0.159656
    47  C    0.318422
    48  C   -0.116419
    49  C   -0.244966
    50  C    0.067180
    51  C    0.066761
    52  C    0.036920
    53  C    0.061910
    54  C   -0.112614
    55  C    0.047394
    56  C    0.061856
    57  C    0.015657
    58  C    0.038229
    59  C   -0.168420
    60  C    0.047991
    61  C    0.092727
    62  C   -0.003642
    63  C    0.057921
    64  C   -0.170868
    65  C    0.053250
    66  C    0.060821
    67  H   -0.022248
    68  H   -0.018954
    69  H   -0.039293
    70  H    0.007198
    71  H    0.014490
    72  H    0.019170
    73  H    0.023509
    74  H    0.006768
    75  H    0.028088
    76  H    0.017659
    77  H    0.043699
    78  H    0.033007
    79  H    0.016542
    80  H    0.045626
    81  H    0.006869
    82  H    0.023100
    83  H    0.025862
    84  H    0.021824
    85  H    0.010460
    86  H    0.006603
    87  H    0.012710
    88  H    0.027778
    89  H    0.021458
    90  H    0.014682
    91  H   -0.002623
    92  H    0.014919
    93  H    0.020951
    94  H    0.008330
    95  H    0.039893
    96  H    0.041677
    97  H    0.013256
    98  H    0.047331
    99  H    0.052936
   100  H    0.028416
   101  H    0.048947
   102  H    0.039808
   103  H    0.025321
   104  H   -0.008293
   105  H    0.027805
   106  H    0.004711
   107  H    0.038842
   108  H    0.001564
   109  H   -0.007449
   110  H    0.004024
   111  H    0.005634
   112  H   -0.007771
   113  H   -0.002019
   114  H   -0.008021
   115  H    0.004676
   116  H    0.002399
   117  H    0.003021
   118  H    0.001206
   119  H   -0.020118
   120  H   -0.002466
   121  H   -0.001979
   122  H   -0.008315
   123  H   -0.001615
   124  H   -0.000668
   125  H   -0.000879
   126  H   -0.002858
   127  H    0.020727
   128  H   -0.005236
   129  H   -0.004424
   130  H   -0.014222
   131  H   -0.010440
   132  H   -0.002140
   133  H   -0.012539
   134  H   -0.011668
   135  H    0.004193
   136  H   -0.019079
   137  H    0.020458
   138  H    0.007608
   139  H    0.004766
   140  H    0.008854
 Sum of Mulliken charges =  -0.00000

 Dipole moment (field-independent basis, Debye):
    X=             -4.3575    Y=              0.6182    Z=              0.2337  Tot=              4.4073
 Quadrupole moment (field-independent basis, Debye-Ang):
   XX=           -373.4683   YY=           -423.0789   ZZ=           -409.9400
   XY=             16.4191   XZ=             13.6436   YZ=             -4.0050

 Normal termination of Gaussian 16 at Sat Apr 30 02:12:16 2022.
