 Gaussian 16, Revision A.03,
 Gaussian 16:  ES64L-G16RevA.03 25-Dec-2016

 ---------------------------------
 #p PBE1PBE/Def2SVP td=(nstates=5)
 ---------------------------------

 -----------------------------------------------------
 step_551_chromophore_12 TDDFT with PBE1PBE functional
 -----------------------------------------------------
 Symbolic Z-matrix:
 Charge =  0 Multiplicity = 1

                         Standard orientation:
 ---------------------------------------------------------------------
 Center     Atomic      Atomic             Coordinates (Angstroms)
 Number     Number       Type             X           Y           Z
 ---------------------------------------------------------------------
      1         12           0        4.340523    0.594892    0.343272
      2          6           0        3.595318   -2.886620   -0.305019
      3          6           0        0.958999    1.251886   -0.201900
      4          6           0        5.051830    3.732795    0.479201
      5          6           0        7.691809   -0.290709    0.133484
      6          7           0        2.512249   -0.747896   -0.126867
      7          6           0        2.385736   -2.047142   -0.318328
      8          6           0        0.912689   -2.534409   -0.495591
      9          6           0        0.249458   -1.119513   -0.464243
     10          6           0        1.310017   -0.155480   -0.239409
     11          6           0       -0.625469   -0.716150   -1.678477
     12          6           0        0.358618   -3.516369    0.587633
     13          6           0       -1.084455   -3.992164    0.272029
     14          6           0       -2.168592   -3.968586    1.366417
     15          8           0       -1.990978   -3.598395    2.521534
     16          8           0       -3.428416   -4.346610    0.875741
     17          7           0        3.171096    2.242472    0.262895
     18          6           0        1.784414    2.314446    0.095854
     19          6           0        1.431378    3.655411    0.301556
     20          6           0        2.600146    4.417356    0.500073
     21          6           0        3.677712    3.445691    0.366255
     22          6           0       -0.048879    4.128065    0.245731
     23          6           0        2.730885    5.856272    0.788303
     24          8           0        3.754271    6.378934    1.125154
     25          6           0        1.690550    6.856360    0.609167
     26          7           0        6.132434    1.624459    0.080741
     27          6           0        6.192238    2.938875    0.387675
     28          6           0        7.691996    3.404140    0.533308
     29          6           0        8.494185    2.084497    0.570241
     30          6           0        7.394651    1.072713    0.239074
     31          6           0        8.119730    4.462553   -0.535328
     32          6           0        9.152400    1.700362    1.911587
     33          6           0       10.647176    1.891630    2.001339
     34          7           0        5.443564   -1.191913   -0.064896
     35          6           0        6.814538   -1.402337    0.016363
     36          6           0        7.134254   -2.843896   -0.224548
     37          6           0        5.861795   -3.371492   -0.382684
     38          6           0        4.905694   -2.391194   -0.190431
     39          6           0        8.464390   -3.544287   -0.294489
     40          6           0        5.178644   -4.609230   -0.620999
     41          8           0        5.566484   -5.743703   -0.817174
     42          6           0        3.681154   -4.376497   -0.566884
     43          6           0        3.056467   -4.784224   -1.906140
     44          8           0        3.381072   -4.400588   -2.965293
     45          8           0        2.108109   -5.708230   -1.595189
     46          6           0        1.644902   -6.464035   -2.788302
     47          6           0       -4.538364   -4.278258    1.905143
     48          6           0       -5.897193   -4.272133    1.312494
     49          6           0       -7.065980   -3.911642    1.881606
     50          6           0       -7.122169   -3.588846    3.380472
     51          6           0       -8.417440   -3.817260    1.166892
     52          6           0       -8.797074   -2.504284    0.370695
     53          6           0      -10.293867   -2.125036    0.170247
     54          6           0      -10.645530   -0.657488    0.261110
     55          6           0      -12.104106   -0.506749    0.569613
     56          6           0      -10.276598    0.138351   -1.037791
     57          6           0       -8.937607    0.934071   -0.885320
     58          6           0       -9.220436    2.401423   -1.076942
     59          6           0       -8.340925    3.350802   -0.168509
     60          6           0       -9.135917    3.843322    1.106063
     61          6           0       -7.764609    4.554574   -1.021739
     62          6           0       -6.506954    4.087721   -1.661390
     63          6           0       -5.527866    5.272250   -2.094130
     64          6           0       -4.135709    5.114558   -1.598097
     65          6           0       -3.440644    3.845256   -2.042150
     66          6           0       -3.892768    5.362017   -0.088473
     67          1           0       -0.102939    1.486028   -0.308910
     68          1           0        5.407920    4.752088    0.641561
     69          1           0        8.709990   -0.678666    0.197830
     70          1           0        0.933528   -2.817105   -1.547974
     71          1           0       -0.482762   -1.116743    0.343127
     72          1           0       -0.071851   -0.008668   -2.295792
     73          1           0       -1.594126   -0.291021   -1.415579
     74          1           0       -0.708535   -1.619309   -2.283123
     75          1           0        0.333704   -3.065404    1.580482
     76          1           0        1.053381   -4.355953    0.582878
     77          1           0       -0.912557   -4.930344   -0.254889
     78          1           0       -1.594535   -3.396784   -0.485047
     79          1           0       -0.670590    3.314792    0.620681
     80          1           0       -0.305613    4.553810   -0.724645
     81          1           0       -0.331374    4.838027    1.023111
     82          1           0        2.160366    7.820181    0.803872
     83          1           0        0.836182    6.692482    1.265799
     84          1           0        1.421290    6.874967   -0.446781
     85          1           0        7.783907    3.874386    1.512662
     86          1           0        9.199422    2.135461   -0.259006
     87          1           0        8.098099    5.429310   -0.030861
     88          1           0        7.364198    4.665350   -1.294595
     89          1           0        9.131032    4.252974   -0.884456
     90          1           0        8.907695    0.667433    2.156589
     91          1           0        8.649399    2.346597    2.631725
     92          1           0       10.974814    2.707455    1.356751
     93          1           0       11.143980    0.931430    1.864001
     94          1           0       10.853404    2.204869    3.025203
     95          1           0        8.528697   -4.075764   -1.243784
     96          1           0        8.390840   -4.294854    0.492234
     97          1           0        9.289492   -2.835693   -0.226271
     98          1           0        3.243898   -4.850459    0.310941
     99          1           0        1.552675   -5.951185   -3.745259
    100          1           0        0.643565   -6.761787   -2.477191
    101          1           0        2.240285   -7.365918   -2.928676
    102          1           0       -4.493836   -3.585507    2.745102
    103          1           0       -4.530590   -5.261015    2.376469
    104          1           0       -5.957809   -4.428327    0.234852
    105          1           0       -6.750741   -4.427737    3.969906
    106          1           0       -8.164452   -3.482082    3.679606
    107          1           0       -6.561195   -2.661400    3.495165
    108          1           0       -9.193665   -4.257678    1.793351
    109          1           0       -8.197916   -4.556802    0.395895
    110          1           0       -8.368992   -2.780585   -0.592511
    111          1           0       -8.272838   -1.707641    0.899154
    112          1           0      -10.809047   -2.710649    0.932525
    113          1           0      -10.566926   -2.417461   -0.843848
    114          1           0      -10.111517   -0.212301    1.099771
    115          1           0      -12.457178    0.507632    0.385741
    116          1           0      -12.191996   -0.774291    1.622675
    117          1           0      -12.790245   -1.153366    0.022967
    118          1           0      -11.096207    0.715734   -1.466434
    119          1           0      -10.086289   -0.583104   -1.832224
    120          1           0       -8.104010    0.653956   -1.528738
    121          1           0       -8.536912    0.859758    0.125932
    122          1           0      -10.245897    2.631432   -0.787841
    123          1           0       -9.109015    2.624461   -2.137791
    124          1           0       -7.533873    2.732641    0.223961
    125          1           0      -10.219850    3.825741    0.995099
    126          1           0       -9.116895    4.912431    1.317518
    127          1           0       -8.695329    3.255802    1.911160
    128          1           0       -7.728368    5.462852   -0.420265
    129          1           0       -8.496011    4.762644   -1.803343
    130          1           0       -6.781409    3.520492   -2.550764
    131          1           0       -5.893722    3.308681   -1.209207
    132          1           0       -5.854893    6.304595   -1.968700
    133          1           0       -5.424794    5.145598   -3.172022
    134          1           0       -3.675540    5.981101   -2.073229
    135          1           0       -4.124408    3.103320   -2.453306
    136          1           0       -3.104056    3.305341   -1.158055
    137          1           0       -2.551425    3.986553   -2.656396
    138          1           0       -3.456740    4.483151    0.386040
    139          1           0       -4.893525    5.665871    0.218336
    140          1           0       -3.202505    6.190161    0.072413
 ---------------------------------------------------------------------

 SCF Done:  E(RPBE1PBE) =  -3005.32681275     A.U. after   15 cycles

 Excitation energies and oscillator strengths:

 Excited State   1:      Singlet-A      1.8890 eV  656.35 nm  f=0.3667  <S**2>=0.000
     245 -> 248       -0.19161
     246 -> 247        0.68809
 This state for optimization and/or second-order correction.
 Total Energy, E(TD-HF/TD-DFT) =  -3005.25739370
 Copying the excited state density for this state as the 1-particle RhoCI density.

 Excited State   2:      Singlet-A      2.2598 eV  548.64 nm  f=0.0934  <S**2>=0.000
     245 -> 247        0.64254
     246 -> 248        0.28973

 Excited State   3:      Singlet-A      2.9355 eV  422.36 nm  f=0.0001  <S**2>=0.000
     244 -> 247        0.67804
     244 -> 249        0.14693
     244 -> 250        0.10536

 Excited State   4:      Singlet-A      3.0274 eV  409.54 nm  f=0.0005  <S**2>=0.000
     241 -> 247       -0.14603
     242 -> 247        0.65191
     242 -> 249       -0.18078

 Excited State   5:      Singlet-A      3.2531 eV  381.12 nm  f=0.0045  <S**2>=0.000
     240 -> 247       -0.11141
     241 -> 247        0.66359
     242 -> 247        0.16589

 The electronic state is 1-A.
 Alpha  occ. eigenvalues --  -46.92260 -19.26570 -19.26418 -19.21091 -19.20824
 Alpha  occ. eigenvalues --  -19.18336 -19.17464 -14.41744 -14.40876 -14.38705
 Alpha  occ. eigenvalues --  -14.38455 -10.37754 -10.36295 -10.30842 -10.30234
 Alpha  occ. eigenvalues --  -10.30120 -10.29257 -10.28868 -10.28348 -10.28093
 Alpha  occ. eigenvalues --  -10.28028 -10.27499 -10.27385 -10.26580 -10.26458
 Alpha  occ. eigenvalues --  -10.26157 -10.25839 -10.25550 -10.25490 -10.25467
 Alpha  occ. eigenvalues --  -10.25434 -10.25429 -10.24932 -10.24921 -10.24880
 Alpha  occ. eigenvalues --  -10.24722 -10.24697 -10.24368 -10.23827 -10.23812
 Alpha  occ. eigenvalues --  -10.23654 -10.23640 -10.23573 -10.23562 -10.23535
 Alpha  occ. eigenvalues --  -10.23525 -10.23495 -10.23326 -10.23254 -10.23245
 Alpha  occ. eigenvalues --  -10.22871 -10.22772 -10.22738 -10.22668 -10.22598
 Alpha  occ. eigenvalues --  -10.22390 -10.22306 -10.22258 -10.22231 -10.21982
 Alpha  occ. eigenvalues --  -10.21976 -10.21902 -10.21890 -10.21806 -10.21792
 Alpha  occ. eigenvalues --  -10.21742  -3.14399  -1.87215  -1.86783  -1.86620
 Alpha  occ. eigenvalues --   -1.12772  -1.10400  -1.05681  -1.04981  -1.04467
 Alpha  occ. eigenvalues --   -1.02512  -1.00122  -0.98791  -0.98496  -0.97247
 Alpha  occ. eigenvalues --   -0.86930  -0.84880  -0.84346  -0.84145  -0.83778
 Alpha  occ. eigenvalues --   -0.83663  -0.82789  -0.82061  -0.81545  -0.80985
 Alpha  occ. eigenvalues --   -0.80581  -0.79805  -0.78726  -0.77791  -0.77684
 Alpha  occ. eigenvalues --   -0.77007  -0.76195  -0.75259  -0.75028  -0.74466
 Alpha  occ. eigenvalues --   -0.74276  -0.72677  -0.72300  -0.71843  -0.70739
 Alpha  occ. eigenvalues --   -0.70364  -0.69844  -0.69571  -0.69501  -0.68631
 Alpha  occ. eigenvalues --   -0.67783  -0.66947  -0.65971  -0.65189  -0.63300
 Alpha  occ. eigenvalues --   -0.63056  -0.62874  -0.61882  -0.61483  -0.60222
 Alpha  occ. eigenvalues --   -0.60110  -0.59460  -0.58989  -0.58784  -0.58511
 Alpha  occ. eigenvalues --   -0.58022  -0.57423  -0.57168  -0.55224  -0.54875
 Alpha  occ. eigenvalues --   -0.54466  -0.54087  -0.53651  -0.53250  -0.52956
 Alpha  occ. eigenvalues --   -0.52232  -0.51603  -0.50486  -0.50362  -0.49935
 Alpha  occ. eigenvalues --   -0.49635  -0.49459  -0.49256  -0.49140  -0.48883
 Alpha  occ. eigenvalues --   -0.48461  -0.48207  -0.47993  -0.47731  -0.47441
 Alpha  occ. eigenvalues --   -0.47270  -0.47148  -0.47062  -0.46803  -0.46709
 Alpha  occ. eigenvalues --   -0.46461  -0.45974  -0.45847  -0.45562  -0.45527
 Alpha  occ. eigenvalues --   -0.45189  -0.44935  -0.44827  -0.44789  -0.44411
 Alpha  occ. eigenvalues --   -0.44147  -0.43960  -0.43852  -0.43732  -0.43555
 Alpha  occ. eigenvalues --   -0.43237  -0.43096  -0.42766  -0.42664  -0.42492
 Alpha  occ. eigenvalues --   -0.42369  -0.41944  -0.41797  -0.41699  -0.41582
 Alpha  occ. eigenvalues --   -0.41375  -0.41161  -0.40930  -0.40692  -0.40477
 Alpha  occ. eigenvalues --   -0.40367  -0.40110  -0.39948  -0.39807  -0.39622
 Alpha  occ. eigenvalues --   -0.39415  -0.39340  -0.38955  -0.38897  -0.38818
 Alpha  occ. eigenvalues --   -0.38802  -0.38609  -0.38559  -0.38227  -0.37955
 Alpha  occ. eigenvalues --   -0.37731  -0.37564  -0.37106  -0.36981  -0.36604
 Alpha  occ. eigenvalues --   -0.36557  -0.36516  -0.36419  -0.36257  -0.36169
 Alpha  occ. eigenvalues --   -0.35871  -0.35624  -0.35470  -0.35211  -0.35140
 Alpha  occ. eigenvalues --   -0.34624  -0.34550  -0.34273  -0.34039  -0.33655
 Alpha  occ. eigenvalues --   -0.33534  -0.33110  -0.32840  -0.32788  -0.32590
 Alpha  occ. eigenvalues --   -0.32569  -0.32316  -0.31965  -0.31672  -0.31582
 Alpha  occ. eigenvalues --   -0.31283  -0.30780  -0.30226  -0.30223  -0.29822
 Alpha  occ. eigenvalues --   -0.29544  -0.28879  -0.27776  -0.26391  -0.25683
 Alpha  occ. eigenvalues --   -0.25247  -0.25102  -0.24966  -0.24342  -0.20415
 Alpha  occ. eigenvalues --   -0.18280
 Alpha virt. eigenvalues --   -0.10431  -0.04931  -0.03256  -0.01377  -0.00729
 Alpha virt. eigenvalues --   -0.00186   0.00628   0.01660   0.01776   0.03541
 Alpha virt. eigenvalues --    0.03980   0.04651   0.05135   0.05374   0.05491

 Mulliken charges:
               1
     1  Mg   0.974214
     2  C   -0.106554
     3  C   -0.092960
     4  C   -0.065356
     5  C   -0.066382
     6  N   -0.304124
     7  C   -0.039016
     8  C   -0.024151
     9  C   -0.202066
    10  C    0.100345
    11  C    0.005467
    12  C    0.056577
    13  C   -0.064970
    14  C    0.266575
    15  O   -0.263112
    16  O   -0.398829
    17  N   -0.517269
    18  C    0.182563
    19  C   -0.172547
    20  C   -0.049790
    21  C    0.207508
    22  C    0.051612
    23  C    0.001897
    24  O   -0.231591
    25  C   -0.004083
    26  N   -0.423879
    27  C    0.026677
    28  C   -0.088794
    29  C   -0.086342
    30  C    0.086497
    31  C    0.012843
    32  C   -0.030757
    33  C   -0.043135
    34  N   -0.428355
    35  C    0.074734
    36  C   -0.197294
    37  C   -0.036986
    38  C    0.179837
    39  C    0.085945
    40  C    0.103975
    41  O   -0.218588
    42  C   -0.089295
    43  C    0.282251
    44  O   -0.190568
    45  O   -0.369804
    46  C    0.103078
    47  C    0.274972
    48  C   -0.131607
    49  C   -0.277639
    50  C    0.003136
    51  C    0.001769
    52  C   -0.024138
    53  C    0.005222
    54  C   -0.204608
    55  C   -0.012047
    56  C    0.010339
    57  C   -0.047230
    58  C   -0.010253
    59  C   -0.256415
    60  C   -0.006131
    61  C    0.035506
    62  C   -0.062004
    63  C   -0.004304
    64  C   -0.258590
    65  C   -0.008366
    66  C   -0.001978
    67  H    0.008436
    68  H    0.015412
    69  H   -0.004220
    70  H    0.047901
    71  H    0.054097
    72  H    0.049176
    73  H    0.050152
    74  H    0.034750
    75  H    0.059131
    76  H    0.055870
    77  H    0.074953
    78  H    0.065807
    79  H    0.041375
    80  H    0.073072
    81  H    0.034140
    82  H    0.050688
    83  H    0.052020
    84  H    0.049464
    85  H    0.047387
    86  H    0.043499
    87  H    0.039989
    88  H    0.055159
    89  H    0.048304
    90  H    0.048376
    91  H    0.030610
    92  H    0.042815
    93  H    0.048541
    94  H    0.037195
    95  H    0.067535
    96  H    0.069380
    97  H    0.039755
    98  H    0.083691
    99  H    0.073767
   100  H    0.049938
   101  H    0.071007
   102  H    0.065265
   103  H    0.054512
   104  H    0.022725
   105  H    0.055371
   106  H    0.032320
   107  H    0.065519
   108  H    0.032058
   109  H    0.026967
   110  H    0.036159
   111  H    0.038990
   112  H    0.024946
   113  H    0.030862
   114  H    0.030287
   115  H    0.032779
   116  H    0.031281
   117  H    0.030732
   118  H    0.030834
   119  H    0.013305
   120  H    0.029470
   121  H    0.030566
   122  H    0.024886
   123  H    0.030374
   124  H    0.037194
   125  H    0.024527
   126  H    0.023497
   127  H    0.047080
   128  H    0.025438
   129  H    0.029557
   130  H    0.018369
   131  H    0.020711
   132  H    0.029071
   133  H    0.022994
   134  H    0.027919
   135  H    0.031385
   136  H    0.008600
   137  H    0.047712
   138  H    0.034064
   139  H    0.034801
   140  H    0.036073
 Sum of Mulliken charges =  -0.00000

 Dipole moment (field-independent basis, Debye):
    X=             -4.2460    Y=              0.7062    Z=              0.2338  Tot=              4.3107
 Quadrupole moment (field-independent basis, Debye-Ang):
   XX=           -366.9076   YY=           -420.4312   ZZ=           -407.4475
   XY=             17.3981   XZ=             14.1695   YZ=             -3.9755

 Normal termination of Gaussian 16 at Sat Apr 30 02:43:34 2022.
