 Gaussian 16, Revision A.03,
 Gaussian 16:  ES64L-G16RevA.03 25-Dec-2016

 --------------------------------
 #p wB97XD/Def2SVP td=(nstates=5)
 --------------------------------

 ----------------------------------------------------
 step_551_chromophore_12 TDDFT with wB97XD functional
 ----------------------------------------------------
 Symbolic Z-matrix:
 Charge =  0 Multiplicity = 1

                         Standard orientation:
 ---------------------------------------------------------------------
 Center     Atomic      Atomic             Coordinates (Angstroms)
 Number     Number       Type             X           Y           Z
 ---------------------------------------------------------------------
      1         12           0        4.340523    0.594892    0.343272
      2          6           0        3.595318   -2.886620   -0.305019
      3          6           0        0.958999    1.251886   -0.201900
      4          6           0        5.051830    3.732795    0.479201
      5          6           0        7.691809   -0.290709    0.133484
      6          7           0        2.512249   -0.747896   -0.126867
      7          6           0        2.385736   -2.047142   -0.318328
      8          6           0        0.912689   -2.534409   -0.495591
      9          6           0        0.249458   -1.119513   -0.464243
     10          6           0        1.310017   -0.155480   -0.239409
     11          6           0       -0.625469   -0.716150   -1.678477
     12          6           0        0.358618   -3.516369    0.587633
     13          6           0       -1.084455   -3.992164    0.272029
     14          6           0       -2.168592   -3.968586    1.366417
     15          8           0       -1.990978   -3.598395    2.521534
     16          8           0       -3.428416   -4.346610    0.875741
     17          7           0        3.171096    2.242472    0.262895
     18          6           0        1.784414    2.314446    0.095854
     19          6           0        1.431378    3.655411    0.301556
     20          6           0        2.600146    4.417356    0.500073
     21          6           0        3.677712    3.445691    0.366255
     22          6           0       -0.048879    4.128065    0.245731
     23          6           0        2.730885    5.856272    0.788303
     24          8           0        3.754271    6.378934    1.125154
     25          6           0        1.690550    6.856360    0.609167
     26          7           0        6.132434    1.624459    0.080741
     27          6           0        6.192238    2.938875    0.387675
     28          6           0        7.691996    3.404140    0.533308
     29          6           0        8.494185    2.084497    0.570241
     30          6           0        7.394651    1.072713    0.239074
     31          6           0        8.119730    4.462553   -0.535328
     32          6           0        9.152400    1.700362    1.911587
     33          6           0       10.647176    1.891630    2.001339
     34          7           0        5.443564   -1.191913   -0.064896
     35          6           0        6.814538   -1.402337    0.016363
     36          6           0        7.134254   -2.843896   -0.224548
     37          6           0        5.861795   -3.371492   -0.382684
     38          6           0        4.905694   -2.391194   -0.190431
     39          6           0        8.464390   -3.544287   -0.294489
     40          6           0        5.178644   -4.609230   -0.620999
     41          8           0        5.566484   -5.743703   -0.817174
     42          6           0        3.681154   -4.376497   -0.566884
     43          6           0        3.056467   -4.784224   -1.906140
     44          8           0        3.381072   -4.400588   -2.965293
     45          8           0        2.108109   -5.708230   -1.595189
     46          6           0        1.644902   -6.464035   -2.788302
     47          6           0       -4.538364   -4.278258    1.905143
     48          6           0       -5.897193   -4.272133    1.312494
     49          6           0       -7.065980   -3.911642    1.881606
     50          6           0       -7.122169   -3.588846    3.380472
     51          6           0       -8.417440   -3.817260    1.166892
     52          6           0       -8.797074   -2.504284    0.370695
     53          6           0      -10.293867   -2.125036    0.170247
     54          6           0      -10.645530   -0.657488    0.261110
     55          6           0      -12.104106   -0.506749    0.569613
     56          6           0      -10.276598    0.138351   -1.037791
     57          6           0       -8.937607    0.934071   -0.885320
     58          6           0       -9.220436    2.401423   -1.076942
     59          6           0       -8.340925    3.350802   -0.168509
     60          6           0       -9.135917    3.843322    1.106063
     61          6           0       -7.764609    4.554574   -1.021739
     62          6           0       -6.506954    4.087721   -1.661390
     63          6           0       -5.527866    5.272250   -2.094130
     64          6           0       -4.135709    5.114558   -1.598097
     65          6           0       -3.440644    3.845256   -2.042150
     66          6           0       -3.892768    5.362017   -0.088473
     67          1           0       -0.102939    1.486028   -0.308910
     68          1           0        5.407920    4.752088    0.641561
     69          1           0        8.709990   -0.678666    0.197830
     70          1           0        0.933528   -2.817105   -1.547974
     71          1           0       -0.482762   -1.116743    0.343127
     72          1           0       -0.071851   -0.008668   -2.295792
     73          1           0       -1.594126   -0.291021   -1.415579
     74          1           0       -0.708535   -1.619309   -2.283123
     75          1           0        0.333704   -3.065404    1.580482
     76          1           0        1.053381   -4.355953    0.582878
     77          1           0       -0.912557   -4.930344   -0.254889
     78          1           0       -1.594535   -3.396784   -0.485047
     79          1           0       -0.670590    3.314792    0.620681
     80          1           0       -0.305613    4.553810   -0.724645
     81          1           0       -0.331374    4.838027    1.023111
     82          1           0        2.160366    7.820181    0.803872
     83          1           0        0.836182    6.692482    1.265799
     84          1           0        1.421290    6.874967   -0.446781
     85          1           0        7.783907    3.874386    1.512662
     86          1           0        9.199422    2.135461   -0.259006
     87          1           0        8.098099    5.429310   -0.030861
     88          1           0        7.364198    4.665350   -1.294595
     89          1           0        9.131032    4.252974   -0.884456
     90          1           0        8.907695    0.667433    2.156589
     91          1           0        8.649399    2.346597    2.631725
     92          1           0       10.974814    2.707455    1.356751
     93          1           0       11.143980    0.931430    1.864001
     94          1           0       10.853404    2.204869    3.025203
     95          1           0        8.528697   -4.075764   -1.243784
     96          1           0        8.390840   -4.294854    0.492234
     97          1           0        9.289492   -2.835693   -0.226271
     98          1           0        3.243898   -4.850459    0.310941
     99          1           0        1.552675   -5.951185   -3.745259
    100          1           0        0.643565   -6.761787   -2.477191
    101          1           0        2.240285   -7.365918   -2.928676
    102          1           0       -4.493836   -3.585507    2.745102
    103          1           0       -4.530590   -5.261015    2.376469
    104          1           0       -5.957809   -4.428327    0.234852
    105          1           0       -6.750741   -4.427737    3.969906
    106          1           0       -8.164452   -3.482082    3.679606
    107          1           0       -6.561195   -2.661400    3.495165
    108          1           0       -9.193665   -4.257678    1.793351
    109          1           0       -8.197916   -4.556802    0.395895
    110          1           0       -8.368992   -2.780585   -0.592511
    111          1           0       -8.272838   -1.707641    0.899154
    112          1           0      -10.809047   -2.710649    0.932525
    113          1           0      -10.566926   -2.417461   -0.843848
    114          1           0      -10.111517   -0.212301    1.099771
    115          1           0      -12.457178    0.507632    0.385741
    116          1           0      -12.191996   -0.774291    1.622675
    117          1           0      -12.790245   -1.153366    0.022967
    118          1           0      -11.096207    0.715734   -1.466434
    119          1           0      -10.086289   -0.583104   -1.832224
    120          1           0       -8.104010    0.653956   -1.528738
    121          1           0       -8.536912    0.859758    0.125932
    122          1           0      -10.245897    2.631432   -0.787841
    123          1           0       -9.109015    2.624461   -2.137791
    124          1           0       -7.533873    2.732641    0.223961
    125          1           0      -10.219850    3.825741    0.995099
    126          1           0       -9.116895    4.912431    1.317518
    127          1           0       -8.695329    3.255802    1.911160
    128          1           0       -7.728368    5.462852   -0.420265
    129          1           0       -8.496011    4.762644   -1.803343
    130          1           0       -6.781409    3.520492   -2.550764
    131          1           0       -5.893722    3.308681   -1.209207
    132          1           0       -5.854893    6.304595   -1.968700
    133          1           0       -5.424794    5.145598   -3.172022
    134          1           0       -3.675540    5.981101   -2.073229
    135          1           0       -4.124408    3.103320   -2.453306
    136          1           0       -3.104056    3.305341   -1.158055
    137          1           0       -2.551425    3.986553   -2.656396
    138          1           0       -3.456740    4.483151    0.386040
    139          1           0       -4.893525    5.665871    0.218336
    140          1           0       -3.202505    6.190161    0.072413
 ---------------------------------------------------------------------

 SCF Done:  E(RwB97XD) =  -3007.83466527     A.U. after   17 cycles

 Excitation energies and oscillator strengths:

 Excited State   1:      Singlet-A      1.6782 eV  738.77 nm  f=0.3755  <S**2>=0.000
     245 -> 248        0.20331
     246 -> 247        0.67931
     245 <- 248        0.12049
 This state for optimization and/or second-order correction.
 Total Energy, E(TD-HF/TD-DFT) =  -3007.77299085
 Copying the excited state density for this state as the 1-particle RhoCI density.

 Excited State   2:      Singlet-A      2.2123 eV  560.44 nm  f=0.0889  <S**2>=0.000
     245 -> 247        0.62733
     246 -> 248       -0.31809

 Excited State   3:      Singlet-A      3.5154 eV  352.69 nm  f=0.4400  <S**2>=0.000
     240 -> 247        0.37300
     240 -> 249       -0.21075
     241 -> 249       -0.10226
     245 -> 247        0.22596
     246 -> 248        0.46451

 Excited State   4:      Singlet-A      3.5198 eV  352.24 nm  f=0.3021  <S**2>=0.000
     240 -> 247       -0.27859
     240 -> 249        0.21235
     241 -> 247       -0.32262
     241 -> 249        0.14281
     242 -> 247       -0.14313
     245 -> 247        0.19121
     246 -> 248        0.39419

 Excited State   5:      Singlet-A      3.5827 eV  346.06 nm  f=0.0031  <S**2>=0.000
     244 -> 247        0.56139
     244 -> 249        0.26821
     244 -> 250        0.13123
     244 -> 251       -0.19591

 The electronic state is 1-A.
 Alpha  occ. eigenvalues --  -46.95200 -19.31120 -19.31035 -19.25744 -19.25613
 Alpha  occ. eigenvalues --  -19.23266 -19.22223 -14.46982 -14.45780 -14.43650
 Alpha  occ. eigenvalues --  -14.43424 -10.44523 -10.43195 -10.37788 -10.37038
 Alpha  occ. eigenvalues --  -10.36605 -10.35814 -10.35111 -10.34622 -10.34328
 Alpha  occ. eigenvalues --  -10.34304 -10.33849 -10.33801 -10.32883 -10.32708
 Alpha  occ. eigenvalues --  -10.32564 -10.32254 -10.32035 -10.31972 -10.31869
 Alpha  occ. eigenvalues --  -10.31797 -10.31617 -10.31471 -10.31255 -10.31228
 Alpha  occ. eigenvalues --  -10.31110 -10.30931 -10.30909 -10.30251 -10.30056
 Alpha  occ. eigenvalues --  -10.30034 -10.29986 -10.29964 -10.29937 -10.29893
 Alpha  occ. eigenvalues --  -10.29805 -10.29794 -10.29691 -10.29617 -10.29588
 Alpha  occ. eigenvalues --  -10.29260 -10.29134 -10.28963 -10.28955 -10.28937
 Alpha  occ. eigenvalues --  -10.28801 -10.28691 -10.28649 -10.28609 -10.28405
 Alpha  occ. eigenvalues --  -10.28396 -10.28380 -10.28334 -10.28281 -10.28243
 Alpha  occ. eigenvalues --  -10.28187  -3.21202  -1.94767  -1.94336  -1.94168
 Alpha  occ. eigenvalues --   -1.20219  -1.17774  -1.13100  -1.12412  -1.12021
 Alpha  occ. eigenvalues --   -1.09845  -1.07515  -1.06141  -1.05858  -1.04573
 Alpha  occ. eigenvalues --   -0.94617  -0.92558  -0.92004  -0.91781  -0.91434
 Alpha  occ. eigenvalues --   -0.91218  -0.90399  -0.89733  -0.89165  -0.88574
 Alpha  occ. eigenvalues --   -0.88229  -0.87443  -0.86390  -0.85398  -0.85324
 Alpha  occ. eigenvalues --   -0.84629  -0.83853  -0.82953  -0.82679  -0.82131
 Alpha  occ. eigenvalues --   -0.81949  -0.80330  -0.79984  -0.79437  -0.78373
 Alpha  occ. eigenvalues --   -0.78059  -0.77563  -0.77253  -0.77085  -0.76305
 Alpha  occ. eigenvalues --   -0.75382  -0.74498  -0.73517  -0.72773  -0.70880
 Alpha  occ. eigenvalues --   -0.70710  -0.70399  -0.69395  -0.69111  -0.67831
 Alpha  occ. eigenvalues --   -0.67640  -0.66978  -0.66409  -0.66243  -0.66206
 Alpha  occ. eigenvalues --   -0.65473  -0.65091  -0.64612  -0.62832  -0.62310
 Alpha  occ. eigenvalues --   -0.61965  -0.61555  -0.61129  -0.60707  -0.60414
 Alpha  occ. eigenvalues --   -0.59619  -0.59042  -0.57866  -0.57812  -0.57391
 Alpha  occ. eigenvalues --   -0.57124  -0.56940  -0.56683  -0.56516  -0.56373
 Alpha  occ. eigenvalues --   -0.55818  -0.55647  -0.55337  -0.55077  -0.54890
 Alpha  occ. eigenvalues --   -0.54678  -0.54644  -0.54433  -0.54176  -0.54062
 Alpha  occ. eigenvalues --   -0.53821  -0.53340  -0.53256  -0.52943  -0.52819
 Alpha  occ. eigenvalues --   -0.52617  -0.52290  -0.52139  -0.52057  -0.51772
 Alpha  occ. eigenvalues --   -0.51476  -0.51298  -0.51207  -0.51054  -0.50853
 Alpha  occ. eigenvalues --   -0.50606  -0.50374  -0.50087  -0.49937  -0.49740
 Alpha  occ. eigenvalues --   -0.49655  -0.49192  -0.49034  -0.48966  -0.48871
 Alpha  occ. eigenvalues --   -0.48589  -0.48364  -0.48206  -0.47867  -0.47662
 Alpha  occ. eigenvalues --   -0.47617  -0.47271  -0.47123  -0.46964  -0.46842
 Alpha  occ. eigenvalues --   -0.46550  -0.46499  -0.46082  -0.46046  -0.45987
 Alpha  occ. eigenvalues --   -0.45908  -0.45808  -0.45724  -0.45375  -0.45210
 Alpha  occ. eigenvalues --   -0.44817  -0.44701  -0.44263  -0.44119  -0.43719
 Alpha  occ. eigenvalues --   -0.43685  -0.43618  -0.43435  -0.43389  -0.43170
 Alpha  occ. eigenvalues --   -0.43067  -0.42644  -0.42481  -0.42278  -0.42118
 Alpha  occ. eigenvalues --   -0.41606  -0.41562  -0.41310  -0.40985  -0.40721
 Alpha  occ. eigenvalues --   -0.40484  -0.40156  -0.39937  -0.39905  -0.39595
 Alpha  occ. eigenvalues --   -0.39529  -0.39360  -0.38876  -0.38701  -0.38611
 Alpha  occ. eigenvalues --   -0.38328  -0.37830  -0.37357  -0.37171  -0.36872
 Alpha  occ. eigenvalues --   -0.36371  -0.35578  -0.34636  -0.32950  -0.32410
 Alpha  occ. eigenvalues --   -0.32208  -0.31817  -0.31714  -0.31499  -0.25381
 Alpha  occ. eigenvalues --   -0.22458
 Alpha virt. eigenvalues --   -0.06252   0.00404   0.03023   0.04946   0.05400
 Alpha virt. eigenvalues --    0.06688   0.07348   0.08454   0.08531   0.09982
 Alpha virt. eigenvalues --    0.10707   0.11173   0.11956   0.12161   0.12253

 Mulliken charges:
               1
     1  Mg   0.966127
     2  C   -0.110120
     3  C   -0.109055
     4  C   -0.087459
     5  C   -0.085080
     6  N   -0.262188
     7  C   -0.081657
     8  C    0.005210
     9  C   -0.180149
    10  C    0.083331
    11  C    0.018248
    12  C    0.074649
    13  C   -0.051471
    14  C    0.259125
    15  O   -0.261196
    16  O   -0.398425
    17  N   -0.482067
    18  C    0.175921
    19  C   -0.165151
    20  C   -0.040375
    21  C    0.200749
    22  C    0.063875
    23  C   -0.001335
    24  O   -0.227016
    25  C    0.006682
    26  N   -0.397953
    27  C    0.016560
    28  C   -0.067086
    29  C   -0.063273
    30  C    0.083682
    31  C    0.023671
    32  C   -0.015388
    33  C   -0.026592
    34  N   -0.390440
    35  C    0.069240
    36  C   -0.199321
    37  C   -0.027135
    38  C    0.161579
    39  C    0.098543
    40  C    0.082081
    41  O   -0.207649
    42  C   -0.043149
    43  C    0.256188
    44  O   -0.184799
    45  O   -0.367505
    46  C    0.118656
    47  C    0.290292
    48  C   -0.140077
    49  C   -0.268285
    50  C    0.014763
    51  C    0.022664
    52  C   -0.008016
    53  C    0.021539
    54  C   -0.171267
    55  C   -0.000508
    56  C    0.020247
    57  C   -0.024918
    58  C    0.002970
    59  C   -0.223717
    60  C    0.004448
    61  C    0.052766
    62  C   -0.046449
    63  C    0.012378
    64  C   -0.230291
    65  C    0.004022
    66  C    0.012357
    67  H    0.000477
    68  H    0.009095
    69  H   -0.013902
    70  H    0.034513
    71  H    0.041113
    72  H    0.041612
    73  H    0.045710
    74  H    0.027840
    75  H    0.053067
    76  H    0.041982
    77  H    0.071110
    78  H    0.056796
    79  H    0.035467
    80  H    0.068820
    81  H    0.028085
    82  H    0.049370
    83  H    0.046628
    84  H    0.044650
    85  H    0.036467
    86  H    0.032520
    87  H    0.034281
    88  H    0.049641
    89  H    0.042671
    90  H    0.038955
    91  H    0.021577
    92  H    0.035868
    93  H    0.042843
    94  H    0.031310
    95  H    0.062989
    96  H    0.064259
    97  H    0.035149
    98  H    0.077717
    99  H    0.070373
   100  H    0.046229
   101  H    0.067435
   102  H    0.059957
   103  H    0.048565
   104  H    0.019623
   105  H    0.050225
   106  H    0.027568
   107  H    0.059709
   108  H    0.024944
   109  H    0.017416
   110  H    0.028227
   111  H    0.027615
   112  H    0.015696
   113  H    0.021119
   114  H    0.016842
   115  H    0.026531
   116  H    0.025003
   117  H    0.024767
   118  H    0.023373
   119  H    0.004308
   120  H    0.022736
   121  H    0.015004
   122  H    0.011177
   123  H    0.021436
   124  H    0.022198
   125  H    0.018523
   126  H    0.017795
   127  H    0.042168
   128  H    0.016607
   129  H    0.020378
   130  H    0.009449
   131  H    0.008007
   132  H    0.022524
   133  H    0.013432
   134  H    0.017348
   135  H    0.024906
   136  H   -0.001293
   137  H    0.043695
   138  H    0.026325
   139  H    0.026472
   140  H    0.030908
 Sum of Mulliken charges =  -0.00000

 Dipole moment (field-independent basis, Debye):
    X=             -4.4459    Y=              0.6503    Z=              0.2350  Tot=              4.4993
 Quadrupole moment (field-independent basis, Debye-Ang):
   XX=           -368.1787   YY=           -418.7494   ZZ=           -407.1819
   XY=             16.3187   XZ=             14.0130   YZ=             -3.7470

 Normal termination of Gaussian 16 at Sat Apr 30 03:15:16 2022.
