 Gaussian 16, Revision A.03,
 Gaussian 16:  ES64L-G16RevA.03 25-Dec-2016

 --------------------
 #p ZINDO=(nstates=5)
 --------------------

 -----------------------------
 step_551_chromophore_12 ZINDO
 -----------------------------
 Symbolic Z-matrix:
 Charge =  0 Multiplicity = 1

                         Standard orientation:
 ---------------------------------------------------------------------
 Center     Atomic      Atomic             Coordinates (Angstroms)
 Number     Number       Type             X           Y           Z
 ---------------------------------------------------------------------
      1         12           0        4.340523    0.594892    0.343272
      2          6           0        3.595318   -2.886620   -0.305019
      3          6           0        0.958999    1.251886   -0.201900
      4          6           0        5.051830    3.732795    0.479201
      5          6           0        7.691809   -0.290709    0.133484
      6          7           0        2.512249   -0.747896   -0.126867
      7          6           0        2.385736   -2.047142   -0.318328
      8          6           0        0.912689   -2.534409   -0.495591
      9          6           0        0.249458   -1.119513   -0.464243
     10          6           0        1.310017   -0.155480   -0.239409
     11          6           0       -0.625469   -0.716150   -1.678477
     12          6           0        0.358618   -3.516369    0.587633
     13          6           0       -1.084455   -3.992164    0.272029
     14          6           0       -2.168592   -3.968586    1.366417
     15          8           0       -1.990978   -3.598395    2.521534
     16          8           0       -3.428416   -4.346610    0.875741
     17          7           0        3.171096    2.242472    0.262895
     18          6           0        1.784414    2.314446    0.095854
     19          6           0        1.431378    3.655411    0.301556
     20          6           0        2.600146    4.417356    0.500073
     21          6           0        3.677712    3.445691    0.366255
     22          6           0       -0.048879    4.128065    0.245731
     23          6           0        2.730885    5.856272    0.788303
     24          8           0        3.754271    6.378934    1.125154
     25          6           0        1.690550    6.856360    0.609167
     26          7           0        6.132434    1.624459    0.080741
     27          6           0        6.192238    2.938875    0.387675
     28          6           0        7.691996    3.404140    0.533308
     29          6           0        8.494185    2.084497    0.570241
     30          6           0        7.394651    1.072713    0.239074
     31          6           0        8.119730    4.462553   -0.535328
     32          6           0        9.152400    1.700362    1.911587
     33          6           0       10.647176    1.891630    2.001339
     34          7           0        5.443564   -1.191913   -0.064896
     35          6           0        6.814538   -1.402337    0.016363
     36          6           0        7.134254   -2.843896   -0.224548
     37          6           0        5.861795   -3.371492   -0.382684
     38          6           0        4.905694   -2.391194   -0.190431
     39          6           0        8.464390   -3.544287   -0.294489
     40          6           0        5.178644   -4.609230   -0.620999
     41          8           0        5.566484   -5.743703   -0.817174
     42          6           0        3.681154   -4.376497   -0.566884
     43          6           0        3.056467   -4.784224   -1.906140
     44          8           0        3.381072   -4.400588   -2.965293
     45          8           0        2.108109   -5.708230   -1.595189
     46          6           0        1.644902   -6.464035   -2.788302
     47          6           0       -4.538364   -4.278258    1.905143
     48          6           0       -5.897193   -4.272133    1.312494
     49          6           0       -7.065980   -3.911642    1.881606
     50          6           0       -7.122169   -3.588846    3.380472
     51          6           0       -8.417440   -3.817260    1.166892
     52          6           0       -8.797074   -2.504284    0.370695
     53          6           0      -10.293867   -2.125036    0.170247
     54          6           0      -10.645530   -0.657488    0.261110
     55          6           0      -12.104106   -0.506749    0.569613
     56          6           0      -10.276598    0.138351   -1.037791
     57          6           0       -8.937607    0.934071   -0.885320
     58          6           0       -9.220436    2.401423   -1.076942
     59          6           0       -8.340925    3.350802   -0.168509
     60          6           0       -9.135917    3.843322    1.106063
     61          6           0       -7.764609    4.554574   -1.021739
     62          6           0       -6.506954    4.087721   -1.661390
     63          6           0       -5.527866    5.272250   -2.094130
     64          6           0       -4.135709    5.114558   -1.598097
     65          6           0       -3.440644    3.845256   -2.042150
     66          6           0       -3.892768    5.362017   -0.088473
     67          1           0       -0.102939    1.486028   -0.308910
     68          1           0        5.407920    4.752088    0.641561
     69          1           0        8.709990   -0.678666    0.197830
     70          1           0        0.933528   -2.817105   -1.547974
     71          1           0       -0.482762   -1.116743    0.343127
     72          1           0       -0.071851   -0.008668   -2.295792
     73          1           0       -1.594126   -0.291021   -1.415579
     74          1           0       -0.708535   -1.619309   -2.283123
     75          1           0        0.333704   -3.065404    1.580482
     76          1           0        1.053381   -4.355953    0.582878
     77          1           0       -0.912557   -4.930344   -0.254889
     78          1           0       -1.594535   -3.396784   -0.485047
     79          1           0       -0.670590    3.314792    0.620681
     80          1           0       -0.305613    4.553810   -0.724645
     81          1           0       -0.331374    4.838027    1.023111
     82          1           0        2.160366    7.820181    0.803872
     83          1           0        0.836182    6.692482    1.265799
     84          1           0        1.421290    6.874967   -0.446781
     85          1           0        7.783907    3.874386    1.512662
     86          1           0        9.199422    2.135461   -0.259006
     87          1           0        8.098099    5.429310   -0.030861
     88          1           0        7.364198    4.665350   -1.294595
     89          1           0        9.131032    4.252974   -0.884456
     90          1           0        8.907695    0.667433    2.156589
     91          1           0        8.649399    2.346597    2.631725
     92          1           0       10.974814    2.707455    1.356751
     93          1           0       11.143980    0.931430    1.864001
     94          1           0       10.853404    2.204869    3.025203
     95          1           0        8.528697   -4.075764   -1.243784
     96          1           0        8.390840   -4.294854    0.492234
     97          1           0        9.289492   -2.835693   -0.226271
     98          1           0        3.243898   -4.850459    0.310941
     99          1           0        1.552675   -5.951185   -3.745259
    100          1           0        0.643565   -6.761787   -2.477191
    101          1           0        2.240285   -7.365918   -2.928676
    102          1           0       -4.493836   -3.585507    2.745102
    103          1           0       -4.530590   -5.261015    2.376469
    104          1           0       -5.957809   -4.428327    0.234852
    105          1           0       -6.750741   -4.427737    3.969906
    106          1           0       -8.164452   -3.482082    3.679606
    107          1           0       -6.561195   -2.661400    3.495165
    108          1           0       -9.193665   -4.257678    1.793351
    109          1           0       -8.197916   -4.556802    0.395895
    110          1           0       -8.368992   -2.780585   -0.592511
    111          1           0       -8.272838   -1.707641    0.899154
    112          1           0      -10.809047   -2.710649    0.932525
    113          1           0      -10.566926   -2.417461   -0.843848
    114          1           0      -10.111517   -0.212301    1.099771
    115          1           0      -12.457178    0.507632    0.385741
    116          1           0      -12.191996   -0.774291    1.622675
    117          1           0      -12.790245   -1.153366    0.022967
    118          1           0      -11.096207    0.715734   -1.466434
    119          1           0      -10.086289   -0.583104   -1.832224
    120          1           0       -8.104010    0.653956   -1.528738
    121          1           0       -8.536912    0.859758    0.125932
    122          1           0      -10.245897    2.631432   -0.787841
    123          1           0       -9.109015    2.624461   -2.137791
    124          1           0       -7.533873    2.732641    0.223961
    125          1           0      -10.219850    3.825741    0.995099
    126          1           0       -9.116895    4.912431    1.317518
    127          1           0       -8.695329    3.255802    1.911160
    128          1           0       -7.728368    5.462852   -0.420265
    129          1           0       -8.496011    4.762644   -1.803343
    130          1           0       -6.781409    3.520492   -2.550764
    131          1           0       -5.893722    3.308681   -1.209207
    132          1           0       -5.854893    6.304595   -1.968700
    133          1           0       -5.424794    5.145598   -3.172022
    134          1           0       -3.675540    5.981101   -2.073229
    135          1           0       -4.124408    3.103320   -2.453306
    136          1           0       -3.104056    3.305341   -1.158055
    137          1           0       -2.551425    3.986553   -2.656396
    138          1           0       -3.456740    4.483151    0.386040
    139          1           0       -4.893525    5.665871    0.218336
    140          1           0       -3.202505    6.190161    0.072413
 ---------------------------------------------------------------------

 SCF Done:  E(RZINDO/S) =  -474.649005109     A.U. after   19 cycles

 Excitation energies and oscillator strengths:

 Excited State   1:      Singlet-A      1.2342 eV 1004.56 nm  f=0.5645  <S**2>=0.000
     175 ->178        -0.20639
     176 ->177         0.65889
 This state for optimization and/or second-order correction.
 Total Energy, E(CIS/TDA) =  -474.603648357
 Copying the excited state density for this state as the 1-particle RhoCI density.

 Excited State   2:      Singlet-A      1.8985 eV  653.06 nm  f=0.0217  <S**2>=0.000
     175 ->177         0.52835
     176 ->178         0.44815

 Excited State   3:      Singlet-A      2.7694 eV  447.69 nm  f=0.0010  <S**2>=0.000
     170 ->177         0.28778
     170 ->179         0.32533
     170 ->181         0.10748
     170 ->182         0.34195
     170 ->186         0.21436
     170 ->187         0.20482
     170 ->200         0.11968

 Excited State   4:      Singlet-A      2.8917 eV  428.75 nm  f=0.0026  <S**2>=0.000
     169 ->177         0.34954
     169 ->178        -0.13797
     169 ->179        -0.36870
     169 ->181         0.10641
     169 ->182         0.26637
     169 ->183        -0.12250
     169 ->186        -0.19739

 Excited State   5:      Singlet-A      2.9506 eV  420.20 nm  f=0.9974  <S**2>=0.000
     175 ->177        -0.36962
     176 ->178         0.47297
     176 ->179         0.27844
     176 ->181        -0.12840

 The electronic state is 1-A.
 Alpha  occ. eigenvalues --   -1.85423  -1.83626  -1.81064  -1.74579  -1.72962
 Alpha  occ. eigenvalues --   -1.69521  -1.66101  -1.63796  -1.62504  -1.60436
 Alpha  occ. eigenvalues --   -1.55951  -1.52696  -1.49341  -1.48812  -1.47899
 Alpha  occ. eigenvalues --   -1.46062  -1.43729  -1.40075  -1.39301  -1.38620
 Alpha  occ. eigenvalues --   -1.36363  -1.33917  -1.33480  -1.30978  -1.28791
 Alpha  occ. eigenvalues --   -1.28410  -1.24806  -1.21947  -1.20315  -1.18913
 Alpha  occ. eigenvalues --   -1.17375  -1.15835  -1.15682  -1.15392  -1.15032
 Alpha  occ. eigenvalues --   -1.13671  -1.11301  -1.10448  -1.04720  -1.04370
 Alpha  occ. eigenvalues --   -1.01950  -1.01110  -0.99565  -0.97729  -0.97535
 Alpha  occ. eigenvalues --   -0.95249  -0.94962  -0.94175  -0.93302  -0.92078
 Alpha  occ. eigenvalues --   -0.91595  -0.91015  -0.89850  -0.88163  -0.86348
 Alpha  occ. eigenvalues --   -0.84178  -0.83297  -0.82620  -0.82264  -0.80272
 Alpha  occ. eigenvalues --   -0.80174  -0.78847  -0.78167  -0.77410  -0.76385
 Alpha  occ. eigenvalues --   -0.75956  -0.75430  -0.74473  -0.73769  -0.73668
 Alpha  occ. eigenvalues --   -0.73436  -0.71339  -0.70854  -0.70706  -0.70382
 Alpha  occ. eigenvalues --   -0.69758  -0.69521  -0.68619  -0.68329  -0.67990
 Alpha  occ. eigenvalues --   -0.67853  -0.67277  -0.66827  -0.66370  -0.65989
 Alpha  occ. eigenvalues --   -0.65448  -0.65364  -0.64707  -0.64273  -0.64160
 Alpha  occ. eigenvalues --   -0.63433  -0.63066  -0.62669  -0.62567  -0.62127
 Alpha  occ. eigenvalues --   -0.62047  -0.61501  -0.61264  -0.61017  -0.60793
 Alpha  occ. eigenvalues --   -0.59340  -0.59159  -0.58623  -0.58346  -0.58048
 Alpha  occ. eigenvalues --   -0.57638  -0.57444  -0.57242  -0.57010  -0.56393
 Alpha  occ. eigenvalues --   -0.56037  -0.55601  -0.54949  -0.54738  -0.54657
 Alpha  occ. eigenvalues --   -0.54131  -0.53696  -0.53446  -0.53164  -0.52573
 Alpha  occ. eigenvalues --   -0.52213  -0.52140  -0.51904  -0.51687  -0.51481
 Alpha  occ. eigenvalues --   -0.51092  -0.50975  -0.50654  -0.50332  -0.49946
 Alpha  occ. eigenvalues --   -0.49916  -0.49593  -0.49235  -0.49095  -0.49082
 Alpha  occ. eigenvalues --   -0.48797  -0.48428  -0.48160  -0.48034  -0.47736
 Alpha  occ. eigenvalues --   -0.47285  -0.47188  -0.46889  -0.46569  -0.46494
 Alpha  occ. eigenvalues --   -0.46408  -0.46006  -0.45879  -0.45543  -0.45209
 Alpha  occ. eigenvalues --   -0.45034  -0.45021  -0.44373  -0.44071  -0.43371
 Alpha  occ. eigenvalues --   -0.43283  -0.43272  -0.43095  -0.42811  -0.42806
 Alpha  occ. eigenvalues --   -0.42682  -0.41609  -0.40425  -0.39642  -0.39015
 Alpha  occ. eigenvalues --   -0.38212  -0.37054  -0.34945  -0.34462  -0.33345
 Alpha  occ. eigenvalues --   -0.32940  -0.32477  -0.31892  -0.31412  -0.25975
 Alpha  occ. eigenvalues --   -0.21181
 Alpha virt. eigenvalues --   -0.07815  -0.01920   0.00196   0.01220   0.01615
 Alpha virt. eigenvalues --    0.02071   0.03272   0.03370   0.04616   0.05440
 Alpha virt. eigenvalues --    0.06804   0.07091   0.07890   0.08403   0.08740

 Mulliken charges:
               1
     1  Mg   0.435712
     2  C   -0.059028
     3  C   -0.066233
     4  C   -0.086602
     5  C   -0.084027
     6  N   -0.247072
     7  C    0.105827
     8  C   -0.004695
     9  C    0.001982
    10  C    0.119181
    11  C   -0.054927
    12  C   -0.012810
    13  C    0.002574
    14  C    0.466208
    15  O   -0.512022
    16  O   -0.273974
    17  N   -0.318691
    18  C    0.082789
    19  C    0.009533
    20  C   -0.058052
    21  C    0.171205
    22  C   -0.057376
    23  C    0.331717
    24  O   -0.531761
    25  C   -0.025404
    26  N   -0.281362
    27  C    0.136257
    28  C    0.005490
    29  C    0.004076
    30  C    0.131573
    31  C   -0.054774
    32  C   -0.025671
    33  C   -0.055738
    34  N   -0.320985
    35  C    0.092207
    36  C    0.025432
    37  C   -0.039527
    38  C    0.117777
    39  C   -0.033233
    40  C    0.337133
    41  O   -0.528686
    42  C    0.047927
    43  C    0.499310
    44  O   -0.494196
    45  O   -0.274094
    46  C    0.071636
    47  C    0.106090
    48  C   -0.082621
    49  C   -0.020210
    50  C   -0.052274
    51  C   -0.031891
    52  C   -0.037140
    53  C   -0.027401
    54  C    0.000242
    55  C   -0.053958
    56  C   -0.037369
    57  C   -0.036801
    58  C   -0.036789
    59  C   -0.027656
    60  C   -0.071831
    61  C   -0.024888
    62  C   -0.034082
    63  C   -0.034261
    64  C   -0.005531
    65  C   -0.056154
    66  C   -0.063726
    67  H    0.031909
    68  H    0.035361
    69  H    0.020693
    70  H    0.046136
    71  H    0.026245
    72  H    0.023036
    73  H    0.027159
    74  H    0.014694
    75  H    0.042706
    76  H    0.027179
    77  H    0.046644
    78  H    0.039541
    79  H    0.023487
    80  H    0.039653
    81  H    0.020110
    82  H    0.035966
    83  H    0.034713
    84  H    0.030931
    85  H    0.028639
    86  H    0.033636
    87  H    0.016149
    88  H    0.033511
    89  H    0.028068
    90  H    0.025626
    91  H    0.019666
    92  H    0.025390
    93  H    0.025608
    94  H    0.012887
    95  H    0.039032
    96  H    0.041830
    97  H    0.028460
    98  H    0.056820
    99  H    0.054498
   100  H    0.019855
   101  H    0.046398
   102  H    0.068059
   103  H    0.040734
   104  H    0.024818
   105  H    0.028475
   106  H    0.016529
   107  H    0.034824
   108  H    0.028052
   109  H    0.010259
   110  H    0.024328
   111  H    0.025224
   112  H    0.019698
   113  H    0.022627
   114  H    0.020914
   115  H    0.014659
   116  H    0.011315
   117  H    0.018137
   118  H    0.028957
   119  H    0.007353
   120  H    0.022491
   121  H    0.016878
   122  H    0.017715
   123  H    0.017513
   124  H    0.021440
   125  H    0.021833
   126  H    0.016833
   127  H    0.024527
   128  H    0.023348
   129  H    0.017759
   130  H    0.010287
   131  H    0.027467
   132  H    0.024913
   133  H    0.003672
   134  H    0.004584
   135  H    0.018978
   136  H    0.007632
   137  H    0.022270
   138  H    0.027053
   139  H    0.023039
   140  H    0.016208
 Sum of Mulliken charges =  -0.00000

 Dipole moment (field-independent basis, Debye):
    X=             -5.9745    Y=              0.6235    Z=              0.4980  Tot=              6.0276
 N-N= 4.461644627082D+03 E-N= 0.000000000000D+00  KE=-9.597865781391D+03
 Leave Link  601 at Sat Apr 30 03:27:34 2022, MaxMem=  6710886400 cpu:               0.8 elap:               0.1
 (Enter /sw/apps/gaussian-16.0/g16/l9999.exe)
 1\1\GINC-BP1-COMPUTE148\SP\RZINDO CIS\STO-3G\C55H74Mg1N4O6\OF15641\30-
 Apr-2022\0\\#p ZINDO=(nstates=5)\\step_551_chromophore_12 ZINDO\\0,1\M
 g,0,46.611,15.793,28.132\C,0,44.376,15.16,30.907\C,0,48.172,18.176,30.
 144\C,0,48.317,16.681,25.549\C,0,44.433,13.895,26.205\N,0,46.294,16.48
 5,30.32\C,0,45.425,16.135,31.249\C,0,45.667,16.796,32.643\C,0,46.856,1
 7.711,32.205\C,0,47.123,17.425,30.808\C,0,46.708,19.235,32.446\C,0,46.
 011,15.837,33.829\C,0,46.157,16.592,35.177\C,0,47.365,16.321,36.094\O,

 Normal termination of Gaussian 16 at Sat Apr 30 03:27:34 2022.
