 Gaussian 16, Revision A.03,
 Gaussian 16:  ES64L-G16RevA.03 25-Dec-2016

 ------------------------------
 #p blyp/Def2SVP td=(nstates=5)
 ------------------------------

 ---------------------------------------------------
 step_1151_chromophore_21 TDDFT with blyp functional
 ---------------------------------------------------
 Symbolic Z-matrix:
 Charge =  0 Multiplicity = 1

                         Standard orientation:
 ---------------------------------------------------------------------
 Center     Atomic      Atomic             Coordinates (Angstroms)
 Number     Number       Type             X           Y           Z
 ---------------------------------------------------------------------
      1         12           0       -5.359152    1.115093   -0.316884
      2          6           0       -5.129961   -2.298695   -0.110051
      3          6           0       -1.852670    1.308935   -0.205104
      4          6           0       -5.523471    4.498640   -0.054311
      5          6           0       -8.777229    0.939918    0.182884
      6          7           0       -3.704175   -0.293992   -0.224805
      7          6           0       -3.885538   -1.693550   -0.245366
      8          6           0       -2.514296   -2.405815   -0.415270
      9          6           0       -1.454297   -1.202975   -0.125275
     10          6           0       -2.414621   -0.016683   -0.274604
     11          6           0       -0.675240   -1.292698    1.187597
     12          6           0       -2.396185   -2.912999   -1.935205
     13          6           0       -1.048002   -3.547403   -2.370099
     14          6           0       -0.131033   -4.060660   -1.212701
     15          8           0       -0.367424   -5.005093   -0.491327
     16          8           0        1.089518   -3.450829   -1.198492
     17          7           0       -3.838962    2.687039   -0.215394
     18          6           0       -2.495186    2.553750   -0.121559
     19          6           0       -1.901038    3.806201   -0.050324
     20          6           0       -2.938848    4.739857   -0.160212
     21          6           0       -4.182899    3.969913   -0.230409
     22          6           0       -0.431750    4.027333    0.295010
     23          6           0       -2.880464    6.288005   -0.225243
     24          8           0       -3.839401    6.941013   -0.300808
     25          6           0       -1.478559    6.948205   -0.227152
     26          7           0       -6.971600    2.481512   -0.036780
     27          6           0       -6.791921    3.839047   -0.062568
     28          6           0       -8.059146    4.617398    0.251495
     29          6           0       -9.161045    3.480659    0.259669
     30          6           0       -8.253712    2.231020    0.061747
     31          6           0       -8.033157    5.296826    1.602972
     32          6           0      -10.201477    3.606884   -0.925018
     33          6           0      -11.651342    3.459573   -0.566819
     34          7           0       -6.720383   -0.381992   -0.114023
     35          6           0       -8.106987   -0.326784    0.094119
     36          6           0       -8.649157   -1.712007    0.226317
     37          6           0       -7.492549   -2.508954    0.119135
     38          6           0       -6.385504   -1.665854   -0.068268
     39          6           0      -10.034551   -2.147834    0.347396
     40          6           0       -7.087219   -3.899150    0.090301
     41          8           0       -7.688126   -4.963655    0.239185
     42          6           0       -5.450930   -3.813511    0.046923
     43          6           0       -4.726212   -4.503473    1.160662
     44          8           0       -4.790633   -4.281538    2.374433
     45          8           0       -3.925182   -5.519907    0.651213
     46          6           0       -3.373612   -6.471797    1.612082
     47          6           0        2.059351   -3.984875   -0.212390
     48          6           0        3.366122   -3.193830   -0.166689
     49          6           0        4.222844   -3.052119    0.862331
     50          6           0        4.042809   -3.565654    2.266921
     51          6           0        5.374500   -2.130713    0.704253
     52          6           0        6.466068   -2.627463   -0.354655
     53          6           0        6.853500   -1.524382   -1.343138
     54          6           0        8.057216   -0.702062   -0.810279
     55          6           0        7.777176    0.804201   -1.032658
     56          6           0        9.422831   -1.153022   -1.291458
     57          6           0       10.497945   -1.300396   -0.251491
     58          6           0       11.949906   -1.328042   -0.796022
     59          6           0       12.689229    0.012541   -0.612488
     60          6           0       13.407678    0.511573   -1.985369
     61          6           0       13.644321   -0.043590    0.579819
     62          6           0       14.049403    1.437958    0.996587
     63          6           0       15.604617    1.791546    0.952767
     64          6           0       15.917688    3.299989    0.824620
     65          6           0       17.213609    3.690363    0.044428
     66          6           0       15.906185    3.868528    2.309693
     67          1           0       -0.763211    1.358366   -0.164004
     68          1           0       -5.535591    5.589905   -0.070552
     69          1           0       -9.846928    0.930711    0.402768
     70          1           0       -2.552123   -3.287610    0.224601
     71          1           0       -0.634809   -1.223555   -0.844239
     72          1           0       -0.872465   -0.346644    1.692552
     73          1           0        0.390859   -1.258277    0.963560
     74          1           0       -0.966836   -1.997674    1.965203
     75          1           0       -2.741335   -2.047197   -2.501975
     76          1           0       -3.066510   -3.768242   -2.012277
     77          1           0       -0.553219   -2.770499   -2.951494
     78          1           0       -1.415510   -4.391145   -2.953985
     79          1           0       -0.420273    4.434817    1.305430
     80          1           0        0.103866    4.669802   -0.403331
     81          1           0        0.195888    3.136534    0.327245
     82          1           0       -0.726468    6.437189   -0.829240
     83          1           0       -1.092998    7.040858    0.787542
     84          1           0       -1.516535    8.009873   -0.472130
     85          1           0       -8.135011    5.363373   -0.538668
     86          1           0       -9.677672    3.246449    1.190977
     87          1           0       -8.690252    4.800897    2.317528
     88          1           0       -8.299635    6.339679    1.433906
     89          1           0       -7.071276    5.252733    2.114266
     90          1           0      -10.035829    2.884559   -1.724403
     91          1           0      -10.117601    4.636176   -1.272084
     92          1           0      -11.896242    2.405500   -0.697141
     93          1           0      -12.327163    4.069581   -1.166124
     94          1           0      -11.781158    3.672109    0.494200
     95          1           0      -10.631578   -1.441207   -0.229878
     96          1           0      -10.386953   -2.026366    1.371388
     97          1           0      -10.084334   -3.217119    0.141942
     98          1           0       -5.024034   -4.210769   -0.873355
     99          1           0       -2.554372   -7.064528    1.205421
    100          1           0       -4.156571   -7.166626    1.917382
    101          1           0       -3.009564   -5.992830    2.521147
    102          1           0        2.308549   -5.020249   -0.448041
    103          1           0        1.784364   -3.938326    0.841504
    104          1           0        3.477874   -2.560415   -1.045848
    105          1           0        3.363549   -4.416540    2.210323
    106          1           0        3.598529   -2.810797    2.914527
    107          1           0        4.984521   -3.836020    2.745284
    108          1           0        5.917366   -2.080936    1.648048
    109          1           0        5.118350   -1.114444    0.404587
    110          1           0        6.177287   -3.511596   -0.921911
    111          1           0        7.330659   -3.026013    0.175845
    112          1           0        6.028016   -0.812910   -1.383159
    113          1           0        7.004979   -2.005308   -2.309397
    114          1           0        8.045052   -0.852701    0.269048
    115          1           0        7.291909    1.242049   -0.160610
    116          1           0        7.140005    1.057312   -1.880451
    117          1           0        8.646976    1.426886   -1.243771
    118          1           0        9.859620   -0.451047   -2.000808
    119          1           0        9.360176   -2.065092   -1.883414
    120          1           0       10.381637   -2.306198    0.151445
    121          1           0       10.279277   -0.551296    0.509385
    122          1           0       12.040766   -1.549924   -1.859062
    123          1           0       12.370167   -2.183045   -0.266367
    124          1           0       11.882721    0.710562   -0.390945
    125          1           0       13.571723   -0.325022   -2.663789
    126          1           0       14.289871    1.120267   -1.783722
    127          1           0       12.621397    0.980815   -2.576402
    128          1           0       14.563318   -0.551489    0.286021
    129          1           0       13.323289   -0.527101    1.502389
    130          1           0       13.812070    1.467948    2.060328
    131          1           0       13.445594    2.176348    0.468497
    132          1           0       16.092075    1.314516    0.102422
    133          1           0       16.069922    1.382244    1.850034
    134          1           0       15.086147    3.690285    0.237036
    135          1           0       17.884774    2.862338   -0.182335
    136          1           0       17.783240    4.401361    0.642552
    137          1           0       16.909940    4.232874   -0.851674
    138          1           0       14.927522    4.315859    2.486891
    139          1           0       16.632046    4.665416    2.473341
    140          1           0       15.894689    3.140300    3.120813
 ---------------------------------------------------------------------

 SCF Done:  E(RB-LYP) =  -3007.38135588     A.U. after   21 cycles

 Excitation energies and oscillator strengths:

 Excited State   1:      Singlet-A      1.8113 eV  684.50 nm  f=0.2851  <S**2>=0.000
     245 -> 248        0.19581
     246 -> 247        0.69097
     246 <- 247       -0.15165
 This state for optimization and/or second-order correction.
 Total Energy, E(TD-HF/TD-DFT) =  -3007.31479102
 Copying the excited state density for this state as the 1-particle RhoCI density.

 Excited State   2:      Singlet-A      2.0163 eV  614.92 nm  f=0.0947  <S**2>=0.000
     245 -> 247        0.64918
     246 -> 248       -0.25553

 Excited State   3:      Singlet-A      2.1486 eV  577.04 nm  f=0.0000  <S**2>=0.000
     244 -> 247        0.70612

 Excited State   4:      Singlet-A      2.1857 eV  567.24 nm  f=0.0002  <S**2>=0.000
     243 -> 247        0.70609

 Excited State   5:      Singlet-A      2.4061 eV  515.29 nm  f=0.0001  <S**2>=0.000
     242 -> 247        0.70343

 The electronic state is 1-A.
 Alpha  occ. eigenvalues --  -46.27415 -18.83216 -18.81115 -18.77217 -18.76399
 Alpha  occ. eigenvalues --  -18.76257 -18.75859 -14.03607 -14.03217 -14.01055
 Alpha  occ. eigenvalues --  -14.00382 -10.04868 -10.03383 -10.00208 -10.00180
 Alpha  occ. eigenvalues --   -9.98518  -9.96665  -9.96477  -9.96391  -9.96324
 Alpha  occ. eigenvalues --   -9.96074  -9.95993  -9.95363  -9.94559  -9.94371
 Alpha  occ. eigenvalues --   -9.94311  -9.94296  -9.94194  -9.94116  -9.93842
 Alpha  occ. eigenvalues --   -9.93819  -9.93716  -9.93678  -9.93518  -9.93164
 Alpha  occ. eigenvalues --   -9.93135  -9.93078  -9.92857  -9.92690  -9.92610
 Alpha  occ. eigenvalues --   -9.92461  -9.92279  -9.92275  -9.92269  -9.92231
 Alpha  occ. eigenvalues --   -9.92180  -9.92175  -9.92042  -9.91959  -9.91942
 Alpha  occ. eigenvalues --   -9.91794  -9.91738  -9.91615  -9.91555  -9.91554
 Alpha  occ. eigenvalues --   -9.91299  -9.91298  -9.91265  -9.91165  -9.91063
 Alpha  occ. eigenvalues --   -9.91038  -9.91035  -9.90939  -9.90939  -9.90753
 Alpha  occ. eigenvalues --   -9.90613  -2.91998  -1.72437  -1.71874  -1.71707
 Alpha  occ. eigenvalues --   -0.98774  -0.96108  -0.95399  -0.90921  -0.90366
 Alpha  occ. eigenvalues --   -0.88049  -0.87299  -0.86589  -0.86142  -0.85329
 Alpha  occ. eigenvalues --   -0.74695  -0.74236  -0.73182  -0.72430  -0.72184
 Alpha  occ. eigenvalues --   -0.71777  -0.71635  -0.70887  -0.70588  -0.70498
 Alpha  occ. eigenvalues --   -0.69811  -0.68893  -0.68189  -0.67784  -0.66933
 Alpha  occ. eigenvalues --   -0.66193  -0.65708  -0.65136  -0.64535  -0.63999
 Alpha  occ. eigenvalues --   -0.63792  -0.62692  -0.62157  -0.61655  -0.60852
 Alpha  occ. eigenvalues --   -0.60322  -0.60068  -0.59864  -0.59837  -0.58993
 Alpha  occ. eigenvalues --   -0.58371  -0.57503  -0.56548  -0.55328  -0.54203
 Alpha  occ. eigenvalues --   -0.53910  -0.53814  -0.52759  -0.52343  -0.52059
 Alpha  occ. eigenvalues --   -0.51283  -0.51064  -0.50591  -0.50137  -0.49904
 Alpha  occ. eigenvalues --   -0.49738  -0.49530  -0.48674  -0.47765  -0.46692
 Alpha  occ. eigenvalues --   -0.46648  -0.46146  -0.45296  -0.45011  -0.44524
 Alpha  occ. eigenvalues --   -0.43470  -0.43299  -0.43152  -0.42964  -0.42683
 Alpha  occ. eigenvalues --   -0.42086  -0.42047  -0.41796  -0.41237  -0.40988
 Alpha  occ. eigenvalues --   -0.40743  -0.40585  -0.40240  -0.40100  -0.39937
 Alpha  occ. eigenvalues --   -0.39699  -0.39654  -0.39483  -0.39237  -0.39140
 Alpha  occ. eigenvalues --   -0.38845  -0.38639  -0.38354  -0.38244  -0.38072
 Alpha  occ. eigenvalues --   -0.38040  -0.37862  -0.37772  -0.37435  -0.37274
 Alpha  occ. eigenvalues --   -0.37211  -0.37091  -0.36782  -0.36736  -0.36654
 Alpha  occ. eigenvalues --   -0.36252  -0.35941  -0.35764  -0.35675  -0.35568
 Alpha  occ. eigenvalues --   -0.35331  -0.35273  -0.34965  -0.34740  -0.34729
 Alpha  occ. eigenvalues --   -0.34491  -0.34375  -0.34295  -0.34145  -0.33902
 Alpha  occ. eigenvalues --   -0.33621  -0.33599  -0.33526  -0.33283  -0.33122
 Alpha  occ. eigenvalues --   -0.33070  -0.33027  -0.32960  -0.32662  -0.32553
 Alpha  occ. eigenvalues --   -0.32352  -0.32111  -0.32026  -0.31980  -0.31851
 Alpha  occ. eigenvalues --   -0.31756  -0.31315  -0.31045  -0.30837  -0.30817
 Alpha  occ. eigenvalues --   -0.30663  -0.30525  -0.30109  -0.29860  -0.29823
 Alpha  occ. eigenvalues --   -0.29485  -0.29438  -0.29175  -0.28913  -0.28830
 Alpha  occ. eigenvalues --   -0.28570  -0.28498  -0.28139  -0.28066  -0.27800
 Alpha  occ. eigenvalues --   -0.27509  -0.27197  -0.27093  -0.26655  -0.26435
 Alpha  occ. eigenvalues --   -0.26303  -0.26209  -0.25856  -0.25722  -0.25627
 Alpha  occ. eigenvalues --   -0.25496  -0.25046  -0.23906  -0.23795  -0.23743
 Alpha  occ. eigenvalues --   -0.23448  -0.22330  -0.21964  -0.20933  -0.20922
 Alpha  occ. eigenvalues --   -0.20367  -0.20172  -0.19290  -0.19118  -0.17100
 Alpha  occ. eigenvalues --   -0.15594
 Alpha virt. eigenvalues --   -0.11334  -0.06577  -0.06116  -0.04107  -0.03461
 Alpha virt. eigenvalues --   -0.03027  -0.02854  -0.02135  -0.01291   0.00226
 Alpha virt. eigenvalues --    0.01195   0.01657   0.02300   0.02596   0.02772

 Mulliken charges:
               1
     1  Mg   0.701007
     2  C    0.018830
     3  C   -0.077350
     4  C   -0.040688
     5  C   -0.088893
     6  N   -0.197101
     7  C   -0.077125
     8  C    0.006384
     9  C   -0.013540
    10  C    0.032627
    11  C    0.134614
    12  C    0.036362
    13  C    0.192315
    14  C    0.068816
    15  O   -0.181688
    16  O   -0.270128
    17  N   -0.219354
    18  C    0.115862
    19  C   -0.117236
    20  C   -0.015229
    21  C    0.048276
    22  C    0.163859
    23  C   -0.058481
    24  O   -0.092044
    25  C    0.112689
    26  N   -0.194857
    27  C    0.022606
    28  C    0.026986
    29  C    0.009771
    30  C   -0.002793
    31  C    0.145274
    32  C    0.094073
    33  C    0.058984
    34  N   -0.273409
    35  C    0.120403
    36  C   -0.169038
    37  C    0.060325
    38  C    0.067262
    39  C    0.196278
    40  C    0.003543
    41  O   -0.130821
    42  C    0.060205
    43  C    0.107533
    44  O   -0.185940
    45  O   -0.285629
    46  C    0.223798
    47  C    0.304267
    48  C   -0.122805
    49  C   -0.136694
    50  C    0.137067
    51  C    0.151161
    52  C    0.035548
    53  C    0.120727
    54  C   -0.048555
    55  C    0.090650
    56  C    0.122367
    57  C    0.043859
    58  C    0.130254
    59  C   -0.079509
    60  C    0.089927
    61  C    0.114466
    62  C    0.044492
    63  C    0.074517
    64  C   -0.088847
    65  C    0.117479
    66  C    0.088420
    67  H   -0.075724
    68  H   -0.035275
    69  H   -0.074132
    70  H   -0.012065
    71  H   -0.023991
    72  H   -0.030538
    73  H   -0.007158
    74  H    0.007979
    75  H   -0.009261
    76  H   -0.003781
    77  H   -0.005606
    78  H    0.003638
    79  H    0.010492
    80  H   -0.007371
    81  H   -0.021726
    82  H    0.006304
    83  H   -0.003074
    84  H   -0.021055
    85  H   -0.013633
    86  H   -0.007210
    87  H   -0.018258
    88  H   -0.003155
    89  H   -0.006709
    90  H   -0.009267
    91  H   -0.022649
    92  H   -0.012760
    93  H   -0.003006
    94  H   -0.018515
    95  H   -0.004190
    96  H   -0.004095
    97  H    0.014699
    98  H   -0.010989
    99  H    0.018793
   100  H    0.006756
   101  H    0.009823
   102  H    0.010631
   103  H    0.008443
   104  H   -0.031400
   105  H   -0.006497
   106  H    0.010418
   107  H   -0.005204
   108  H   -0.043361
   109  H   -0.014469
   110  H   -0.035371
   111  H   -0.032898
   112  H   -0.040227
   113  H   -0.029539
   114  H   -0.037672
   115  H   -0.020233
   116  H   -0.018426
   117  H   -0.027006
   118  H   -0.048909
   119  H   -0.049487
   120  H   -0.038953
   121  H   -0.019652
   122  H   -0.047177
   123  H   -0.039320
   124  H   -0.027817
   125  H   -0.017172
   126  H    0.009473
   127  H   -0.022015
   128  H   -0.034489
   129  H   -0.033339
   130  H   -0.035669
   131  H   -0.018416
   132  H   -0.038537
   133  H   -0.029564
   134  H   -0.031259
   135  H   -0.010724
   136  H   -0.026677
   137  H   -0.013434
   138  H   -0.027218
   139  H   -0.013575
   140  H   -0.012677
 Sum of Mulliken charges =  -0.00000

 Dipole moment (field-independent basis, Debye):
    X=              3.8250    Y=              3.0555    Z=             -1.1627  Tot=              5.0318
 Quadrupole moment (field-independent basis, Debye-Ang):
   XX=           -397.0581   YY=           -433.1054   ZZ=           -403.7140
   XY=            -36.5434   XZ=             12.7572   YZ=              7.0873

 Normal termination of Gaussian 16 at Wed May  4 00:46:24 2022.
