 Gaussian 16, Revision A.03,
 Gaussian 16:  ES64L-G16RevA.03 25-Dec-2016

 -----------------------------------
 #p cam-b3lyp/Def2SVP td=(nstates=5)
 -----------------------------------

 --------------------------------------------------------
 step_1151_chromophore_21 TDDFT with cam-b3lyp functional
 --------------------------------------------------------
 Symbolic Z-matrix:
 Charge =  0 Multiplicity = 1

                         Standard orientation:
 ---------------------------------------------------------------------
 Center     Atomic      Atomic             Coordinates (Angstroms)
 Number     Number       Type             X           Y           Z
 ---------------------------------------------------------------------
      1         12           0       -5.359152    1.115093   -0.316884
      2          6           0       -5.129961   -2.298695   -0.110051
      3          6           0       -1.852670    1.308935   -0.205104
      4          6           0       -5.523471    4.498640   -0.054311
      5          6           0       -8.777229    0.939918    0.182884
      6          7           0       -3.704175   -0.293992   -0.224805
      7          6           0       -3.885538   -1.693550   -0.245366
      8          6           0       -2.514296   -2.405815   -0.415270
      9          6           0       -1.454297   -1.202975   -0.125275
     10          6           0       -2.414621   -0.016683   -0.274604
     11          6           0       -0.675240   -1.292698    1.187597
     12          6           0       -2.396185   -2.912999   -1.935205
     13          6           0       -1.048002   -3.547403   -2.370099
     14          6           0       -0.131033   -4.060660   -1.212701
     15          8           0       -0.367424   -5.005093   -0.491327
     16          8           0        1.089518   -3.450829   -1.198492
     17          7           0       -3.838962    2.687039   -0.215394
     18          6           0       -2.495186    2.553750   -0.121559
     19          6           0       -1.901038    3.806201   -0.050324
     20          6           0       -2.938848    4.739857   -0.160212
     21          6           0       -4.182899    3.969913   -0.230409
     22          6           0       -0.431750    4.027333    0.295010
     23          6           0       -2.880464    6.288005   -0.225243
     24          8           0       -3.839401    6.941013   -0.300808
     25          6           0       -1.478559    6.948205   -0.227152
     26          7           0       -6.971600    2.481512   -0.036780
     27          6           0       -6.791921    3.839047   -0.062568
     28          6           0       -8.059146    4.617398    0.251495
     29          6           0       -9.161045    3.480659    0.259669
     30          6           0       -8.253712    2.231020    0.061747
     31          6           0       -8.033157    5.296826    1.602972
     32          6           0      -10.201477    3.606884   -0.925018
     33          6           0      -11.651342    3.459573   -0.566819
     34          7           0       -6.720383   -0.381992   -0.114023
     35          6           0       -8.106987   -0.326784    0.094119
     36          6           0       -8.649157   -1.712007    0.226317
     37          6           0       -7.492549   -2.508954    0.119135
     38          6           0       -6.385504   -1.665854   -0.068268
     39          6           0      -10.034551   -2.147834    0.347396
     40          6           0       -7.087219   -3.899150    0.090301
     41          8           0       -7.688126   -4.963655    0.239185
     42          6           0       -5.450930   -3.813511    0.046923
     43          6           0       -4.726212   -4.503473    1.160662
     44          8           0       -4.790633   -4.281538    2.374433
     45          8           0       -3.925182   -5.519907    0.651213
     46          6           0       -3.373612   -6.471797    1.612082
     47          6           0        2.059351   -3.984875   -0.212390
     48          6           0        3.366122   -3.193830   -0.166689
     49          6           0        4.222844   -3.052119    0.862331
     50          6           0        4.042809   -3.565654    2.266921
     51          6           0        5.374500   -2.130713    0.704253
     52          6           0        6.466068   -2.627463   -0.354655
     53          6           0        6.853500   -1.524382   -1.343138
     54          6           0        8.057216   -0.702062   -0.810279
     55          6           0        7.777176    0.804201   -1.032658
     56          6           0        9.422831   -1.153022   -1.291458
     57          6           0       10.497945   -1.300396   -0.251491
     58          6           0       11.949906   -1.328042   -0.796022
     59          6           0       12.689229    0.012541   -0.612488
     60          6           0       13.407678    0.511573   -1.985369
     61          6           0       13.644321   -0.043590    0.579819
     62          6           0       14.049403    1.437958    0.996587
     63          6           0       15.604617    1.791546    0.952767
     64          6           0       15.917688    3.299989    0.824620
     65          6           0       17.213609    3.690363    0.044428
     66          6           0       15.906185    3.868528    2.309693
     67          1           0       -0.763211    1.358366   -0.164004
     68          1           0       -5.535591    5.589905   -0.070552
     69          1           0       -9.846928    0.930711    0.402768
     70          1           0       -2.552123   -3.287610    0.224601
     71          1           0       -0.634809   -1.223555   -0.844239
     72          1           0       -0.872465   -0.346644    1.692552
     73          1           0        0.390859   -1.258277    0.963560
     74          1           0       -0.966836   -1.997674    1.965203
     75          1           0       -2.741335   -2.047197   -2.501975
     76          1           0       -3.066510   -3.768242   -2.012277
     77          1           0       -0.553219   -2.770499   -2.951494
     78          1           0       -1.415510   -4.391145   -2.953985
     79          1           0       -0.420273    4.434817    1.305430
     80          1           0        0.103866    4.669802   -0.403331
     81          1           0        0.195888    3.136534    0.327245
     82          1           0       -0.726468    6.437189   -0.829240
     83          1           0       -1.092998    7.040858    0.787542
     84          1           0       -1.516535    8.009873   -0.472130
     85          1           0       -8.135011    5.363373   -0.538668
     86          1           0       -9.677672    3.246449    1.190977
     87          1           0       -8.690252    4.800897    2.317528
     88          1           0       -8.299635    6.339679    1.433906
     89          1           0       -7.071276    5.252733    2.114266
     90          1           0      -10.035829    2.884559   -1.724403
     91          1           0      -10.117601    4.636176   -1.272084
     92          1           0      -11.896242    2.405500   -0.697141
     93          1           0      -12.327163    4.069581   -1.166124
     94          1           0      -11.781158    3.672109    0.494200
     95          1           0      -10.631578   -1.441207   -0.229878
     96          1           0      -10.386953   -2.026366    1.371388
     97          1           0      -10.084334   -3.217119    0.141942
     98          1           0       -5.024034   -4.210769   -0.873355
     99          1           0       -2.554372   -7.064528    1.205421
    100          1           0       -4.156571   -7.166626    1.917382
    101          1           0       -3.009564   -5.992830    2.521147
    102          1           0        2.308549   -5.020249   -0.448041
    103          1           0        1.784364   -3.938326    0.841504
    104          1           0        3.477874   -2.560415   -1.045848
    105          1           0        3.363549   -4.416540    2.210323
    106          1           0        3.598529   -2.810797    2.914527
    107          1           0        4.984521   -3.836020    2.745284
    108          1           0        5.917366   -2.080936    1.648048
    109          1           0        5.118350   -1.114444    0.404587
    110          1           0        6.177287   -3.511596   -0.921911
    111          1           0        7.330659   -3.026013    0.175845
    112          1           0        6.028016   -0.812910   -1.383159
    113          1           0        7.004979   -2.005308   -2.309397
    114          1           0        8.045052   -0.852701    0.269048
    115          1           0        7.291909    1.242049   -0.160610
    116          1           0        7.140005    1.057312   -1.880451
    117          1           0        8.646976    1.426886   -1.243771
    118          1           0        9.859620   -0.451047   -2.000808
    119          1           0        9.360176   -2.065092   -1.883414
    120          1           0       10.381637   -2.306198    0.151445
    121          1           0       10.279277   -0.551296    0.509385
    122          1           0       12.040766   -1.549924   -1.859062
    123          1           0       12.370167   -2.183045   -0.266367
    124          1           0       11.882721    0.710562   -0.390945
    125          1           0       13.571723   -0.325022   -2.663789
    126          1           0       14.289871    1.120267   -1.783722
    127          1           0       12.621397    0.980815   -2.576402
    128          1           0       14.563318   -0.551489    0.286021
    129          1           0       13.323289   -0.527101    1.502389
    130          1           0       13.812070    1.467948    2.060328
    131          1           0       13.445594    2.176348    0.468497
    132          1           0       16.092075    1.314516    0.102422
    133          1           0       16.069922    1.382244    1.850034
    134          1           0       15.086147    3.690285    0.237036
    135          1           0       17.884774    2.862338   -0.182335
    136          1           0       17.783240    4.401361    0.642552
    137          1           0       16.909940    4.232874   -0.851674
    138          1           0       14.927522    4.315859    2.486891
    139          1           0       16.632046    4.665416    2.473341
    140          1           0       15.894689    3.140300    3.120813
 ---------------------------------------------------------------------

 SCF Done:  E(RCAM-B3LYP) =  -3007.17348746     A.U. after   17 cycles

 Excitation energies and oscillator strengths:

 Excited State   1:      Singlet-A      1.7199 eV  720.90 nm  f=0.3817  <S**2>=0.000
     245 -> 248       -0.17817
     246 -> 247        0.68524
     245 <- 248       -0.10688
 This state for optimization and/or second-order correction.
 Total Energy, E(TD-HF/TD-DFT) =  -3007.11028365
 Copying the excited state density for this state as the 1-particle RhoCI density.

 Excited State   2:      Singlet-A      2.2340 eV  554.98 nm  f=0.1123  <S**2>=0.000
     245 -> 247        0.63357
     246 -> 248        0.30175

 Excited State   3:      Singlet-A      3.4635 eV  357.97 nm  f=0.1026  <S**2>=0.000
     240 -> 247        0.11305
     242 -> 247       -0.35192
     243 -> 247        0.32232
     244 -> 247        0.36732
     245 -> 247       -0.10924
     246 -> 248        0.30153

 Excited State   4:      Singlet-A      3.5396 eV  350.28 nm  f=0.4791  <S**2>=0.000
     243 -> 247       -0.27728
     244 -> 247       -0.29628
     245 -> 247       -0.24170
     246 -> 248        0.50975

 Excited State   5:      Singlet-A      3.6342 eV  341.16 nm  f=0.0381  <S**2>=0.000
     240 -> 247       -0.22326
     240 -> 249       -0.13926
     241 -> 247        0.43085
     241 -> 249        0.33250
     241 -> 250        0.10897
     242 -> 247        0.23924
     246 -> 248        0.10273

 The electronic state is 1-A.
 Alpha  occ. eigenvalues --  -46.88962 -19.26074 -19.24019 -19.20177 -19.19796
 Alpha  occ. eigenvalues --  -19.19338 -19.19011 -14.42623 -14.41984 -14.39404
 Alpha  occ. eigenvalues --  -14.38861 -10.40124 -10.38922 -10.35603 -10.35495
 Alpha  occ. eigenvalues --  -10.32586 -10.31315 -10.30905 -10.30903 -10.30307
 Alpha  occ. eigenvalues --  -10.30174 -10.30158 -10.29954 -10.28999 -10.28410
 Alpha  occ. eigenvalues --  -10.28394 -10.28337 -10.28273 -10.28159 -10.28095
 Alpha  occ. eigenvalues --  -10.28080 -10.27842 -10.27813 -10.27716 -10.27606
 Alpha  occ. eigenvalues --  -10.27260 -10.27259 -10.26988 -10.26556 -10.26536
 Alpha  occ. eigenvalues --  -10.26527 -10.26337 -10.26199 -10.26076 -10.26069
 Alpha  occ. eigenvalues --  -10.26048 -10.25969 -10.25921 -10.25790 -10.25772
 Alpha  occ. eigenvalues --  -10.25662 -10.25385 -10.25263 -10.25245 -10.25152
 Alpha  occ. eigenvalues --  -10.25073 -10.25059 -10.24995 -10.24974 -10.24791
 Alpha  occ. eigenvalues --  -10.24688 -10.24688 -10.24630 -10.24559 -10.24392
 Alpha  occ. eigenvalues --  -10.24249  -3.17448  -1.92365  -1.91902  -1.91747
 Alpha  occ. eigenvalues --   -1.17214  -1.14604  -1.14146  -1.09207  -1.08182
 Alpha  occ. eigenvalues --   -1.05961  -1.05021  -1.04360  -1.03775  -1.02844
 Alpha  occ. eigenvalues --   -0.91745  -0.91166  -0.90007  -0.89020  -0.88916
 Alpha  occ. eigenvalues --   -0.88496  -0.88405  -0.87434  -0.87181  -0.87083
 Alpha  occ. eigenvalues --   -0.86425  -0.85271  -0.84485  -0.83899  -0.83000
 Alpha  occ. eigenvalues --   -0.82253  -0.81741  -0.81018  -0.80671  -0.79837
 Alpha  occ. eigenvalues --   -0.79602  -0.78352  -0.77963  -0.77093  -0.76235
 Alpha  occ. eigenvalues --   -0.75668  -0.75435  -0.75201  -0.75123  -0.74259
 Alpha  occ. eigenvalues --   -0.73370  -0.72468  -0.71456  -0.70120  -0.68853
 Alpha  occ. eigenvalues --   -0.68452  -0.68331  -0.67189  -0.66849  -0.66140
 Alpha  occ. eigenvalues --   -0.65446  -0.65297  -0.64650  -0.64050  -0.63901
 Alpha  occ. eigenvalues --   -0.63624  -0.63524  -0.62595  -0.61402  -0.60451
 Alpha  occ. eigenvalues --   -0.60248  -0.59619  -0.58648  -0.58452  -0.57944
 Alpha  occ. eigenvalues --   -0.56957  -0.56735  -0.56280  -0.56112  -0.55811
 Alpha  occ. eigenvalues --   -0.55408  -0.54900  -0.54845  -0.54183  -0.54046
 Alpha  occ. eigenvalues --   -0.53616  -0.53524  -0.53088  -0.53034  -0.52782
 Alpha  occ. eigenvalues --   -0.52405  -0.52321  -0.52177  -0.52068  -0.51632
 Alpha  occ. eigenvalues --   -0.51402  -0.51232  -0.51006  -0.50884  -0.50725
 Alpha  occ. eigenvalues --   -0.50515  -0.50351  -0.50133  -0.50094  -0.49708
 Alpha  occ. eigenvalues --   -0.49452  -0.49329  -0.49119  -0.48876  -0.48771
 Alpha  occ. eigenvalues --   -0.48692  -0.48508  -0.48266  -0.47699  -0.47586
 Alpha  occ. eigenvalues --   -0.47556  -0.47383  -0.46805  -0.46733  -0.46552
 Alpha  occ. eigenvalues --   -0.46506  -0.46178  -0.46142  -0.45990  -0.45584
 Alpha  occ. eigenvalues --   -0.45451  -0.45385  -0.45272  -0.45050  -0.44914
 Alpha  occ. eigenvalues --   -0.44839  -0.44716  -0.44540  -0.44302  -0.44206
 Alpha  occ. eigenvalues --   -0.44071  -0.43875  -0.43757  -0.43515  -0.43440
 Alpha  occ. eigenvalues --   -0.43381  -0.42898  -0.42797  -0.42296  -0.42136
 Alpha  occ. eigenvalues --   -0.42043  -0.41838  -0.41350  -0.41315  -0.41250
 Alpha  occ. eigenvalues --   -0.40655  -0.40616  -0.40567  -0.40345  -0.39866
 Alpha  occ. eigenvalues --   -0.39820  -0.39681  -0.39147  -0.39069  -0.38684
 Alpha  occ. eigenvalues --   -0.38367  -0.38070  -0.37953  -0.37786  -0.37650
 Alpha  occ. eigenvalues --   -0.37367  -0.36933  -0.36669  -0.36357  -0.36308
 Alpha  occ. eigenvalues --   -0.36137  -0.35637  -0.35360  -0.34516  -0.34419
 Alpha  occ. eigenvalues --   -0.34117  -0.33695  -0.32788  -0.31340  -0.31132
 Alpha  occ. eigenvalues --   -0.30945  -0.30156  -0.29798  -0.29749  -0.23871
 Alpha  occ. eigenvalues --   -0.20848
 Alpha virt. eigenvalues --   -0.08423  -0.01435   0.00453   0.02743   0.03005
 Alpha virt. eigenvalues --    0.04077   0.04571   0.04771   0.05353   0.06900
 Alpha virt. eigenvalues --    0.08330   0.08418   0.08697   0.08970   0.09187

 Mulliken charges:
               1
     1  Mg   0.833853
     2  C   -0.006592
     3  C   -0.087382
     4  C   -0.063084
     5  C   -0.092551
     6  N   -0.266216
     7  C   -0.039923
     8  C   -0.047086
     9  C   -0.064996
    10  C    0.051026
    11  C    0.075133
    12  C    0.001413
    13  C    0.119392
    14  C    0.142345
    15  O   -0.220924
    16  O   -0.334628
    17  N   -0.308565
    18  C    0.124014
    19  C   -0.125173
    20  C   -0.082079
    21  C    0.079052
    22  C    0.108422
    23  C    0.020269
    24  O   -0.133200
    25  C    0.032423
    26  N   -0.268842
    27  C    0.047753
    28  C   -0.032292
    29  C   -0.046306
    30  C    0.017172
    31  C    0.082810
    32  C    0.041133
    33  C   -0.001313
    34  N   -0.363360
    35  C    0.118748
    36  C   -0.159719
    37  C   -0.019957
    38  C    0.102075
    39  C    0.138021
    40  C    0.102910
    41  O   -0.171114
    42  C   -0.015918
    43  C    0.197113
    44  O   -0.222282
    45  O   -0.350248
    46  C    0.182955
    47  C    0.276850
    48  C   -0.139554
    49  C   -0.161897
    50  C    0.074510
    51  C    0.089438
    52  C   -0.015421
    53  C    0.064577
    54  C   -0.108695
    55  C    0.032796
    56  C    0.073570
    57  C   -0.010682
    58  C    0.074644
    59  C   -0.136062
    60  C    0.036793
    61  C    0.063992
    62  C   -0.009233
    63  C    0.023537
    64  C   -0.147926
    65  C    0.058310
    66  C    0.029078
    67  H   -0.039480
    68  H    0.004142
    69  H   -0.040182
    70  H    0.020585
    71  H    0.011518
    72  H   -0.002556
    73  H    0.015678
    74  H    0.034573
    75  H    0.020050
    76  H    0.021991
    77  H    0.027545
    78  H    0.037832
    79  H    0.037406
    80  H    0.018816
    81  H    0.007634
    82  H    0.031884
    83  H    0.026172
    84  H    0.015118
    85  H    0.021231
    86  H    0.026098
    87  H    0.007702
    88  H    0.021322
    89  H    0.020571
    90  H    0.019746
    91  H    0.004722
    92  H    0.008749
    93  H    0.021791
    94  H    0.004333
    95  H    0.019076
    96  H    0.023217
    97  H    0.041761
    98  H    0.033621
    99  H    0.042153
   100  H    0.029233
   101  H    0.034948
   102  H    0.038738
   103  H    0.031175
   104  H    0.002229
   105  H    0.016503
   106  H    0.034924
   107  H    0.020091
   108  H   -0.011933
   109  H    0.013632
   110  H   -0.004023
   111  H   -0.005919
   112  H   -0.011477
   113  H    0.000557
   114  H   -0.006283
   115  H    0.003730
   116  H    0.005921
   117  H   -0.002122
   118  H   -0.021761
   119  H   -0.019382
   120  H   -0.010473
   121  H    0.006126
   122  H   -0.017014
   123  H   -0.008421
   124  H    0.000839
   125  H    0.006460
   126  H    0.029419
   127  H    0.001964
   128  H   -0.005865
   129  H   -0.003386
   130  H   -0.007311
   131  H    0.006868
   132  H   -0.012694
   133  H   -0.001693
   134  H   -0.000408
   135  H    0.013203
   136  H   -0.002386
   137  H    0.010325
   138  H   -0.002638
   139  H    0.010320
   140  H    0.010263
 Sum of Mulliken charges =  -0.00000

 Dipole moment (field-independent basis, Debye):
    X=              4.5329    Y=              3.6930    Z=             -1.2340  Tot=              5.9756
 Quadrupole moment (field-independent basis, Debye-Ang):
   XX=           -400.6155   YY=           -429.4085   ZZ=           -403.5268
   XY=            -37.9141   XZ=             13.4642   YZ=              7.2626

 Normal termination of Gaussian 16 at Tue May  3 23:49:51 2022.
