 Gaussian 16, Revision A.03,
 Gaussian 16:  ES64L-G16RevA.03 25-Dec-2016

 ---------------------------------
 #p PBE1PBE/Def2SVP td=(nstates=5)
 ---------------------------------

 ------------------------------------------------------
 step_1151_chromophore_21 TDDFT with PBE1PBE functional
 ------------------------------------------------------
 Symbolic Z-matrix:
 Charge =  0 Multiplicity = 1

                         Standard orientation:
 ---------------------------------------------------------------------
 Center     Atomic      Atomic             Coordinates (Angstroms)
 Number     Number       Type             X           Y           Z
 ---------------------------------------------------------------------
      1         12           0       -5.359152    1.115093   -0.316884
      2          6           0       -5.129961   -2.298695   -0.110051
      3          6           0       -1.852670    1.308935   -0.205104
      4          6           0       -5.523471    4.498640   -0.054311
      5          6           0       -8.777229    0.939918    0.182884
      6          7           0       -3.704175   -0.293992   -0.224805
      7          6           0       -3.885538   -1.693550   -0.245366
      8          6           0       -2.514296   -2.405815   -0.415270
      9          6           0       -1.454297   -1.202975   -0.125275
     10          6           0       -2.414621   -0.016683   -0.274604
     11          6           0       -0.675240   -1.292698    1.187597
     12          6           0       -2.396185   -2.912999   -1.935205
     13          6           0       -1.048002   -3.547403   -2.370099
     14          6           0       -0.131033   -4.060660   -1.212701
     15          8           0       -0.367424   -5.005093   -0.491327
     16          8           0        1.089518   -3.450829   -1.198492
     17          7           0       -3.838962    2.687039   -0.215394
     18          6           0       -2.495186    2.553750   -0.121559
     19          6           0       -1.901038    3.806201   -0.050324
     20          6           0       -2.938848    4.739857   -0.160212
     21          6           0       -4.182899    3.969913   -0.230409
     22          6           0       -0.431750    4.027333    0.295010
     23          6           0       -2.880464    6.288005   -0.225243
     24          8           0       -3.839401    6.941013   -0.300808
     25          6           0       -1.478559    6.948205   -0.227152
     26          7           0       -6.971600    2.481512   -0.036780
     27          6           0       -6.791921    3.839047   -0.062568
     28          6           0       -8.059146    4.617398    0.251495
     29          6           0       -9.161045    3.480659    0.259669
     30          6           0       -8.253712    2.231020    0.061747
     31          6           0       -8.033157    5.296826    1.602972
     32          6           0      -10.201477    3.606884   -0.925018
     33          6           0      -11.651342    3.459573   -0.566819
     34          7           0       -6.720383   -0.381992   -0.114023
     35          6           0       -8.106987   -0.326784    0.094119
     36          6           0       -8.649157   -1.712007    0.226317
     37          6           0       -7.492549   -2.508954    0.119135
     38          6           0       -6.385504   -1.665854   -0.068268
     39          6           0      -10.034551   -2.147834    0.347396
     40          6           0       -7.087219   -3.899150    0.090301
     41          8           0       -7.688126   -4.963655    0.239185
     42          6           0       -5.450930   -3.813511    0.046923
     43          6           0       -4.726212   -4.503473    1.160662
     44          8           0       -4.790633   -4.281538    2.374433
     45          8           0       -3.925182   -5.519907    0.651213
     46          6           0       -3.373612   -6.471797    1.612082
     47          6           0        2.059351   -3.984875   -0.212390
     48          6           0        3.366122   -3.193830   -0.166689
     49          6           0        4.222844   -3.052119    0.862331
     50          6           0        4.042809   -3.565654    2.266921
     51          6           0        5.374500   -2.130713    0.704253
     52          6           0        6.466068   -2.627463   -0.354655
     53          6           0        6.853500   -1.524382   -1.343138
     54          6           0        8.057216   -0.702062   -0.810279
     55          6           0        7.777176    0.804201   -1.032658
     56          6           0        9.422831   -1.153022   -1.291458
     57          6           0       10.497945   -1.300396   -0.251491
     58          6           0       11.949906   -1.328042   -0.796022
     59          6           0       12.689229    0.012541   -0.612488
     60          6           0       13.407678    0.511573   -1.985369
     61          6           0       13.644321   -0.043590    0.579819
     62          6           0       14.049403    1.437958    0.996587
     63          6           0       15.604617    1.791546    0.952767
     64          6           0       15.917688    3.299989    0.824620
     65          6           0       17.213609    3.690363    0.044428
     66          6           0       15.906185    3.868528    2.309693
     67          1           0       -0.763211    1.358366   -0.164004
     68          1           0       -5.535591    5.589905   -0.070552
     69          1           0       -9.846928    0.930711    0.402768
     70          1           0       -2.552123   -3.287610    0.224601
     71          1           0       -0.634809   -1.223555   -0.844239
     72          1           0       -0.872465   -0.346644    1.692552
     73          1           0        0.390859   -1.258277    0.963560
     74          1           0       -0.966836   -1.997674    1.965203
     75          1           0       -2.741335   -2.047197   -2.501975
     76          1           0       -3.066510   -3.768242   -2.012277
     77          1           0       -0.553219   -2.770499   -2.951494
     78          1           0       -1.415510   -4.391145   -2.953985
     79          1           0       -0.420273    4.434817    1.305430
     80          1           0        0.103866    4.669802   -0.403331
     81          1           0        0.195888    3.136534    0.327245
     82          1           0       -0.726468    6.437189   -0.829240
     83          1           0       -1.092998    7.040858    0.787542
     84          1           0       -1.516535    8.009873   -0.472130
     85          1           0       -8.135011    5.363373   -0.538668
     86          1           0       -9.677672    3.246449    1.190977
     87          1           0       -8.690252    4.800897    2.317528
     88          1           0       -8.299635    6.339679    1.433906
     89          1           0       -7.071276    5.252733    2.114266
     90          1           0      -10.035829    2.884559   -1.724403
     91          1           0      -10.117601    4.636176   -1.272084
     92          1           0      -11.896242    2.405500   -0.697141
     93          1           0      -12.327163    4.069581   -1.166124
     94          1           0      -11.781158    3.672109    0.494200
     95          1           0      -10.631578   -1.441207   -0.229878
     96          1           0      -10.386953   -2.026366    1.371388
     97          1           0      -10.084334   -3.217119    0.141942
     98          1           0       -5.024034   -4.210769   -0.873355
     99          1           0       -2.554372   -7.064528    1.205421
    100          1           0       -4.156571   -7.166626    1.917382
    101          1           0       -3.009564   -5.992830    2.521147
    102          1           0        2.308549   -5.020249   -0.448041
    103          1           0        1.784364   -3.938326    0.841504
    104          1           0        3.477874   -2.560415   -1.045848
    105          1           0        3.363549   -4.416540    2.210323
    106          1           0        3.598529   -2.810797    2.914527
    107          1           0        4.984521   -3.836020    2.745284
    108          1           0        5.917366   -2.080936    1.648048
    109          1           0        5.118350   -1.114444    0.404587
    110          1           0        6.177287   -3.511596   -0.921911
    111          1           0        7.330659   -3.026013    0.175845
    112          1           0        6.028016   -0.812910   -1.383159
    113          1           0        7.004979   -2.005308   -2.309397
    114          1           0        8.045052   -0.852701    0.269048
    115          1           0        7.291909    1.242049   -0.160610
    116          1           0        7.140005    1.057312   -1.880451
    117          1           0        8.646976    1.426886   -1.243771
    118          1           0        9.859620   -0.451047   -2.000808
    119          1           0        9.360176   -2.065092   -1.883414
    120          1           0       10.381637   -2.306198    0.151445
    121          1           0       10.279277   -0.551296    0.509385
    122          1           0       12.040766   -1.549924   -1.859062
    123          1           0       12.370167   -2.183045   -0.266367
    124          1           0       11.882721    0.710562   -0.390945
    125          1           0       13.571723   -0.325022   -2.663789
    126          1           0       14.289871    1.120267   -1.783722
    127          1           0       12.621397    0.980815   -2.576402
    128          1           0       14.563318   -0.551489    0.286021
    129          1           0       13.323289   -0.527101    1.502389
    130          1           0       13.812070    1.467948    2.060328
    131          1           0       13.445594    2.176348    0.468497
    132          1           0       16.092075    1.314516    0.102422
    133          1           0       16.069922    1.382244    1.850034
    134          1           0       15.086147    3.690285    0.237036
    135          1           0       17.884774    2.862338   -0.182335
    136          1           0       17.783240    4.401361    0.642552
    137          1           0       16.909940    4.232874   -0.851674
    138          1           0       14.927522    4.315859    2.486891
    139          1           0       16.632046    4.665416    2.473341
    140          1           0       15.894689    3.140300    3.120813
 ---------------------------------------------------------------------

 SCF Done:  E(RPBE1PBE) =  -3005.36123487     A.U. after   15 cycles

 Excitation energies and oscillator strengths:

 Excited State   1:      Singlet-A      1.8671 eV  664.06 nm  f=0.3654  <S**2>=0.000
     245 -> 248        0.17381
     246 -> 247        0.69294
     246 <- 247       -0.10971
 This state for optimization and/or second-order correction.
 Total Energy, E(TD-HF/TD-DFT) =  -3005.29262197
 Copying the excited state density for this state as the 1-particle RhoCI density.

 Excited State   2:      Singlet-A      2.2399 eV  553.52 nm  f=0.1138  <S**2>=0.000
     245 -> 247        0.64758
     246 -> 248       -0.27394

 Excited State   3:      Singlet-A      3.1459 eV  394.12 nm  f=0.0004  <S**2>=0.000
     240 -> 247       -0.15893
     241 -> 247        0.14065
     242 -> 247       -0.12574
     243 -> 247        0.64674

 Excited State   4:      Singlet-A      3.1748 eV  390.53 nm  f=0.0001  <S**2>=0.000
     240 -> 247        0.27864
     240 -> 249       -0.10878
     241 -> 247       -0.21860
     242 -> 247        0.51523
     243 -> 247        0.23896

 Excited State   5:      Singlet-A      3.2681 eV  379.38 nm  f=0.0002  <S**2>=0.000
     240 -> 247        0.36049
     241 -> 247        0.57924

 The electronic state is 1-A.
 Alpha  occ. eigenvalues --  -46.92363 -19.26754 -19.24699 -19.20435 -19.19841
 Alpha  occ. eigenvalues --  -19.19665 -19.19236 -14.42066 -14.41504 -14.39133
 Alpha  occ. eigenvalues --  -14.38421 -10.37189 -10.35942 -10.32822 -10.32493
 Alpha  occ. eigenvalues --  -10.30006 -10.28893 -10.28766 -10.28562 -10.28110
 Alpha  occ. eigenvalues --  -10.28009 -10.27549 -10.27476 -10.26460 -10.26205
 Alpha  occ. eigenvalues --  -10.26162 -10.26140 -10.26029 -10.25936 -10.25869
 Alpha  occ. eigenvalues --  -10.25836 -10.25640 -10.25534 -10.25275 -10.25270
 Alpha  occ. eigenvalues --  -10.24898 -10.24571 -10.24545 -10.24283 -10.24116
 Alpha  occ. eigenvalues --  -10.24051 -10.23914 -10.23779 -10.23753 -10.23749
 Alpha  occ. eigenvalues --  -10.23729 -10.23489 -10.23473 -10.23314 -10.23167
 Alpha  occ. eigenvalues --  -10.23063 -10.22942 -10.22871 -10.22847 -10.22658
 Alpha  occ. eigenvalues --  -10.22624 -10.22609 -10.22570 -10.22518 -10.22352
 Alpha  occ. eigenvalues --  -10.22209 -10.22192 -10.22080 -10.21949 -10.21801
 Alpha  occ. eigenvalues --  -10.21751  -3.14431  -1.87289  -1.86804  -1.86651
 Alpha  occ. eigenvalues --   -1.12032  -1.09376  -1.08800  -1.04035  -1.03054
 Alpha  occ. eigenvalues --   -1.00787  -0.99658  -0.98958  -0.98448  -0.97546
 Alpha  occ. eigenvalues --   -0.86133  -0.85294  -0.84109  -0.83334  -0.83100
 Alpha  occ. eigenvalues --   -0.82683  -0.82577  -0.81815  -0.81468  -0.81174
 Alpha  occ. eigenvalues --   -0.80668  -0.79482  -0.78641  -0.78222  -0.77257
 Alpha  occ. eigenvalues --   -0.76521  -0.76037  -0.75188  -0.74780  -0.74152
 Alpha  occ. eigenvalues --   -0.73722  -0.72670  -0.72144  -0.71439  -0.70415
 Alpha  occ. eigenvalues --   -0.70007  -0.69523  -0.69471  -0.69307  -0.68410
 Alpha  occ. eigenvalues --   -0.67709  -0.66941  -0.65868  -0.64429  -0.63152
 Alpha  occ. eigenvalues --   -0.62911  -0.62733  -0.61477  -0.61192  -0.60560
 Alpha  occ. eigenvalues --   -0.59884  -0.59518  -0.59199  -0.58591  -0.58205
 Alpha  occ. eigenvalues --   -0.57947  -0.57660  -0.56791  -0.56008  -0.54917
 Alpha  occ. eigenvalues --   -0.54681  -0.54133  -0.53223  -0.53079  -0.52586
 Alpha  occ. eigenvalues --   -0.51385  -0.51204  -0.50872  -0.50543  -0.50272
 Alpha  occ. eigenvalues --   -0.49951  -0.49479  -0.49205  -0.48726  -0.48523
 Alpha  occ. eigenvalues --   -0.48171  -0.48081  -0.47508  -0.47485  -0.47212
 Alpha  occ. eigenvalues --   -0.46961  -0.46851  -0.46707  -0.46631  -0.46157
 Alpha  occ. eigenvalues --   -0.46005  -0.45771  -0.45624  -0.45386  -0.45230
 Alpha  occ. eigenvalues --   -0.45075  -0.44855  -0.44643  -0.44613  -0.44346
 Alpha  occ. eigenvalues --   -0.44084  -0.43874  -0.43659  -0.43489  -0.43321
 Alpha  occ. eigenvalues --   -0.43297  -0.43109  -0.42856  -0.42302  -0.42283
 Alpha  occ. eigenvalues --   -0.42161  -0.41988  -0.41429  -0.41385  -0.41261
 Alpha  occ. eigenvalues --   -0.41105  -0.40928  -0.40885  -0.40787  -0.40309
 Alpha  occ. eigenvalues --   -0.40185  -0.40144  -0.40013  -0.39755  -0.39659
 Alpha  occ. eigenvalues --   -0.39584  -0.39383  -0.39382  -0.39043  -0.38901
 Alpha  occ. eigenvalues --   -0.38770  -0.38551  -0.38528  -0.38274  -0.38227
 Alpha  occ. eigenvalues --   -0.38123  -0.37645  -0.37433  -0.37121  -0.37033
 Alpha  occ. eigenvalues --   -0.36871  -0.36575  -0.36143  -0.36099  -0.36044
 Alpha  occ. eigenvalues --   -0.35482  -0.35379  -0.35308  -0.35241  -0.34793
 Alpha  occ. eigenvalues --   -0.34760  -0.34497  -0.34136  -0.33851  -0.33507
 Alpha  occ. eigenvalues --   -0.33126  -0.33083  -0.32838  -0.32722  -0.32654
 Alpha  occ. eigenvalues --   -0.32169  -0.31742  -0.31741  -0.31262  -0.31232
 Alpha  occ. eigenvalues --   -0.31110  -0.30463  -0.30299  -0.29729  -0.29235
 Alpha  occ. eigenvalues --   -0.29099  -0.28867  -0.28040  -0.26714  -0.26082
 Alpha  occ. eigenvalues --   -0.26045  -0.25720  -0.25403  -0.25068  -0.20784
 Alpha  occ. eigenvalues --   -0.18504
 Alpha virt. eigenvalues --   -0.10900  -0.04937  -0.03800  -0.01489  -0.00357
 Alpha virt. eigenvalues --   -0.00079   0.00124   0.00239   0.01397   0.03132
 Alpha virt. eigenvalues --    0.04051   0.04700   0.05221   0.05495   0.05714

 Mulliken charges:
               1
     1  Mg   0.981561
     2  C   -0.024127
     3  C   -0.078292
     4  C   -0.055707
     5  C   -0.081933
     6  N   -0.373751
     7  C    0.035371
     8  C   -0.131468
     9  C   -0.132021
    10  C    0.087792
    11  C    0.020643
    12  C   -0.039491
    13  C    0.037822
    14  C    0.210311
    15  O   -0.254726
    16  O   -0.367042
    17  N   -0.426752
    18  C    0.146955
    19  C   -0.154050
    20  C   -0.134156
    21  C    0.120471
    22  C    0.050571
    23  C    0.072753
    24  O   -0.173993
    25  C   -0.040814
    26  N   -0.374973
    27  C    0.079982
    28  C   -0.112016
    29  C   -0.124187
    30  C    0.058660
    31  C    0.028316
    32  C   -0.014426
    33  C   -0.073488
    34  N   -0.493491
    35  C    0.140568
    36  C   -0.178310
    37  C   -0.066137
    38  C    0.157287
    39  C    0.080855
    40  C    0.194412
    41  O   -0.216435
    42  C   -0.116817
    43  C    0.282131
    44  O   -0.258392
    45  O   -0.381833
    46  C    0.128150
    47  C    0.236667
    48  C   -0.146009
    49  C   -0.208118
    50  C    0.007264
    51  C    0.025329
    52  C   -0.073030
    53  C    0.005440
    54  C   -0.198749
    55  C   -0.026662
    56  C    0.028545
    57  C   -0.082519
    58  C    0.025632
    59  C   -0.224680
    60  C   -0.026057
    61  C    0.013981
    62  C   -0.071043
    63  C   -0.033242
    64  C   -0.237933
    65  C   -0.002226
    66  C   -0.030538
    67  H   -0.006559
    68  H    0.035943
    69  H   -0.005927
    70  H    0.063622
    71  H    0.048516
    72  H    0.026913
    73  H    0.043118
    74  H    0.060205
    75  H    0.052703
    76  H    0.056144
    77  H    0.059257
    78  H    0.071126
    79  H    0.064919
    80  H    0.045096
    81  H    0.033710
    82  H    0.057954
    83  H    0.053251
    84  H    0.042712
    85  H    0.055889
    86  H    0.060289
    87  H    0.034990
    88  H    0.048563
    89  H    0.048639
    90  H    0.051532
    91  H    0.038602
    92  H    0.036359
    93  H    0.049718
    94  H    0.032389
    95  H    0.046781
    96  H    0.052972
    97  H    0.069609
    98  H    0.075364
    99  H    0.063807
   100  H    0.052083
   101  H    0.056320
   102  H    0.066005
   103  H    0.057396
   104  H    0.032652
   105  H    0.043842
   106  H    0.062874
   107  H    0.047749
   108  H    0.020424
   109  H    0.045575
   110  H    0.028163
   111  H    0.027506
   112  H    0.022210
   113  H    0.032323
   114  H    0.033197
   115  H    0.031676
   116  H    0.032932
   117  H    0.025299
   118  H    0.013048
   119  H    0.013084
   120  H    0.023904
   121  H    0.037724
   122  H    0.014894
   123  H    0.023310
   124  H    0.039639
   125  H    0.033474
   126  H    0.058053
   127  H    0.030058
   128  H    0.027393
   129  H    0.028333
   130  H    0.026926
   131  H    0.036954
   132  H    0.019433
   133  H    0.031240
   134  H    0.037059
   135  H    0.039516
   136  H    0.025056
   137  H    0.037683
   138  H    0.025683
   139  H    0.037065
   140  H    0.036203
 Sum of Mulliken charges =  -0.00000

 Dipole moment (field-independent basis, Debye):
    X=              4.2341    Y=              3.5138    Z=             -1.1690  Tot=              5.6250
 Quadrupole moment (field-independent basis, Debye-Ang):
   XX=           -392.1861   YY=           -426.9733   ZZ=           -401.0159
   XY=            -38.2824   XZ=             13.2177   YZ=              7.3502

 Normal termination of Gaussian 16 at Wed May  4 00:06:33 2022.
