 Gaussian 16, Revision A.03,
 Gaussian 16:  ES64L-G16RevA.03 25-Dec-2016

 --------------------------------
 #p wB97XD/Def2SVP td=(nstates=5)
 --------------------------------

 -----------------------------------------------------
 step_1151_chromophore_21 TDDFT with wB97XD functional
 -----------------------------------------------------
 Symbolic Z-matrix:
 Charge =  0 Multiplicity = 1

                         Standard orientation:
 ---------------------------------------------------------------------
 Center     Atomic      Atomic             Coordinates (Angstroms)
 Number     Number       Type             X           Y           Z
 ---------------------------------------------------------------------
      1         12           0       -5.359152    1.115093   -0.316884
      2          6           0       -5.129961   -2.298695   -0.110051
      3          6           0       -1.852670    1.308935   -0.205104
      4          6           0       -5.523471    4.498640   -0.054311
      5          6           0       -8.777229    0.939918    0.182884
      6          7           0       -3.704175   -0.293992   -0.224805
      7          6           0       -3.885538   -1.693550   -0.245366
      8          6           0       -2.514296   -2.405815   -0.415270
      9          6           0       -1.454297   -1.202975   -0.125275
     10          6           0       -2.414621   -0.016683   -0.274604
     11          6           0       -0.675240   -1.292698    1.187597
     12          6           0       -2.396185   -2.912999   -1.935205
     13          6           0       -1.048002   -3.547403   -2.370099
     14          6           0       -0.131033   -4.060660   -1.212701
     15          8           0       -0.367424   -5.005093   -0.491327
     16          8           0        1.089518   -3.450829   -1.198492
     17          7           0       -3.838962    2.687039   -0.215394
     18          6           0       -2.495186    2.553750   -0.121559
     19          6           0       -1.901038    3.806201   -0.050324
     20          6           0       -2.938848    4.739857   -0.160212
     21          6           0       -4.182899    3.969913   -0.230409
     22          6           0       -0.431750    4.027333    0.295010
     23          6           0       -2.880464    6.288005   -0.225243
     24          8           0       -3.839401    6.941013   -0.300808
     25          6           0       -1.478559    6.948205   -0.227152
     26          7           0       -6.971600    2.481512   -0.036780
     27          6           0       -6.791921    3.839047   -0.062568
     28          6           0       -8.059146    4.617398    0.251495
     29          6           0       -9.161045    3.480659    0.259669
     30          6           0       -8.253712    2.231020    0.061747
     31          6           0       -8.033157    5.296826    1.602972
     32          6           0      -10.201477    3.606884   -0.925018
     33          6           0      -11.651342    3.459573   -0.566819
     34          7           0       -6.720383   -0.381992   -0.114023
     35          6           0       -8.106987   -0.326784    0.094119
     36          6           0       -8.649157   -1.712007    0.226317
     37          6           0       -7.492549   -2.508954    0.119135
     38          6           0       -6.385504   -1.665854   -0.068268
     39          6           0      -10.034551   -2.147834    0.347396
     40          6           0       -7.087219   -3.899150    0.090301
     41          8           0       -7.688126   -4.963655    0.239185
     42          6           0       -5.450930   -3.813511    0.046923
     43          6           0       -4.726212   -4.503473    1.160662
     44          8           0       -4.790633   -4.281538    2.374433
     45          8           0       -3.925182   -5.519907    0.651213
     46          6           0       -3.373612   -6.471797    1.612082
     47          6           0        2.059351   -3.984875   -0.212390
     48          6           0        3.366122   -3.193830   -0.166689
     49          6           0        4.222844   -3.052119    0.862331
     50          6           0        4.042809   -3.565654    2.266921
     51          6           0        5.374500   -2.130713    0.704253
     52          6           0        6.466068   -2.627463   -0.354655
     53          6           0        6.853500   -1.524382   -1.343138
     54          6           0        8.057216   -0.702062   -0.810279
     55          6           0        7.777176    0.804201   -1.032658
     56          6           0        9.422831   -1.153022   -1.291458
     57          6           0       10.497945   -1.300396   -0.251491
     58          6           0       11.949906   -1.328042   -0.796022
     59          6           0       12.689229    0.012541   -0.612488
     60          6           0       13.407678    0.511573   -1.985369
     61          6           0       13.644321   -0.043590    0.579819
     62          6           0       14.049403    1.437958    0.996587
     63          6           0       15.604617    1.791546    0.952767
     64          6           0       15.917688    3.299989    0.824620
     65          6           0       17.213609    3.690363    0.044428
     66          6           0       15.906185    3.868528    2.309693
     67          1           0       -0.763211    1.358366   -0.164004
     68          1           0       -5.535591    5.589905   -0.070552
     69          1           0       -9.846928    0.930711    0.402768
     70          1           0       -2.552123   -3.287610    0.224601
     71          1           0       -0.634809   -1.223555   -0.844239
     72          1           0       -0.872465   -0.346644    1.692552
     73          1           0        0.390859   -1.258277    0.963560
     74          1           0       -0.966836   -1.997674    1.965203
     75          1           0       -2.741335   -2.047197   -2.501975
     76          1           0       -3.066510   -3.768242   -2.012277
     77          1           0       -0.553219   -2.770499   -2.951494
     78          1           0       -1.415510   -4.391145   -2.953985
     79          1           0       -0.420273    4.434817    1.305430
     80          1           0        0.103866    4.669802   -0.403331
     81          1           0        0.195888    3.136534    0.327245
     82          1           0       -0.726468    6.437189   -0.829240
     83          1           0       -1.092998    7.040858    0.787542
     84          1           0       -1.516535    8.009873   -0.472130
     85          1           0       -8.135011    5.363373   -0.538668
     86          1           0       -9.677672    3.246449    1.190977
     87          1           0       -8.690252    4.800897    2.317528
     88          1           0       -8.299635    6.339679    1.433906
     89          1           0       -7.071276    5.252733    2.114266
     90          1           0      -10.035829    2.884559   -1.724403
     91          1           0      -10.117601    4.636176   -1.272084
     92          1           0      -11.896242    2.405500   -0.697141
     93          1           0      -12.327163    4.069581   -1.166124
     94          1           0      -11.781158    3.672109    0.494200
     95          1           0      -10.631578   -1.441207   -0.229878
     96          1           0      -10.386953   -2.026366    1.371388
     97          1           0      -10.084334   -3.217119    0.141942
     98          1           0       -5.024034   -4.210769   -0.873355
     99          1           0       -2.554372   -7.064528    1.205421
    100          1           0       -4.156571   -7.166626    1.917382
    101          1           0       -3.009564   -5.992830    2.521147
    102          1           0        2.308549   -5.020249   -0.448041
    103          1           0        1.784364   -3.938326    0.841504
    104          1           0        3.477874   -2.560415   -1.045848
    105          1           0        3.363549   -4.416540    2.210323
    106          1           0        3.598529   -2.810797    2.914527
    107          1           0        4.984521   -3.836020    2.745284
    108          1           0        5.917366   -2.080936    1.648048
    109          1           0        5.118350   -1.114444    0.404587
    110          1           0        6.177287   -3.511596   -0.921911
    111          1           0        7.330659   -3.026013    0.175845
    112          1           0        6.028016   -0.812910   -1.383159
    113          1           0        7.004979   -2.005308   -2.309397
    114          1           0        8.045052   -0.852701    0.269048
    115          1           0        7.291909    1.242049   -0.160610
    116          1           0        7.140005    1.057312   -1.880451
    117          1           0        8.646976    1.426886   -1.243771
    118          1           0        9.859620   -0.451047   -2.000808
    119          1           0        9.360176   -2.065092   -1.883414
    120          1           0       10.381637   -2.306198    0.151445
    121          1           0       10.279277   -0.551296    0.509385
    122          1           0       12.040766   -1.549924   -1.859062
    123          1           0       12.370167   -2.183045   -0.266367
    124          1           0       11.882721    0.710562   -0.390945
    125          1           0       13.571723   -0.325022   -2.663789
    126          1           0       14.289871    1.120267   -1.783722
    127          1           0       12.621397    0.980815   -2.576402
    128          1           0       14.563318   -0.551489    0.286021
    129          1           0       13.323289   -0.527101    1.502389
    130          1           0       13.812070    1.467948    2.060328
    131          1           0       13.445594    2.176348    0.468497
    132          1           0       16.092075    1.314516    0.102422
    133          1           0       16.069922    1.382244    1.850034
    134          1           0       15.086147    3.690285    0.237036
    135          1           0       17.884774    2.862338   -0.182335
    136          1           0       17.783240    4.401361    0.642552
    137          1           0       16.909940    4.232874   -0.851674
    138          1           0       14.927522    4.315859    2.486891
    139          1           0       16.632046    4.665416    2.473341
    140          1           0       15.894689    3.140300    3.120813
 ---------------------------------------------------------------------

 SCF Done:  E(RwB97XD) =  -3007.87130836     A.U. after   19 cycles

 Excitation energies and oscillator strengths:

 Excited State   1:      Singlet-A      1.6661 eV  744.17 nm  f=0.3801  <S**2>=0.000
     245 -> 248        0.18343
     246 -> 247        0.68315
     245 <- 248        0.11573
 This state for optimization and/or second-order correction.
 Total Energy, E(TD-HF/TD-DFT) =  -3007.81008136
 Copying the excited state density for this state as the 1-particle RhoCI density.

 Excited State   2:      Singlet-A      2.1768 eV  569.58 nm  f=0.1092  <S**2>=0.000
     245 -> 247        0.63204
     246 -> 248       -0.30393

 Excited State   3:      Singlet-A      3.4736 eV  356.93 nm  f=0.1423  <S**2>=0.000
     239 -> 247        0.11291
     242 -> 247       -0.39445
     243 -> 247        0.40646
     245 -> 247       -0.12463
     246 -> 248       -0.34092

 Excited State   4:      Singlet-A      3.5572 eV  348.54 nm  f=0.4726  <S**2>=0.000
     243 -> 247        0.42705
     245 -> 247        0.23833
     246 -> 248        0.48935

 Excited State   5:      Singlet-A      3.6768 eV  337.21 nm  f=0.0295  <S**2>=0.000
     241 -> 247        0.44281
     241 -> 249       -0.37693
     241 -> 250        0.16254
     242 -> 247        0.23942

 The electronic state is 1-A.
 Alpha  occ. eigenvalues --  -46.95296 -19.31304 -19.29242 -19.25094 -19.24801
 Alpha  occ. eigenvalues --  -19.24385 -19.23949 -14.47238 -14.46542 -14.43988
 Alpha  occ. eigenvalues --  -14.43456 -10.43951 -10.42771 -10.39628 -10.39463
 Alpha  occ. eigenvalues --  -10.36504 -10.35364 -10.34972 -10.34941 -10.34176
 Alpha  occ. eigenvalues --  -10.34122 -10.34042 -10.34027 -10.33058 -10.32475
 Alpha  occ. eigenvalues --  -10.32375 -10.32341 -10.32260 -10.32210 -10.32167
 Alpha  occ. eigenvalues --  -10.32156 -10.31981 -10.31962 -10.31753 -10.31587
 Alpha  occ. eigenvalues --  -10.31256 -10.31230 -10.31079 -10.30695 -10.30541
 Alpha  occ. eigenvalues --  -10.30427 -10.30375 -10.30151 -10.30068 -10.30012
 Alpha  occ. eigenvalues --  -10.29986 -10.29872 -10.29860 -10.29784 -10.29611
 Alpha  occ. eigenvalues --  -10.29511 -10.29240 -10.29209 -10.29101 -10.29095
 Alpha  occ. eigenvalues --  -10.28998 -10.28944 -10.28940 -10.28902 -10.28724
 Alpha  occ. eigenvalues --  -10.28599 -10.28563 -10.28531 -10.28375 -10.28227
 Alpha  occ. eigenvalues --  -10.28158  -3.21226  -1.94833  -1.94347  -1.94192
 Alpha  occ. eigenvalues --   -1.19389  -1.16764  -1.16374  -1.11440  -1.10380
 Alpha  occ. eigenvalues --   -1.08150  -1.07026  -1.06410  -1.05792  -1.04871
 Alpha  occ. eigenvalues --   -0.93698  -0.92978  -0.91790  -0.90865  -0.90756
 Alpha  occ. eigenvalues --   -0.90363  -0.90263  -0.89354  -0.89107  -0.88856
 Alpha  occ. eigenvalues --   -0.88367  -0.87164  -0.86320  -0.85771  -0.84902
 Alpha  occ. eigenvalues --   -0.84164  -0.83663  -0.82872  -0.82587  -0.81801
 Alpha  occ. eigenvalues --   -0.81414  -0.80290  -0.79912  -0.79001  -0.78094
 Alpha  occ. eigenvalues --   -0.77612  -0.77233  -0.77053  -0.77013  -0.76091
 Alpha  occ. eigenvalues --   -0.75306  -0.74449  -0.73425  -0.72056  -0.70764
 Alpha  occ. eigenvalues --   -0.70434  -0.70246  -0.69096  -0.68825  -0.68034
 Alpha  occ. eigenvalues --   -0.67401  -0.67170  -0.66654  -0.66030  -0.65773
 Alpha  occ. eigenvalues --   -0.65535  -0.65350  -0.64435  -0.63395  -0.62469
 Alpha  occ. eigenvalues --   -0.62178  -0.61565  -0.60619  -0.60445  -0.59946
 Alpha  occ. eigenvalues --   -0.58883  -0.58688  -0.58254  -0.58015  -0.57710
 Alpha  occ. eigenvalues --   -0.57380  -0.56834  -0.56704  -0.56119  -0.55936
 Alpha  occ. eigenvalues --   -0.55535  -0.55461  -0.54976  -0.54926  -0.54721
 Alpha  occ. eigenvalues --   -0.54303  -0.54239  -0.54102  -0.53982  -0.53523
 Alpha  occ. eigenvalues --   -0.53326  -0.53129  -0.52925  -0.52810  -0.52603
 Alpha  occ. eigenvalues --   -0.52458  -0.52235  -0.52102  -0.51968  -0.51650
 Alpha  occ. eigenvalues --   -0.51394  -0.51214  -0.51045  -0.50782  -0.50681
 Alpha  occ. eigenvalues --   -0.50612  -0.50430  -0.50161  -0.49620  -0.49506
 Alpha  occ. eigenvalues --   -0.49481  -0.49308  -0.48672  -0.48620  -0.48467
 Alpha  occ. eigenvalues --   -0.48360  -0.48132  -0.48076  -0.47914  -0.47451
 Alpha  occ. eigenvalues --   -0.47354  -0.47283  -0.47182  -0.46933  -0.46824
 Alpha  occ. eigenvalues --   -0.46754  -0.46597  -0.46482  -0.46230  -0.46091
 Alpha  occ. eigenvalues --   -0.45946  -0.45863  -0.45700  -0.45423  -0.45338
 Alpha  occ. eigenvalues --   -0.45304  -0.44791  -0.44746  -0.44195  -0.44074
 Alpha  occ. eigenvalues --   -0.43921  -0.43710  -0.43252  -0.43187  -0.43111
 Alpha  occ. eigenvalues --   -0.42588  -0.42493  -0.42422  -0.42248  -0.41748
 Alpha  occ. eigenvalues --   -0.41719  -0.41557  -0.41064  -0.40923  -0.40540
 Alpha  occ. eigenvalues --   -0.40199  -0.40010  -0.39870  -0.39744  -0.39592
 Alpha  occ. eigenvalues --   -0.39223  -0.38777  -0.38730  -0.38207  -0.38144
 Alpha  occ. eigenvalues --   -0.38135  -0.37476  -0.37368  -0.36512  -0.36328
 Alpha  occ. eigenvalues --   -0.35952  -0.35744  -0.34939  -0.33391  -0.33248
 Alpha  occ. eigenvalues --   -0.32960  -0.32349  -0.31949  -0.31815  -0.25788
 Alpha  occ. eigenvalues --   -0.22660
 Alpha virt. eigenvalues --   -0.06778   0.00467   0.02518   0.04988   0.05956
 Alpha virt. eigenvalues --    0.06351   0.06843   0.06928   0.07936   0.09563
 Alpha virt. eigenvalues --    0.10709   0.11527   0.11965   0.12186   0.12511

 Mulliken charges:
               1
     1  Mg   0.971923
     2  C   -0.023275
     3  C   -0.095082
     4  C   -0.073187
     5  C   -0.098770
     6  N   -0.338891
     7  C    0.000930
     8  C   -0.095512
     9  C   -0.111089
    10  C    0.075127
    11  C    0.029162
    12  C   -0.030042
    13  C    0.054374
    14  C    0.194727
    15  O   -0.250796
    16  O   -0.364011
    17  N   -0.391790
    18  C    0.141787
    19  C   -0.143034
    20  C   -0.126061
    21  C    0.108724
    22  C    0.062646
    23  C    0.069179
    24  O   -0.168068
    25  C   -0.029257
    26  N   -0.342397
    27  C    0.069648
    28  C   -0.087218
    29  C   -0.095733
    30  C    0.044507
    31  C    0.036418
    32  C   -0.002831
    33  C   -0.056670
    34  N   -0.454271
    35  C    0.128952
    36  C   -0.172389
    37  C   -0.063327
    38  C    0.138195
    39  C    0.091317
    40  C    0.176502
    41  O   -0.207176
    42  C   -0.078718
    43  C    0.259958
    44  O   -0.252230
    45  O   -0.380506
    46  C    0.142761
    47  C    0.251868
    48  C   -0.158961
    49  C   -0.191067
    50  C    0.022046
    51  C    0.042439
    52  C   -0.057474
    53  C    0.024017
    54  C   -0.166348
    55  C   -0.014109
    56  C    0.038172
    57  C   -0.059289
    58  C    0.036375
    59  C   -0.191552
    60  C   -0.010037
    61  C    0.024514
    62  C   -0.054600
    63  C   -0.015593
    64  C   -0.209915
    65  C    0.009954
    66  C   -0.017913
    67  H   -0.014763
    68  H    0.030989
    69  H   -0.013547
    70  H    0.046419
    71  H    0.036514
    72  H    0.018642
    73  H    0.037570
    74  H    0.057299
    75  H    0.044665
    76  H    0.045636
    77  H    0.054400
    78  H    0.066648
    79  H    0.060172
    80  H    0.040431
    81  H    0.030997
    82  H    0.051562
    83  H    0.048882
    84  H    0.041724
    85  H    0.047492
    86  H    0.048086
    87  H    0.029688
    88  H    0.044035
    89  H    0.042005
    90  H    0.044049
    91  H    0.029213
    92  H    0.029452
    93  H    0.045048
    94  H    0.025130
    95  H    0.040303
    96  H    0.047264
    97  H    0.065787
    98  H    0.063960
    99  H    0.061663
   100  H    0.047576
   101  H    0.051910
   102  H    0.061531
   103  H    0.048982
   104  H    0.029418
   105  H    0.037797
   106  H    0.057535
   107  H    0.042729
   108  H    0.012883
   109  H    0.036224
   110  H    0.020015
   111  H    0.017583
   112  H    0.008886
   113  H    0.026304
   114  H    0.016661
   115  H    0.025827
   116  H    0.026715
   117  H    0.019203
   118  H    0.000089
   119  H    0.005227
   120  H    0.015132
   121  H    0.027258
   122  H    0.005368
   123  H    0.016560
   124  H    0.022997
   125  H    0.026844
   126  H    0.050211
   127  H    0.023680
   128  H    0.017510
   129  H    0.021968
   130  H    0.018312
   131  H    0.026594
   132  H    0.008202
   133  H    0.021894
   134  H    0.025159
   135  H    0.034364
   136  H    0.018186
   137  H    0.032364
   138  H    0.019030
   139  H    0.031248
   140  H    0.029566
 Sum of Mulliken charges =  -0.00000

 Dipole moment (field-independent basis, Debye):
    X=              4.6652    Y=              3.8054    Z=             -1.2204  Tot=              6.1428
 Quadrupole moment (field-independent basis, Debye-Ang):
   XX=           -396.0735   YY=           -425.1394   ZZ=           -400.6660
   XY=            -38.3449   XZ=             13.5296   YZ=              7.3445

 Normal termination of Gaussian 16 at Wed May  4 00:34:57 2022.
