 Gaussian 16, Revision A.03,
 Gaussian 16:  ES64L-G16RevA.03 25-Dec-2016

 --------------------
 #p ZINDO=(nstates=5)
 --------------------

 ------------------------------
 step_1151_chromophore_21 ZINDO
 ------------------------------
 Symbolic Z-matrix:
 Charge =  0 Multiplicity = 1

                         Standard orientation:
 ---------------------------------------------------------------------
 Center     Atomic      Atomic             Coordinates (Angstroms)
 Number     Number       Type             X           Y           Z
 ---------------------------------------------------------------------
      1         12           0       -5.359152    1.115093   -0.316884
      2          6           0       -5.129961   -2.298695   -0.110051
      3          6           0       -1.852670    1.308935   -0.205104
      4          6           0       -5.523471    4.498640   -0.054311
      5          6           0       -8.777229    0.939918    0.182884
      6          7           0       -3.704175   -0.293992   -0.224805
      7          6           0       -3.885538   -1.693550   -0.245366
      8          6           0       -2.514296   -2.405815   -0.415270
      9          6           0       -1.454297   -1.202975   -0.125275
     10          6           0       -2.414621   -0.016683   -0.274604
     11          6           0       -0.675240   -1.292698    1.187597
     12          6           0       -2.396185   -2.912999   -1.935205
     13          6           0       -1.048002   -3.547403   -2.370099
     14          6           0       -0.131033   -4.060660   -1.212701
     15          8           0       -0.367424   -5.005093   -0.491327
     16          8           0        1.089518   -3.450829   -1.198492
     17          7           0       -3.838962    2.687039   -0.215394
     18          6           0       -2.495186    2.553750   -0.121559
     19          6           0       -1.901038    3.806201   -0.050324
     20          6           0       -2.938848    4.739857   -0.160212
     21          6           0       -4.182899    3.969913   -0.230409
     22          6           0       -0.431750    4.027333    0.295010
     23          6           0       -2.880464    6.288005   -0.225243
     24          8           0       -3.839401    6.941013   -0.300808
     25          6           0       -1.478559    6.948205   -0.227152
     26          7           0       -6.971600    2.481512   -0.036780
     27          6           0       -6.791921    3.839047   -0.062568
     28          6           0       -8.059146    4.617398    0.251495
     29          6           0       -9.161045    3.480659    0.259669
     30          6           0       -8.253712    2.231020    0.061747
     31          6           0       -8.033157    5.296826    1.602972
     32          6           0      -10.201477    3.606884   -0.925018
     33          6           0      -11.651342    3.459573   -0.566819
     34          7           0       -6.720383   -0.381992   -0.114023
     35          6           0       -8.106987   -0.326784    0.094119
     36          6           0       -8.649157   -1.712007    0.226317
     37          6           0       -7.492549   -2.508954    0.119135
     38          6           0       -6.385504   -1.665854   -0.068268
     39          6           0      -10.034551   -2.147834    0.347396
     40          6           0       -7.087219   -3.899150    0.090301
     41          8           0       -7.688126   -4.963655    0.239185
     42          6           0       -5.450930   -3.813511    0.046923
     43          6           0       -4.726212   -4.503473    1.160662
     44          8           0       -4.790633   -4.281538    2.374433
     45          8           0       -3.925182   -5.519907    0.651213
     46          6           0       -3.373612   -6.471797    1.612082
     47          6           0        2.059351   -3.984875   -0.212390
     48          6           0        3.366122   -3.193830   -0.166689
     49          6           0        4.222844   -3.052119    0.862331
     50          6           0        4.042809   -3.565654    2.266921
     51          6           0        5.374500   -2.130713    0.704253
     52          6           0        6.466068   -2.627463   -0.354655
     53          6           0        6.853500   -1.524382   -1.343138
     54          6           0        8.057216   -0.702062   -0.810279
     55          6           0        7.777176    0.804201   -1.032658
     56          6           0        9.422831   -1.153022   -1.291458
     57          6           0       10.497945   -1.300396   -0.251491
     58          6           0       11.949906   -1.328042   -0.796022
     59          6           0       12.689229    0.012541   -0.612488
     60          6           0       13.407678    0.511573   -1.985369
     61          6           0       13.644321   -0.043590    0.579819
     62          6           0       14.049403    1.437958    0.996587
     63          6           0       15.604617    1.791546    0.952767
     64          6           0       15.917688    3.299989    0.824620
     65          6           0       17.213609    3.690363    0.044428
     66          6           0       15.906185    3.868528    2.309693
     67          1           0       -0.763211    1.358366   -0.164004
     68          1           0       -5.535591    5.589905   -0.070552
     69          1           0       -9.846928    0.930711    0.402768
     70          1           0       -2.552123   -3.287610    0.224601
     71          1           0       -0.634809   -1.223555   -0.844239
     72          1           0       -0.872465   -0.346644    1.692552
     73          1           0        0.390859   -1.258277    0.963560
     74          1           0       -0.966836   -1.997674    1.965203
     75          1           0       -2.741335   -2.047197   -2.501975
     76          1           0       -3.066510   -3.768242   -2.012277
     77          1           0       -0.553219   -2.770499   -2.951494
     78          1           0       -1.415510   -4.391145   -2.953985
     79          1           0       -0.420273    4.434817    1.305430
     80          1           0        0.103866    4.669802   -0.403331
     81          1           0        0.195888    3.136534    0.327245
     82          1           0       -0.726468    6.437189   -0.829240
     83          1           0       -1.092998    7.040858    0.787542
     84          1           0       -1.516535    8.009873   -0.472130
     85          1           0       -8.135011    5.363373   -0.538668
     86          1           0       -9.677672    3.246449    1.190977
     87          1           0       -8.690252    4.800897    2.317528
     88          1           0       -8.299635    6.339679    1.433906
     89          1           0       -7.071276    5.252733    2.114266
     90          1           0      -10.035829    2.884559   -1.724403
     91          1           0      -10.117601    4.636176   -1.272084
     92          1           0      -11.896242    2.405500   -0.697141
     93          1           0      -12.327163    4.069581   -1.166124
     94          1           0      -11.781158    3.672109    0.494200
     95          1           0      -10.631578   -1.441207   -0.229878
     96          1           0      -10.386953   -2.026366    1.371388
     97          1           0      -10.084334   -3.217119    0.141942
     98          1           0       -5.024034   -4.210769   -0.873355
     99          1           0       -2.554372   -7.064528    1.205421
    100          1           0       -4.156571   -7.166626    1.917382
    101          1           0       -3.009564   -5.992830    2.521147
    102          1           0        2.308549   -5.020249   -0.448041
    103          1           0        1.784364   -3.938326    0.841504
    104          1           0        3.477874   -2.560415   -1.045848
    105          1           0        3.363549   -4.416540    2.210323
    106          1           0        3.598529   -2.810797    2.914527
    107          1           0        4.984521   -3.836020    2.745284
    108          1           0        5.917366   -2.080936    1.648048
    109          1           0        5.118350   -1.114444    0.404587
    110          1           0        6.177287   -3.511596   -0.921911
    111          1           0        7.330659   -3.026013    0.175845
    112          1           0        6.028016   -0.812910   -1.383159
    113          1           0        7.004979   -2.005308   -2.309397
    114          1           0        8.045052   -0.852701    0.269048
    115          1           0        7.291909    1.242049   -0.160610
    116          1           0        7.140005    1.057312   -1.880451
    117          1           0        8.646976    1.426886   -1.243771
    118          1           0        9.859620   -0.451047   -2.000808
    119          1           0        9.360176   -2.065092   -1.883414
    120          1           0       10.381637   -2.306198    0.151445
    121          1           0       10.279277   -0.551296    0.509385
    122          1           0       12.040766   -1.549924   -1.859062
    123          1           0       12.370167   -2.183045   -0.266367
    124          1           0       11.882721    0.710562   -0.390945
    125          1           0       13.571723   -0.325022   -2.663789
    126          1           0       14.289871    1.120267   -1.783722
    127          1           0       12.621397    0.980815   -2.576402
    128          1           0       14.563318   -0.551489    0.286021
    129          1           0       13.323289   -0.527101    1.502389
    130          1           0       13.812070    1.467948    2.060328
    131          1           0       13.445594    2.176348    0.468497
    132          1           0       16.092075    1.314516    0.102422
    133          1           0       16.069922    1.382244    1.850034
    134          1           0       15.086147    3.690285    0.237036
    135          1           0       17.884774    2.862338   -0.182335
    136          1           0       17.783240    4.401361    0.642552
    137          1           0       16.909940    4.232874   -0.851674
    138          1           0       14.927522    4.315859    2.486891
    139          1           0       16.632046    4.665416    2.473341
    140          1           0       15.894689    3.140300    3.120813
 ---------------------------------------------------------------------

 SCF Done:  E(RZINDO/S) =  -474.246098832     A.U. after   19 cycles

 Excitation energies and oscillator strengths:

 Excited State   1:      Singlet-A      1.2618 eV  982.57 nm  f=0.5905  <S**2>=0.000
     175 ->178         0.19414
     176 ->177         0.66200
 This state for optimization and/or second-order correction.
 Total Energy, E(CIS/TDA) =  -474.199727187
 Copying the excited state density for this state as the 1-particle RhoCI density.

 Excited State   2:      Singlet-A      1.9170 eV  646.77 nm  f=0.0334  <S**2>=0.000
     175 ->177         0.53529
     176 ->178        -0.43756

 Excited State   3:      Singlet-A      2.9627 eV  418.49 nm  f=0.4218  <S**2>=0.000
     175 ->177         0.26561
     176 ->178         0.38182
     176 ->179         0.48481

 Excited State   4:      Singlet-A      3.0686 eV  404.04 nm  f=0.0223  <S**2>=0.000
     168 ->177         0.20773
     168 ->178         0.12687
     168 ->179         0.32880
     168 ->181        -0.18688
     168 ->186         0.13686
     169 ->177         0.20964
     169 ->178         0.11867
     169 ->179         0.26612
     169 ->181        -0.18848
     169 ->186         0.10035

 Excited State   5:      Singlet-A      3.0999 eV  399.96 nm  f=0.8566  <S**2>=0.000
     168 ->181         0.10914
     169 ->179        -0.10764
     171 ->177        -0.11656
     175 ->177        -0.29581
     176 ->178        -0.33526
     176 ->179         0.43921

 The electronic state is 1-A.
 Alpha  occ. eigenvalues --   -1.83520  -1.82796  -1.80629  -1.73474  -1.70671
 Alpha  occ. eigenvalues --   -1.69915  -1.65572  -1.62221  -1.60103  -1.55923
 Alpha  occ. eigenvalues --   -1.54950  -1.51066  -1.48120  -1.47388  -1.46582
 Alpha  occ. eigenvalues --   -1.42856  -1.42629  -1.40929  -1.39794  -1.39725
 Alpha  occ. eigenvalues --   -1.36931  -1.34649  -1.32013  -1.31357  -1.28703
 Alpha  occ. eigenvalues --   -1.26298  -1.23996  -1.22375  -1.21419  -1.19104
 Alpha  occ. eigenvalues --   -1.17474  -1.15806  -1.15031  -1.14341  -1.13712
 Alpha  occ. eigenvalues --   -1.12450  -1.10650  -1.10111  -1.04671  -1.03278
 Alpha  occ. eigenvalues --   -1.02326  -1.01158  -0.98073  -0.96940  -0.96290
 Alpha  occ. eigenvalues --   -0.95758  -0.94723  -0.93634  -0.92797  -0.92442
 Alpha  occ. eigenvalues --   -0.91700  -0.90434  -0.88967  -0.88226  -0.87186
 Alpha  occ. eigenvalues --   -0.86189  -0.85115  -0.83163  -0.82489  -0.81155
 Alpha  occ. eigenvalues --   -0.80383  -0.79310  -0.78072  -0.76994  -0.75806
 Alpha  occ. eigenvalues --   -0.75383  -0.74129  -0.74073  -0.73343  -0.72782
 Alpha  occ. eigenvalues --   -0.72524  -0.72083  -0.71955  -0.70759  -0.70607
 Alpha  occ. eigenvalues --   -0.69961  -0.69795  -0.69082  -0.68544  -0.68102
 Alpha  occ. eigenvalues --   -0.67482  -0.67152  -0.66672  -0.66247  -0.65424
 Alpha  occ. eigenvalues --   -0.65059  -0.64624  -0.64383  -0.63737  -0.63270
 Alpha  occ. eigenvalues --   -0.63027  -0.62336  -0.62102  -0.61861  -0.61536
 Alpha  occ. eigenvalues --   -0.61155  -0.61050  -0.60786  -0.60653  -0.60092
 Alpha  occ. eigenvalues --   -0.59773  -0.59462  -0.58728  -0.58125  -0.57856
 Alpha  occ. eigenvalues --   -0.57416  -0.57222  -0.56958  -0.56746  -0.56253
 Alpha  occ. eigenvalues --   -0.56221  -0.55580  -0.55491  -0.55459  -0.54901
 Alpha  occ. eigenvalues --   -0.54532  -0.54077  -0.53685  -0.53131  -0.52997
 Alpha  occ. eigenvalues --   -0.52579  -0.52142  -0.52030  -0.51787  -0.51423
 Alpha  occ. eigenvalues --   -0.51122  -0.50849  -0.50716  -0.50517  -0.50363
 Alpha  occ. eigenvalues --   -0.50165  -0.49725  -0.49678  -0.49445  -0.49299
 Alpha  occ. eigenvalues --   -0.48808  -0.48253  -0.47868  -0.47848  -0.47706
 Alpha  occ. eigenvalues --   -0.47668  -0.47367  -0.47023  -0.46973  -0.46599
 Alpha  occ. eigenvalues --   -0.46534  -0.46313  -0.46067  -0.45694  -0.45487
 Alpha  occ. eigenvalues --   -0.45271  -0.44871  -0.44720  -0.44398  -0.44250
 Alpha  occ. eigenvalues --   -0.43909  -0.43864  -0.43130  -0.42932  -0.42315
 Alpha  occ. eigenvalues --   -0.41955  -0.41735  -0.41015  -0.39190  -0.38575
 Alpha  occ. eigenvalues --   -0.37822  -0.37198  -0.35198  -0.35023  -0.34582
 Alpha  occ. eigenvalues --   -0.33381  -0.32468  -0.32108  -0.32055  -0.26409
 Alpha  occ. eigenvalues --   -0.21506
 Alpha virt. eigenvalues --   -0.08185  -0.01929  -0.00200   0.01589   0.01725
 Alpha virt. eigenvalues --    0.02431   0.02776   0.03196   0.04076   0.04858
 Alpha virt. eigenvalues --    0.06163   0.06908   0.07417   0.07618   0.08385

 Mulliken charges:
               1
     1  Mg   0.425883
     2  C   -0.037344
     3  C   -0.091495
     4  C   -0.082136
     5  C   -0.075677
     6  N   -0.266802
     7  C    0.091965
     8  C   -0.012377
     9  C    0.006573
    10  C    0.153437
    11  C   -0.052688
    12  C   -0.032184
    13  C    0.003808
    14  C    0.468654
    15  O   -0.510955
    16  O   -0.267276
    17  N   -0.323738
    18  C    0.121926
    19  C    0.014956
    20  C   -0.050755
    21  C    0.135595
    22  C   -0.046029
    23  C    0.331802
    24  O   -0.483646
    25  C   -0.042341
    26  N   -0.250317
    27  C    0.127514
    28  C    0.014034
    29  C   -0.006686
    30  C    0.119482
    31  C   -0.047237
    32  C   -0.031337
    33  C   -0.056222
    34  N   -0.313100
    35  C    0.067863
    36  C    0.031498
    37  C   -0.055642
    38  C    0.120506
    39  C   -0.032559
    40  C    0.330721
    41  O   -0.510685
    42  C    0.044454
    43  C    0.489227
    44  O   -0.517811
    45  O   -0.272718
    46  C    0.077629
    47  C    0.099053
    48  C   -0.092205
    49  C   -0.001617
    50  C   -0.039271
    51  C   -0.023139
    52  C   -0.039428
    53  C   -0.033149
    54  C   -0.003281
    55  C   -0.058878
    56  C   -0.027187
    57  C   -0.034911
    58  C   -0.039518
    59  C   -0.011053
    60  C   -0.068934
    61  C   -0.033151
    62  C   -0.051969
    63  C   -0.034652
    64  C   -0.013147
    65  C   -0.057983
    66  C   -0.064632
    67  H    0.021872
    68  H    0.047578
    69  H    0.018940
    70  H    0.051639
    71  H    0.031577
    72  H    0.010780
    73  H    0.022671
    74  H    0.039913
    75  H    0.034157
    76  H    0.023860
    77  H    0.035196
    78  H    0.050447
    79  H    0.030992
    80  H    0.028685
    81  H    0.020636
    82  H    0.035444
    83  H    0.033699
    84  H    0.031306
    85  H    0.039637
    86  H    0.045724
    87  H    0.020447
    88  H    0.021780
    89  H    0.024323
    90  H    0.028756
    91  H    0.015975
    92  H    0.014177
    93  H    0.023789
    94  H    0.016254
    95  H    0.031394
    96  H    0.031893
    97  H    0.044182
    98  H    0.045457
    99  H    0.036215
   100  H    0.037670
   101  H    0.044860
   102  H    0.052241
   103  H    0.053421
   104  H    0.028188
   105  H    0.021332
   106  H    0.032313
   107  H    0.026730
   108  H    0.012948
   109  H    0.030953
   110  H    0.014549
   111  H    0.015149
   112  H    0.019252
   113  H    0.022940
   114  H    0.018291
   115  H    0.013139
   116  H    0.015831
   117  H    0.012268
   118  H    0.010864
   119  H    0.013141
   120  H    0.009058
   121  H    0.027331
   122  H    0.020157
   123  H    0.016252
   124  H    0.020634
   125  H    0.022267
   126  H    0.034818
   127  H    0.016710
   128  H    0.017005
   129  H    0.024172
   130  H    0.011054
   131  H    0.027955
   132  H    0.010703
   133  H    0.020272
   134  H    0.022408
   135  H    0.025187
   136  H    0.016229
   137  H    0.018602
   138  H    0.006590
   139  H    0.021899
   140  H    0.026497
 Sum of Mulliken charges =  -0.00000

 Dipole moment (field-independent basis, Debye):
    X=              6.2809    Y=              5.4688    Z=             -2.6080  Tot=              8.7269
 N-N= 4.262910732039D+03 E-N= 0.000000000000D+00  KE=-9.200176158785D+03
 Leave Link  601 at Wed May  4 00:46:31 2022, MaxMem=  6710886400 cpu:               0.8 elap:               0.0
 (Enter /sw/apps/gaussian-16.0/g16/l9999.exe)
 1\1\GINC-BP1-COMPUTE102\SP\RZINDO CIS\STO-3G\C55H74Mg1N4O6\OF15641\04-
 May-2022\0\\#p ZINDO=(nstates=5)\\step_1151_chromophore_21 ZINDO\\0,1\
 Mg,0,16.143,52.325,25.645\C,0,17.712,50.929,28.354\C,0,13.553,53.402,2
 7.761\C,0,14.319,53.321,22.957\C,0,18.367,50.75,23.515\N,0,15.705,52.2
 33,27.774\C,0,16.59,51.666,28.716\C,0,16.102,51.976,30.159\C,0,14.583,
 52.51,29.91\C,0,14.686,52.786,28.405\C,0,13.458,51.577,30.36\C,0,17.02
 4,53.146,30.761\C,0,16.638,53.709,32.155\C,0,15.719,52.795,33.029\O,0,

 Normal termination of Gaussian 16 at Wed May  4 00:46:31 2022.
