 Gaussian 16, Revision A.03,
 Gaussian 16:  ES64L-G16RevA.03 25-Dec-2016

 ------------------------------
 #p blyp/Def2SVP td=(nstates=5)
 ------------------------------

 --------------------------------------------------
 step_1601_chromophore_2 TDDFT with blyp functional
 --------------------------------------------------
 Symbolic Z-matrix:
 Charge =  0 Multiplicity = 1

                         Standard orientation:
 ---------------------------------------------------------------------
 Center     Atomic      Atomic             Coordinates (Angstroms)
 Number     Number       Type             X           Y           Z
 ---------------------------------------------------------------------
      1         12           0        4.102775    1.339015   -0.344061
      2          6           0        4.688164   -2.039241   -0.823159
      3          6           0        1.763408    1.333284   -2.858867
      4          6           0        3.160790    4.543839    0.727899
      5          6           0        6.084418    1.070505    2.561240
      6          7           0        3.365902   -0.182442   -1.708035
      7          6           0        3.661814   -1.527720   -1.649831
      8          6           0        2.837235   -2.310576   -2.718108
      9          6           0        2.134589   -1.072739   -3.492370
     10          6           0        2.388059    0.108481   -2.627501
     11          6           0        2.551515   -0.847242   -4.960814
     12          6           0        1.802533   -3.359805   -2.168570
     13          6           0        0.863202   -2.882892   -1.015763
     14          6           0       -0.657023   -2.861416   -1.206521
     15          8           0       -1.190215   -2.590934   -2.277409
     16          8           0       -1.377479   -3.103785   -0.045761
     17          7           0        2.725447    2.782892   -1.099754
     18          6           0        1.922371    2.578008   -2.167363
     19          6           0        1.255822    3.825217   -2.397146
     20          6           0        1.599077    4.769661   -1.328370
     21          6           0        2.486331    4.045308   -0.435550
     22          6           0        0.444945    4.079135   -3.620465
     23          6           0        0.918996    6.153555   -1.216890
     24          8           0        0.117047    6.630004   -2.042413
     25          6           0        1.229951    7.009989   -0.003819
     26          7           0        4.399764    2.574655    1.403438
     27          6           0        4.014385    3.874151    1.592262
     28          6           0        4.649879    4.467010    2.812463
     29          6           0        5.149860    3.210829    3.600422
     30          6           0        5.201674    2.235859    2.448736
     31          6           0        5.792738    5.491933    2.495376
     32          6           0        4.245031    2.691147    4.707158
     33          6           0        4.996154    2.249489    5.981519
     34          7           0        5.301566   -0.169359    0.643128
     35          6           0        6.101459   -0.059229    1.748389
     36          6           0        6.900236   -1.251935    1.885353
     37          6           0        6.328495   -2.113319    0.930086
     38          6           0        5.414025   -1.363149    0.189545
     39          6           0        8.014399   -1.627645    2.890236
     40          6           0        6.281353   -3.510674    0.404540
     41          8           0        6.928432   -4.539791    0.754127
     42          6           0        5.262046   -3.525398   -0.708778
     43          6           0        5.766016   -4.145442   -1.952472
     44          8           0        5.319555   -5.123933   -2.556138
     45          8           0        6.866512   -3.449389   -2.390997
     46          6           0        7.456218   -4.061514   -3.620315
     47          6           0       -2.843237   -2.939605   -0.199495
     48          6           0       -3.539535   -3.696555    1.029276
     49          6           0       -4.073211   -3.134553    2.170604
     50          6           0       -3.845829   -1.625079    2.481274
     51          6           0       -4.816772   -3.916163    3.239197
     52          6           0       -6.224249   -3.576703    3.448253
     53          6           0       -7.032519   -4.610008    2.624212
     54          6           0       -8.385151   -3.940605    1.994400
     55          6           0       -9.340070   -5.129794    1.809486
     56          6           0       -8.108363   -3.099643    0.679073
     57          6           0       -8.442455   -1.607588    0.807524
     58          6           0       -7.271135   -0.560868    0.657196
     59          6           0       -7.602535    0.630217   -0.216744
     60          6           0       -6.291159    1.278078   -0.673383
     61          6           0       -8.504141    1.662556    0.554665
     62          6           0       -9.981107    1.666850   -0.049357
     63          6           0      -10.471746    3.071968   -0.403957
     64          6           0      -11.579538    3.012439   -1.513162
     65          6           0      -11.261961    4.014322   -2.693765
     66          6           0      -12.974558    3.211873   -0.978767
     67          1           0        0.987195    1.358009   -3.626609
     68          1           0        3.024053    5.596483    0.984009
     69          1           0        6.645104    1.037580    3.497842
     70          1           0        3.567292   -2.786221   -3.372542
     71          1           0        1.075651   -1.330400   -3.530675
     72          1           0        2.462452    0.216839   -5.179963
     73          1           0        1.926101   -1.408542   -5.656229
     74          1           0        3.606684   -1.106587   -5.046249
     75          1           0        2.463899   -4.119581   -1.750929
     76          1           0        1.270178   -3.800816   -3.011811
     77          1           0        1.114153   -1.898995   -0.618328
     78          1           0        1.096040   -3.685098   -0.315257
     79          1           0       -0.621160    3.871064   -3.520769
     80          1           0        0.935091    3.465988   -4.376606
     81          1           0        0.529658    5.103648   -3.982607
     82          1           0        2.288923    7.271550    0.011819
     83          1           0        0.868584    6.639680    0.956061
     84          1           0        0.552114    7.858992   -0.080071
     85          1           0        3.873513    4.970180    3.389283
     86          1           0        6.157961    3.275804    4.009528
     87          1           0        6.795746    5.269148    2.859082
     88          1           0        5.419496    6.373932    3.014312
     89          1           0        5.964395    5.673315    1.433579
     90          1           0        3.486437    1.999188    4.340985
     91          1           0        3.619389    3.481150    5.123857
     92          1           0        4.513857    1.299687    6.209789
     93          1           0        4.954063    2.830166    6.903272
     94          1           0        6.021201    2.020354    5.692209
     95          1           0        8.902649   -1.119699    2.513530
     96          1           0        8.145514   -2.707025    2.970938
     97          1           0        7.649403   -1.232782    3.838563
     98          1           0        4.362302   -4.069083   -0.418441
     99          1           0        7.935893   -5.004662   -3.357975
    100          1           0        8.325820   -3.459323   -3.886518
    101          1           0        6.681153   -4.002042   -4.384550
    102          1           0       -3.252980   -3.406914   -1.095468
    103          1           0       -3.119702   -1.885433   -0.221535
    104          1           0       -3.667316   -4.772942    0.912763
    105          1           0       -4.779024   -1.186316    2.127603
    106          1           0       -3.007536   -1.168169    1.954539
    107          1           0       -3.714936   -1.423835    3.545200
    108          1           0       -4.282847   -3.725738    4.169792
    109          1           0       -4.605585   -4.962987    3.022803
    110          1           0       -6.484616   -2.603822    3.033424
    111          1           0       -6.261711   -3.606711    4.537174
    112          1           0       -7.376951   -5.418984    3.268539
    113          1           0       -6.445234   -5.115270    1.857174
    114          1           0       -8.734002   -3.317885    2.818447
    115          1           0       -9.774021   -5.500750    2.737380
    116          1           0       -8.769588   -5.941461    1.358889
    117          1           0      -10.108034   -4.845333    1.089740
    118          1           0       -8.720082   -3.499253   -0.128096
    119          1           0       -7.072749   -3.241330    0.367894
    120          1           0       -8.777646   -1.356916    1.814872
    121          1           0       -9.152260   -1.309947    0.035694
    122          1           0       -6.415360   -1.093327    0.241604
    123          1           0       -6.987420   -0.236003    1.658709
    124          1           0       -8.115123    0.406388   -1.152126
    125          1           0       -6.055015    0.962677   -1.689325
    126          1           0       -5.440671    0.962832   -0.067686
    127          1           0       -6.248110    2.366809   -0.645712
    128          1           0       -8.172584    2.699931    0.587840
    129          1           0       -8.611738    1.325500    1.586166
    130          1           0      -10.572742    1.359511    0.812828
    131          1           0      -10.180830    0.900528   -0.799415
    132          1           0       -9.573973    3.573004   -0.764367
    133          1           0      -10.729967    3.544605    0.543793
    134          1           0      -11.529784    2.055571   -2.032147
    135          1           0      -11.852896    4.911295   -2.508492
    136          1           0      -11.550724    3.638850   -3.676108
    137          1           0      -10.217884    4.292179   -2.839241
    138          1           0      -13.177973    2.800738    0.010553
    139          1           0      -13.613586    2.667264   -1.673140
    140          1           0      -13.265832    4.252334   -1.121554
 ---------------------------------------------------------------------

 SCF Done:  E(RB-LYP) =  -3007.37843599     A.U. after   22 cycles

 Excitation energies and oscillator strengths:

 Excited State   1:      Singlet-A      1.7301 eV  716.64 nm  f=0.0197  <S**2>=0.000
     244 -> 247        0.68064
     246 -> 247       -0.18500
 This state for optimization and/or second-order correction.
 Total Energy, E(TD-HF/TD-DFT) =  -3007.31485703
 Copying the excited state density for this state as the 1-particle RhoCI density.

 Excited State   2:      Singlet-A      1.7700 eV  700.47 nm  f=0.2693  <S**2>=0.000
     244 -> 247        0.18443
     245 -> 248       -0.17023
     246 -> 247        0.66821
     246 <- 247       -0.15250

 Excited State   3:      Singlet-A      1.8745 eV  661.42 nm  f=0.0090  <S**2>=0.000
     243 -> 247        0.64706
     245 -> 247       -0.26986

 Excited State   4:      Singlet-A      1.9789 eV  626.53 nm  f=0.0552  <S**2>=0.000
     242 -> 247       -0.15606
     243 -> 247        0.27934
     245 -> 247        0.58332
     246 -> 248        0.20639

 Excited State   5:      Singlet-A      2.1589 eV  574.31 nm  f=0.0204  <S**2>=0.000
     242 -> 247        0.67012
     245 -> 247        0.12324
     246 -> 248        0.12651

 The electronic state is 1-A.
 Alpha  occ. eigenvalues --  -46.28042 -18.82264 -18.82018 -18.77044 -18.76856
 Alpha  occ. eigenvalues --  -18.75876 -18.75519 -14.03908 -14.03880 -14.01079
 Alpha  occ. eigenvalues --  -14.00846 -10.04363 -10.04034 -10.00215 -10.00038
 Alpha  occ. eigenvalues --   -9.98381  -9.97848  -9.97560  -9.97247  -9.96724
 Alpha  occ. eigenvalues --   -9.96676  -9.96611  -9.95838  -9.95410  -9.94613
 Alpha  occ. eigenvalues --   -9.94564  -9.94464  -9.94458  -9.94402  -9.94184
 Alpha  occ. eigenvalues --   -9.94147  -9.94019  -9.93634  -9.93633  -9.93598
 Alpha  occ. eigenvalues --   -9.93470  -9.93274  -9.93216  -9.93201  -9.93161
 Alpha  occ. eigenvalues --   -9.93116  -9.93114  -9.92676  -9.92502  -9.92354
 Alpha  occ. eigenvalues --   -9.92248  -9.92247  -9.92140  -9.91975  -9.91728
 Alpha  occ. eigenvalues --   -9.91684  -9.91677  -9.91665  -9.91507  -9.91450
 Alpha  occ. eigenvalues --   -9.91443  -9.91105  -9.91094  -9.90990  -9.90974
 Alpha  occ. eigenvalues --   -9.90784  -9.90681  -9.90650  -9.90645  -9.90525
 Alpha  occ. eigenvalues --   -9.90235  -2.92477  -1.72920  -1.72330  -1.72204
 Alpha  occ. eigenvalues --   -0.97410  -0.97235  -0.90144  -0.89521  -0.89468
 Alpha  occ. eigenvalues --   -0.89019  -0.88224  -0.86910  -0.85671  -0.83839
 Alpha  occ. eigenvalues --   -0.75459  -0.73861  -0.73214  -0.72729  -0.72059
 Alpha  occ. eigenvalues --   -0.71976  -0.71287  -0.71153  -0.70437  -0.70431
 Alpha  occ. eigenvalues --   -0.69026  -0.68508  -0.68231  -0.68119  -0.67347
 Alpha  occ. eigenvalues --   -0.66425  -0.65951  -0.65023  -0.64984  -0.64680
 Alpha  occ. eigenvalues --   -0.63988  -0.62816  -0.62259  -0.61577  -0.61182
 Alpha  occ. eigenvalues --   -0.59941  -0.59819  -0.59737  -0.59435  -0.58690
 Alpha  occ. eigenvalues --   -0.58192  -0.57786  -0.57232  -0.55960  -0.55203
 Alpha  occ. eigenvalues --   -0.54281  -0.52850  -0.52398  -0.52282  -0.51904
 Alpha  occ. eigenvalues --   -0.51062  -0.51023  -0.50911  -0.50371  -0.50033
 Alpha  occ. eigenvalues --   -0.49564  -0.48928  -0.48768  -0.48711  -0.46781
 Alpha  occ. eigenvalues --   -0.46309  -0.45870  -0.45651  -0.45453  -0.44682
 Alpha  occ. eigenvalues --   -0.43665  -0.43302  -0.43254  -0.42957  -0.42823
 Alpha  occ. eigenvalues --   -0.42304  -0.41885  -0.41675  -0.41518  -0.41409
 Alpha  occ. eigenvalues --   -0.41168  -0.40783  -0.40254  -0.40117  -0.39907
 Alpha  occ. eigenvalues --   -0.39747  -0.39590  -0.39511  -0.39380  -0.39233
 Alpha  occ. eigenvalues --   -0.39150  -0.39017  -0.38688  -0.38434  -0.38251
 Alpha  occ. eigenvalues --   -0.38096  -0.37920  -0.37783  -0.37446  -0.37198
 Alpha  occ. eigenvalues --   -0.37001  -0.36783  -0.36743  -0.36499  -0.36349
 Alpha  occ. eigenvalues --   -0.36259  -0.35987  -0.35880  -0.35650  -0.35546
 Alpha  occ. eigenvalues --   -0.35335  -0.35241  -0.35020  -0.35015  -0.34547
 Alpha  occ. eigenvalues --   -0.34523  -0.34310  -0.34246  -0.34026  -0.33768
 Alpha  occ. eigenvalues --   -0.33639  -0.33485  -0.33400  -0.33356  -0.33195
 Alpha  occ. eigenvalues --   -0.32862  -0.32592  -0.32467  -0.32364  -0.32323
 Alpha  occ. eigenvalues --   -0.31995  -0.31814  -0.31722  -0.31563  -0.31366
 Alpha  occ. eigenvalues --   -0.31072  -0.30966  -0.30932  -0.30781  -0.30550
 Alpha  occ. eigenvalues --   -0.30440  -0.30309  -0.30195  -0.30061  -0.29803
 Alpha  occ. eigenvalues --   -0.29688  -0.29546  -0.29495  -0.29275  -0.29190
 Alpha  occ. eigenvalues --   -0.29012  -0.28868  -0.28587  -0.27892  -0.27673
 Alpha  occ. eigenvalues --   -0.27434  -0.27034  -0.26896  -0.26858  -0.26613
 Alpha  occ. eigenvalues --   -0.26156  -0.26030  -0.25794  -0.25298  -0.25263
 Alpha  occ. eigenvalues --   -0.25125  -0.24456  -0.24350  -0.24210  -0.23868
 Alpha  occ. eigenvalues --   -0.23641  -0.22487  -0.22150  -0.21833  -0.21073
 Alpha  occ. eigenvalues --   -0.20259  -0.19524  -0.18927  -0.18419  -0.17698
 Alpha  occ. eigenvalues --   -0.16201
 Alpha virt. eigenvalues --   -0.12114  -0.07363  -0.06497  -0.05137  -0.03251
 Alpha virt. eigenvalues --   -0.03068  -0.02793  -0.02439  -0.01913  -0.00420
 Alpha virt. eigenvalues --    0.00367   0.01137   0.02176   0.02498   0.02784

 Mulliken charges:
               1
     1  Mg   0.677826
     2  C    0.006747
     3  C   -0.060050
     4  C   -0.046156
     5  C   -0.092917
     6  N   -0.240623
     7  C   -0.092031
     8  C    0.003502
     9  C   -0.009764
    10  C    0.059204
    11  C    0.135856
    12  C    0.127653
    13  C    0.098497
    14  C    0.084504
    15  O   -0.201811
    16  O   -0.273689
    17  N   -0.319589
    18  C    0.128579
    19  C   -0.149899
    20  C    0.019629
    21  C    0.138201
    22  C    0.179413
    23  C   -0.055624
    24  O   -0.177626
    25  C    0.115833
    26  N   -0.206828
    27  C    0.005392
    28  C    0.035847
    29  C    0.006310
    30  C    0.011906
    31  C    0.122700
    32  C    0.114609
    33  C    0.054997
    34  N   -0.176233
    35  C    0.117749
    36  C   -0.209797
    37  C    0.067323
    38  C    0.021691
    39  C    0.181505
    40  C   -0.007739
    41  O   -0.169205
    42  C    0.131754
    43  C    0.101060
    44  O   -0.190370
    45  O   -0.293721
    46  C    0.229535
    47  C    0.295011
    48  C   -0.095693
    49  C   -0.168040
    50  C    0.119528
    51  C    0.137561
    52  C    0.133910
    53  C    0.041125
    54  C   -0.095594
    55  C    0.110847
    56  C    0.147410
    57  C    0.066483
    58  C    0.027800
    59  C   -0.046682
    60  C    0.096675
    61  C    0.115354
    62  C    0.003425
    63  C    0.117088
    64  C   -0.064192
    65  C    0.064202
    66  C    0.125218
    67  H   -0.045147
    68  H   -0.080439
    69  H   -0.065636
    70  H   -0.014179
    71  H   -0.016338
    72  H   -0.015189
    73  H    0.002915
    74  H   -0.014950
    75  H   -0.011223
    76  H   -0.000909
    77  H    0.037942
    78  H    0.001930
    79  H    0.006587
    80  H   -0.017765
    81  H   -0.000045
    82  H    0.029372
    83  H    0.004823
    84  H   -0.019974
    85  H   -0.030861
    86  H   -0.034661
    87  H   -0.005050
    88  H    0.000223
    89  H   -0.001922
    90  H   -0.012891
    91  H   -0.031329
    92  H   -0.011007
    93  H    0.007803
    94  H   -0.011804
    95  H    0.012609
    96  H    0.016981
    97  H    0.000165
    98  H   -0.000096
    99  H    0.026320
   100  H    0.000690
   101  H    0.027136
   102  H    0.006447
   103  H    0.000714
   104  H   -0.036819
   105  H   -0.000739
   106  H    0.004901
   107  H   -0.010204
   108  H   -0.040526
   109  H   -0.034117
   110  H   -0.020540
   111  H   -0.024562
   112  H   -0.036716
   113  H   -0.017355
   114  H   -0.030428
   115  H   -0.010029
   116  H   -0.019682
   117  H   -0.023491
   118  H   -0.039039
   119  H   -0.026401
   120  H   -0.022582
   121  H   -0.028090
   122  H   -0.022012
   123  H   -0.004501
   124  H   -0.032386
   125  H   -0.018916
   126  H   -0.026087
   127  H   -0.022736
   128  H   -0.030484
   129  H   -0.042457
   130  H   -0.043276
   131  H   -0.014071
   132  H   -0.036267
   133  H   -0.029511
   134  H   -0.030448
   135  H   -0.019857
   136  H   -0.019704
   137  H   -0.012811
   138  H   -0.008668
   139  H   -0.030113
   140  H   -0.016111
 Sum of Mulliken charges =  -0.00000

 Dipole moment (field-independent basis, Debye):
    X=              0.6661    Y=              2.7968    Z=              3.6751  Tot=              4.6661
 Quadrupole moment (field-independent basis, Debye-Ang):
   XX=           -386.8524   YY=           -445.3158   ZZ=           -383.8298
   XY=             44.7560   XZ=             -6.3030   YZ=             22.4736

 Normal termination of Gaussian 16 at Thu Apr 28 15:17:26 2022.
