 Gaussian 16, Revision A.03,
 Gaussian 16:  ES64L-G16RevA.03 25-Dec-2016

 -----------------------------------
 #p cam-b3lyp/Def2SVP td=(nstates=5)
 -----------------------------------

 -------------------------------------------------------
 step_1601_chromophore_2 TDDFT with cam-b3lyp functional
 -------------------------------------------------------
 Symbolic Z-matrix:
 Charge =  0 Multiplicity = 1

                         Standard orientation:
 ---------------------------------------------------------------------
 Center     Atomic      Atomic             Coordinates (Angstroms)
 Number     Number       Type             X           Y           Z
 ---------------------------------------------------------------------
      1         12           0        4.102775    1.339015   -0.344061
      2          6           0        4.688164   -2.039241   -0.823159
      3          6           0        1.763408    1.333284   -2.858867
      4          6           0        3.160790    4.543839    0.727899
      5          6           0        6.084418    1.070505    2.561240
      6          7           0        3.365902   -0.182442   -1.708035
      7          6           0        3.661814   -1.527720   -1.649831
      8          6           0        2.837235   -2.310576   -2.718108
      9          6           0        2.134589   -1.072739   -3.492370
     10          6           0        2.388059    0.108481   -2.627501
     11          6           0        2.551515   -0.847242   -4.960814
     12          6           0        1.802533   -3.359805   -2.168570
     13          6           0        0.863202   -2.882892   -1.015763
     14          6           0       -0.657023   -2.861416   -1.206521
     15          8           0       -1.190215   -2.590934   -2.277409
     16          8           0       -1.377479   -3.103785   -0.045761
     17          7           0        2.725447    2.782892   -1.099754
     18          6           0        1.922371    2.578008   -2.167363
     19          6           0        1.255822    3.825217   -2.397146
     20          6           0        1.599077    4.769661   -1.328370
     21          6           0        2.486331    4.045308   -0.435550
     22          6           0        0.444945    4.079135   -3.620465
     23          6           0        0.918996    6.153555   -1.216890
     24          8           0        0.117047    6.630004   -2.042413
     25          6           0        1.229951    7.009989   -0.003819
     26          7           0        4.399764    2.574655    1.403438
     27          6           0        4.014385    3.874151    1.592262
     28          6           0        4.649879    4.467010    2.812463
     29          6           0        5.149860    3.210829    3.600422
     30          6           0        5.201674    2.235859    2.448736
     31          6           0        5.792738    5.491933    2.495376
     32          6           0        4.245031    2.691147    4.707158
     33          6           0        4.996154    2.249489    5.981519
     34          7           0        5.301566   -0.169359    0.643128
     35          6           0        6.101459   -0.059229    1.748389
     36          6           0        6.900236   -1.251935    1.885353
     37          6           0        6.328495   -2.113319    0.930086
     38          6           0        5.414025   -1.363149    0.189545
     39          6           0        8.014399   -1.627645    2.890236
     40          6           0        6.281353   -3.510674    0.404540
     41          8           0        6.928432   -4.539791    0.754127
     42          6           0        5.262046   -3.525398   -0.708778
     43          6           0        5.766016   -4.145442   -1.952472
     44          8           0        5.319555   -5.123933   -2.556138
     45          8           0        6.866512   -3.449389   -2.390997
     46          6           0        7.456218   -4.061514   -3.620315
     47          6           0       -2.843237   -2.939605   -0.199495
     48          6           0       -3.539535   -3.696555    1.029276
     49          6           0       -4.073211   -3.134553    2.170604
     50          6           0       -3.845829   -1.625079    2.481274
     51          6           0       -4.816772   -3.916163    3.239197
     52          6           0       -6.224249   -3.576703    3.448253
     53          6           0       -7.032519   -4.610008    2.624212
     54          6           0       -8.385151   -3.940605    1.994400
     55          6           0       -9.340070   -5.129794    1.809486
     56          6           0       -8.108363   -3.099643    0.679073
     57          6           0       -8.442455   -1.607588    0.807524
     58          6           0       -7.271135   -0.560868    0.657196
     59          6           0       -7.602535    0.630217   -0.216744
     60          6           0       -6.291159    1.278078   -0.673383
     61          6           0       -8.504141    1.662556    0.554665
     62          6           0       -9.981107    1.666850   -0.049357
     63          6           0      -10.471746    3.071968   -0.403957
     64          6           0      -11.579538    3.012439   -1.513162
     65          6           0      -11.261961    4.014322   -2.693765
     66          6           0      -12.974558    3.211873   -0.978767
     67          1           0        0.987195    1.358009   -3.626609
     68          1           0        3.024053    5.596483    0.984009
     69          1           0        6.645104    1.037580    3.497842
     70          1           0        3.567292   -2.786221   -3.372542
     71          1           0        1.075651   -1.330400   -3.530675
     72          1           0        2.462452    0.216839   -5.179963
     73          1           0        1.926101   -1.408542   -5.656229
     74          1           0        3.606684   -1.106587   -5.046249
     75          1           0        2.463899   -4.119581   -1.750929
     76          1           0        1.270178   -3.800816   -3.011811
     77          1           0        1.114153   -1.898995   -0.618328
     78          1           0        1.096040   -3.685098   -0.315257
     79          1           0       -0.621160    3.871064   -3.520769
     80          1           0        0.935091    3.465988   -4.376606
     81          1           0        0.529658    5.103648   -3.982607
     82          1           0        2.288923    7.271550    0.011819
     83          1           0        0.868584    6.639680    0.956061
     84          1           0        0.552114    7.858992   -0.080071
     85          1           0        3.873513    4.970180    3.389283
     86          1           0        6.157961    3.275804    4.009528
     87          1           0        6.795746    5.269148    2.859082
     88          1           0        5.419496    6.373932    3.014312
     89          1           0        5.964395    5.673315    1.433579
     90          1           0        3.486437    1.999188    4.340985
     91          1           0        3.619389    3.481150    5.123857
     92          1           0        4.513857    1.299687    6.209789
     93          1           0        4.954063    2.830166    6.903272
     94          1           0        6.021201    2.020354    5.692209
     95          1           0        8.902649   -1.119699    2.513530
     96          1           0        8.145514   -2.707025    2.970938
     97          1           0        7.649403   -1.232782    3.838563
     98          1           0        4.362302   -4.069083   -0.418441
     99          1           0        7.935893   -5.004662   -3.357975
    100          1           0        8.325820   -3.459323   -3.886518
    101          1           0        6.681153   -4.002042   -4.384550
    102          1           0       -3.252980   -3.406914   -1.095468
    103          1           0       -3.119702   -1.885433   -0.221535
    104          1           0       -3.667316   -4.772942    0.912763
    105          1           0       -4.779024   -1.186316    2.127603
    106          1           0       -3.007536   -1.168169    1.954539
    107          1           0       -3.714936   -1.423835    3.545200
    108          1           0       -4.282847   -3.725738    4.169792
    109          1           0       -4.605585   -4.962987    3.022803
    110          1           0       -6.484616   -2.603822    3.033424
    111          1           0       -6.261711   -3.606711    4.537174
    112          1           0       -7.376951   -5.418984    3.268539
    113          1           0       -6.445234   -5.115270    1.857174
    114          1           0       -8.734002   -3.317885    2.818447
    115          1           0       -9.774021   -5.500750    2.737380
    116          1           0       -8.769588   -5.941461    1.358889
    117          1           0      -10.108034   -4.845333    1.089740
    118          1           0       -8.720082   -3.499253   -0.128096
    119          1           0       -7.072749   -3.241330    0.367894
    120          1           0       -8.777646   -1.356916    1.814872
    121          1           0       -9.152260   -1.309947    0.035694
    122          1           0       -6.415360   -1.093327    0.241604
    123          1           0       -6.987420   -0.236003    1.658709
    124          1           0       -8.115123    0.406388   -1.152126
    125          1           0       -6.055015    0.962677   -1.689325
    126          1           0       -5.440671    0.962832   -0.067686
    127          1           0       -6.248110    2.366809   -0.645712
    128          1           0       -8.172584    2.699931    0.587840
    129          1           0       -8.611738    1.325500    1.586166
    130          1           0      -10.572742    1.359511    0.812828
    131          1           0      -10.180830    0.900528   -0.799415
    132          1           0       -9.573973    3.573004   -0.764367
    133          1           0      -10.729967    3.544605    0.543793
    134          1           0      -11.529784    2.055571   -2.032147
    135          1           0      -11.852896    4.911295   -2.508492
    136          1           0      -11.550724    3.638850   -3.676108
    137          1           0      -10.217884    4.292179   -2.839241
    138          1           0      -13.177973    2.800738    0.010553
    139          1           0      -13.613586    2.667264   -1.673140
    140          1           0      -13.265832    4.252334   -1.121554
 ---------------------------------------------------------------------

 SCF Done:  E(RCAM-B3LYP) =  -3007.15980448     A.U. after   19 cycles

 Excitation energies and oscillator strengths:

 Excited State   1:      Singlet-A      1.6571 eV  748.21 nm  f=0.3678  <S**2>=0.000
     245 -> 248       -0.17030
     246 -> 247        0.68698
     245 <- 248       -0.10721
 This state for optimization and/or second-order correction.
 Total Energy, E(TD-HF/TD-DFT) =  -3007.09890788
 Copying the excited state density for this state as the 1-particle RhoCI density.

 Excited State   2:      Singlet-A      2.1855 eV  567.31 nm  f=0.0996  <S**2>=0.000
     245 -> 247        0.63835
     246 -> 248        0.28752

 Excited State   3:      Singlet-A      2.9656 eV  418.08 nm  f=0.0053  <S**2>=0.000
     244 -> 247        0.68537

 Excited State   4:      Singlet-A      3.4047 eV  364.15 nm  f=0.0001  <S**2>=0.000
     239 -> 247        0.36859
     239 -> 249       -0.25463
     239 -> 250       -0.11558
     240 -> 247        0.36875
     240 -> 249       -0.23398
     240 -> 250       -0.10203
     242 -> 247       -0.22863

 Excited State   5:      Singlet-A      3.4334 eV  361.11 nm  f=0.1752  <S**2>=0.000
     239 -> 247        0.13365
     240 -> 247        0.10988
     241 -> 247        0.11145
     242 -> 247        0.47776
     245 -> 247       -0.15415
     246 -> 248        0.42959

 The electronic state is 1-A.
 Alpha  occ. eigenvalues --  -46.89687 -19.25088 -19.24979 -19.20061 -19.19941
 Alpha  occ. eigenvalues --  -19.19388 -19.18653 -14.43005 -14.42649 -14.39452
 Alpha  occ. eigenvalues --  -14.39354 -10.39629 -10.39563 -10.35886 -10.35222
 Alpha  occ. eigenvalues --  -10.32529 -10.32282 -10.31900 -10.31877 -10.31056
 Alpha  occ. eigenvalues --  -10.31018 -10.30970 -10.30310 -10.29504 -10.29044
 Alpha  occ. eigenvalues --  -10.29035 -10.28889 -10.28783 -10.28599 -10.28578
 Alpha  occ. eigenvalues --  -10.28096 -10.28055 -10.28017 -10.27824 -10.27717
 Alpha  occ. eigenvalues --  -10.27618 -10.27362 -10.27192 -10.27165 -10.27096
 Alpha  occ. eigenvalues --  -10.26902 -10.26899 -10.26866 -10.26334 -10.26209
 Alpha  occ. eigenvalues --  -10.26013 -10.25873 -10.25844 -10.25780 -10.25691
 Alpha  occ. eigenvalues --  -10.25656 -10.25372 -10.25278 -10.25238 -10.25145
 Alpha  occ. eigenvalues --  -10.25137 -10.24751 -10.24731 -10.24646 -10.24550
 Alpha  occ. eigenvalues --  -10.24336 -10.24292 -10.24239 -10.24170 -10.24149
 Alpha  occ. eigenvalues --  -10.23768  -3.18015  -1.92939  -1.92445  -1.92320
 Alpha  occ. eigenvalues --   -1.16000  -1.15607  -1.08409  -1.08023  -1.07275
 Alpha  occ. eigenvalues --   -1.06991  -1.06178  -1.04713  -1.03282  -1.01165
 Alpha  occ. eigenvalues --   -0.92737  -0.90681  -0.89982  -0.89469  -0.88759
 Alpha  occ. eigenvalues --   -0.88686  -0.87893  -0.87770  -0.87126  -0.86963
 Alpha  occ. eigenvalues --   -0.85380  -0.84851  -0.84526  -0.84379  -0.83499
 Alpha  occ. eigenvalues --   -0.82475  -0.82089  -0.80926  -0.80820  -0.80636
 Alpha  occ. eigenvalues --   -0.79710  -0.78484  -0.77845  -0.77076  -0.76669
 Alpha  occ. eigenvalues --   -0.75254  -0.75115  -0.75036  -0.74683  -0.73884
 Alpha  occ. eigenvalues --   -0.73265  -0.72796  -0.72148  -0.70773  -0.69897
 Alpha  occ. eigenvalues --   -0.68964  -0.67294  -0.66818  -0.66499  -0.66163
 Alpha  occ. eigenvalues --   -0.65270  -0.65046  -0.64976  -0.64408  -0.64047
 Alpha  occ. eigenvalues --   -0.63521  -0.62617  -0.62567  -0.62524  -0.60491
 Alpha  occ. eigenvalues --   -0.59965  -0.59370  -0.59142  -0.58817  -0.58182
 Alpha  occ. eigenvalues --   -0.57196  -0.56664  -0.56381  -0.56206  -0.55947
 Alpha  occ. eigenvalues --   -0.55319  -0.55058  -0.54809  -0.54467  -0.54165
 Alpha  occ. eigenvalues --   -0.53858  -0.53360  -0.53190  -0.52933  -0.52814
 Alpha  occ. eigenvalues --   -0.52642  -0.52148  -0.52070  -0.51990  -0.51938
 Alpha  occ. eigenvalues --   -0.51877  -0.51389  -0.51095  -0.50748  -0.50696
 Alpha  occ. eigenvalues --   -0.50550  -0.50255  -0.49994  -0.49667  -0.49538
 Alpha  occ. eigenvalues --   -0.49344  -0.48956  -0.48904  -0.48828  -0.48646
 Alpha  occ. eigenvalues --   -0.48404  -0.48356  -0.48156  -0.47987  -0.47817
 Alpha  occ. eigenvalues --   -0.47612  -0.47295  -0.47093  -0.46887  -0.46660
 Alpha  occ. eigenvalues --   -0.46384  -0.46243  -0.46000  -0.45893  -0.45675
 Alpha  occ. eigenvalues --   -0.45411  -0.45243  -0.45135  -0.45064  -0.44728
 Alpha  occ. eigenvalues --   -0.44476  -0.44259  -0.44146  -0.44051  -0.43900
 Alpha  occ. eigenvalues --   -0.43533  -0.43407  -0.43229  -0.42922  -0.42811
 Alpha  occ. eigenvalues --   -0.42628  -0.42427  -0.42261  -0.42093  -0.41979
 Alpha  occ. eigenvalues --   -0.41891  -0.41746  -0.41706  -0.41611  -0.41489
 Alpha  occ. eigenvalues --   -0.41173  -0.40778  -0.40680  -0.40566  -0.40343
 Alpha  occ. eigenvalues --   -0.40201  -0.39910  -0.39569  -0.38752  -0.38693
 Alpha  occ. eigenvalues --   -0.38527  -0.37888  -0.37623  -0.37595  -0.37369
 Alpha  occ. eigenvalues --   -0.37125  -0.36973  -0.36950  -0.36645  -0.36513
 Alpha  occ. eigenvalues --   -0.35642  -0.34955  -0.34702  -0.34601  -0.34555
 Alpha  occ. eigenvalues --   -0.34234  -0.34166  -0.33702  -0.31633  -0.31307
 Alpha  occ. eigenvalues --   -0.30693  -0.30613  -0.29922  -0.28482  -0.24543
 Alpha  occ. eigenvalues --   -0.21514
 Alpha virt. eigenvalues --   -0.09348  -0.02264  -0.00075   0.01811   0.02071
 Alpha virt. eigenvalues --    0.04577   0.04690   0.04935   0.05275   0.06366
 Alpha virt. eigenvalues --    0.07133   0.08126   0.08296   0.08608   0.09009

 Mulliken charges:
               1
     1  Mg   0.808218
     2  C   -0.019485
     3  C   -0.072531
     4  C   -0.062743
     5  C   -0.090214
     6  N   -0.314508
     7  C   -0.048474
     8  C   -0.040121
     9  C   -0.066399
    10  C    0.074450
    11  C    0.080560
    12  C    0.080167
    13  C    0.025762
    14  C    0.168475
    15  O   -0.244130
    16  O   -0.337543
    17  N   -0.403758
    18  C    0.134039
    19  C   -0.154897
    20  C   -0.048361
    21  C    0.163475
    22  C    0.118463
    23  C    0.024292
    24  O   -0.218008
    25  C    0.027788
    26  N   -0.273505
    27  C    0.019579
    28  C   -0.021396
    29  C   -0.053139
    30  C    0.030421
    31  C    0.065703
    32  C    0.056585
    33  C   -0.003977
    34  N   -0.268763
    35  C    0.115560
    36  C   -0.196936
    37  C   -0.013196
    38  C    0.063641
    39  C    0.133386
    40  C    0.096496
    41  O   -0.205589
    42  C    0.048258
    43  C    0.188251
    44  O   -0.229552
    45  O   -0.355237
    46  C    0.188816
    47  C    0.265742
    48  C   -0.119011
    49  C   -0.183102
    50  C    0.063095
    51  C    0.074100
    52  C    0.076754
    53  C   -0.005328
    54  C   -0.148834
    55  C    0.051750
    56  C    0.090025
    57  C    0.015680
    58  C   -0.020237
    59  C   -0.104707
    60  C    0.041181
    61  C    0.063050
    62  C   -0.045961
    63  C    0.062087
    64  C   -0.128810
    65  C    0.010594
    66  C    0.065322
    67  H   -0.008822
    68  H   -0.043377
    69  H   -0.030758
    70  H    0.019542
    71  H    0.020605
    72  H    0.010346
    73  H    0.027155
    74  H    0.008103
    75  H    0.015677
    76  H    0.031995
    77  H    0.066063
    78  H    0.035371
    79  H    0.033101
    80  H    0.005763
    81  H    0.029743
    82  H    0.053544
    83  H    0.034483
    84  H    0.017126
    85  H    0.005467
    86  H    0.002128
    87  H    0.019353
    88  H    0.022872
    89  H    0.023639
    90  H    0.018040
    91  H   -0.000891
    92  H    0.013777
    93  H    0.032188
    94  H    0.006311
    95  H    0.039196
    96  H    0.045706
    97  H    0.022950
    98  H    0.041565
    99  H    0.049055
   100  H    0.025826
   101  H    0.049526
   102  H    0.036255
   103  H    0.025628
   104  H   -0.005266
   105  H    0.017004
   106  H    0.030193
   107  H    0.015289
   108  H   -0.008419
   109  H   -0.002455
   110  H    0.002076
   111  H    0.005846
   112  H   -0.006530
   113  H    0.007607
   114  H    0.000487
   115  H    0.014574
   116  H    0.003192
   117  H    0.001423
   118  H   -0.008074
   119  H    0.000657
   120  H    0.003234
   121  H   -0.000338
   122  H    0.002079
   123  H    0.019099
   124  H    0.000468
   125  H    0.005797
   126  H   -0.003402
   127  H    0.002120
   128  H   -0.002242
   129  H   -0.013336
   130  H   -0.015004
   131  H    0.009082
   132  H   -0.008799
   133  H   -0.000872
   134  H    0.001181
   135  H    0.002082
   136  H    0.004397
   137  H    0.011581
   138  H    0.015434
   139  H   -0.004746
   140  H    0.007017
 Sum of Mulliken charges =  -0.00000

 Dipole moment (field-independent basis, Debye):
    X=              1.1099    Y=              2.8949    Z=              4.0420  Tot=              5.0941
 Quadrupole moment (field-independent basis, Debye-Ang):
   XX=           -384.8242   YY=           -443.0235   ZZ=           -381.9983
   XY=             44.8342   XZ=             -4.3908   YZ=             24.3636

 Normal termination of Gaussian 16 at Thu Apr 28 14:19:20 2022.
