 Gaussian 16, Revision A.03,
 Gaussian 16:  ES64L-G16RevA.03 25-Dec-2016

 ---------------------------------
 #p PBE1PBE/Def2SVP td=(nstates=5)
 ---------------------------------

 -----------------------------------------------------
 step_1601_chromophore_2 TDDFT with PBE1PBE functional
 -----------------------------------------------------
 Symbolic Z-matrix:
 Charge =  0 Multiplicity = 1

                         Standard orientation:
 ---------------------------------------------------------------------
 Center     Atomic      Atomic             Coordinates (Angstroms)
 Number     Number       Type             X           Y           Z
 ---------------------------------------------------------------------
      1         12           0        4.102775    1.339015   -0.344061
      2          6           0        4.688164   -2.039241   -0.823159
      3          6           0        1.763408    1.333284   -2.858867
      4          6           0        3.160790    4.543839    0.727899
      5          6           0        6.084418    1.070505    2.561240
      6          7           0        3.365902   -0.182442   -1.708035
      7          6           0        3.661814   -1.527720   -1.649831
      8          6           0        2.837235   -2.310576   -2.718108
      9          6           0        2.134589   -1.072739   -3.492370
     10          6           0        2.388059    0.108481   -2.627501
     11          6           0        2.551515   -0.847242   -4.960814
     12          6           0        1.802533   -3.359805   -2.168570
     13          6           0        0.863202   -2.882892   -1.015763
     14          6           0       -0.657023   -2.861416   -1.206521
     15          8           0       -1.190215   -2.590934   -2.277409
     16          8           0       -1.377479   -3.103785   -0.045761
     17          7           0        2.725447    2.782892   -1.099754
     18          6           0        1.922371    2.578008   -2.167363
     19          6           0        1.255822    3.825217   -2.397146
     20          6           0        1.599077    4.769661   -1.328370
     21          6           0        2.486331    4.045308   -0.435550
     22          6           0        0.444945    4.079135   -3.620465
     23          6           0        0.918996    6.153555   -1.216890
     24          8           0        0.117047    6.630004   -2.042413
     25          6           0        1.229951    7.009989   -0.003819
     26          7           0        4.399764    2.574655    1.403438
     27          6           0        4.014385    3.874151    1.592262
     28          6           0        4.649879    4.467010    2.812463
     29          6           0        5.149860    3.210829    3.600422
     30          6           0        5.201674    2.235859    2.448736
     31          6           0        5.792738    5.491933    2.495376
     32          6           0        4.245031    2.691147    4.707158
     33          6           0        4.996154    2.249489    5.981519
     34          7           0        5.301566   -0.169359    0.643128
     35          6           0        6.101459   -0.059229    1.748389
     36          6           0        6.900236   -1.251935    1.885353
     37          6           0        6.328495   -2.113319    0.930086
     38          6           0        5.414025   -1.363149    0.189545
     39          6           0        8.014399   -1.627645    2.890236
     40          6           0        6.281353   -3.510674    0.404540
     41          8           0        6.928432   -4.539791    0.754127
     42          6           0        5.262046   -3.525398   -0.708778
     43          6           0        5.766016   -4.145442   -1.952472
     44          8           0        5.319555   -5.123933   -2.556138
     45          8           0        6.866512   -3.449389   -2.390997
     46          6           0        7.456218   -4.061514   -3.620315
     47          6           0       -2.843237   -2.939605   -0.199495
     48          6           0       -3.539535   -3.696555    1.029276
     49          6           0       -4.073211   -3.134553    2.170604
     50          6           0       -3.845829   -1.625079    2.481274
     51          6           0       -4.816772   -3.916163    3.239197
     52          6           0       -6.224249   -3.576703    3.448253
     53          6           0       -7.032519   -4.610008    2.624212
     54          6           0       -8.385151   -3.940605    1.994400
     55          6           0       -9.340070   -5.129794    1.809486
     56          6           0       -8.108363   -3.099643    0.679073
     57          6           0       -8.442455   -1.607588    0.807524
     58          6           0       -7.271135   -0.560868    0.657196
     59          6           0       -7.602535    0.630217   -0.216744
     60          6           0       -6.291159    1.278078   -0.673383
     61          6           0       -8.504141    1.662556    0.554665
     62          6           0       -9.981107    1.666850   -0.049357
     63          6           0      -10.471746    3.071968   -0.403957
     64          6           0      -11.579538    3.012439   -1.513162
     65          6           0      -11.261961    4.014322   -2.693765
     66          6           0      -12.974558    3.211873   -0.978767
     67          1           0        0.987195    1.358009   -3.626609
     68          1           0        3.024053    5.596483    0.984009
     69          1           0        6.645104    1.037580    3.497842
     70          1           0        3.567292   -2.786221   -3.372542
     71          1           0        1.075651   -1.330400   -3.530675
     72          1           0        2.462452    0.216839   -5.179963
     73          1           0        1.926101   -1.408542   -5.656229
     74          1           0        3.606684   -1.106587   -5.046249
     75          1           0        2.463899   -4.119581   -1.750929
     76          1           0        1.270178   -3.800816   -3.011811
     77          1           0        1.114153   -1.898995   -0.618328
     78          1           0        1.096040   -3.685098   -0.315257
     79          1           0       -0.621160    3.871064   -3.520769
     80          1           0        0.935091    3.465988   -4.376606
     81          1           0        0.529658    5.103648   -3.982607
     82          1           0        2.288923    7.271550    0.011819
     83          1           0        0.868584    6.639680    0.956061
     84          1           0        0.552114    7.858992   -0.080071
     85          1           0        3.873513    4.970180    3.389283
     86          1           0        6.157961    3.275804    4.009528
     87          1           0        6.795746    5.269148    2.859082
     88          1           0        5.419496    6.373932    3.014312
     89          1           0        5.964395    5.673315    1.433579
     90          1           0        3.486437    1.999188    4.340985
     91          1           0        3.619389    3.481150    5.123857
     92          1           0        4.513857    1.299687    6.209789
     93          1           0        4.954063    2.830166    6.903272
     94          1           0        6.021201    2.020354    5.692209
     95          1           0        8.902649   -1.119699    2.513530
     96          1           0        8.145514   -2.707025    2.970938
     97          1           0        7.649403   -1.232782    3.838563
     98          1           0        4.362302   -4.069083   -0.418441
     99          1           0        7.935893   -5.004662   -3.357975
    100          1           0        8.325820   -3.459323   -3.886518
    101          1           0        6.681153   -4.002042   -4.384550
    102          1           0       -3.252980   -3.406914   -1.095468
    103          1           0       -3.119702   -1.885433   -0.221535
    104          1           0       -3.667316   -4.772942    0.912763
    105          1           0       -4.779024   -1.186316    2.127603
    106          1           0       -3.007536   -1.168169    1.954539
    107          1           0       -3.714936   -1.423835    3.545200
    108          1           0       -4.282847   -3.725738    4.169792
    109          1           0       -4.605585   -4.962987    3.022803
    110          1           0       -6.484616   -2.603822    3.033424
    111          1           0       -6.261711   -3.606711    4.537174
    112          1           0       -7.376951   -5.418984    3.268539
    113          1           0       -6.445234   -5.115270    1.857174
    114          1           0       -8.734002   -3.317885    2.818447
    115          1           0       -9.774021   -5.500750    2.737380
    116          1           0       -8.769588   -5.941461    1.358889
    117          1           0      -10.108034   -4.845333    1.089740
    118          1           0       -8.720082   -3.499253   -0.128096
    119          1           0       -7.072749   -3.241330    0.367894
    120          1           0       -8.777646   -1.356916    1.814872
    121          1           0       -9.152260   -1.309947    0.035694
    122          1           0       -6.415360   -1.093327    0.241604
    123          1           0       -6.987420   -0.236003    1.658709
    124          1           0       -8.115123    0.406388   -1.152126
    125          1           0       -6.055015    0.962677   -1.689325
    126          1           0       -5.440671    0.962832   -0.067686
    127          1           0       -6.248110    2.366809   -0.645712
    128          1           0       -8.172584    2.699931    0.587840
    129          1           0       -8.611738    1.325500    1.586166
    130          1           0      -10.572742    1.359511    0.812828
    131          1           0      -10.180830    0.900528   -0.799415
    132          1           0       -9.573973    3.573004   -0.764367
    133          1           0      -10.729967    3.544605    0.543793
    134          1           0      -11.529784    2.055571   -2.032147
    135          1           0      -11.852896    4.911295   -2.508492
    136          1           0      -11.550724    3.638850   -3.676108
    137          1           0      -10.217884    4.292179   -2.839241
    138          1           0      -13.177973    2.800738    0.010553
    139          1           0      -13.613586    2.667264   -1.673140
    140          1           0      -13.265832    4.252334   -1.121554
 ---------------------------------------------------------------------

 SCF Done:  E(RPBE1PBE) =  -3005.34903997     A.U. after   15 cycles

 Excitation energies and oscillator strengths:

 Excited State   1:      Singlet-A      1.8145 eV  683.31 nm  f=0.3538  <S**2>=0.000
     245 -> 248       -0.16222
     246 -> 247        0.69528
     246 <- 247       -0.11495
 This state for optimization and/or second-order correction.
 Total Energy, E(TD-HF/TD-DFT) =  -3005.28236001
 Copying the excited state density for this state as the 1-particle RhoCI density.

 Excited State   2:      Singlet-A      2.1892 eV  566.33 nm  f=0.0951  <S**2>=0.000
     245 -> 247        0.64941
     246 -> 248        0.25543

 Excited State   3:      Singlet-A      2.6106 eV  474.93 nm  f=0.0102  <S**2>=0.000
     244 -> 247        0.69364

 Excited State   4:      Singlet-A      2.9456 eV  420.92 nm  f=0.0002  <S**2>=0.000
     240 -> 247        0.37082
     240 -> 249        0.12730
     241 -> 247        0.55177
     241 -> 249        0.15130

 Excited State   5:      Singlet-A      2.9772 eV  416.44 nm  f=0.0001  <S**2>=0.000
     242 -> 247        0.67783
     242 -> 249       -0.10496
     242 -> 250       -0.11458

 The electronic state is 1-A.
 Alpha  occ. eigenvalues --  -46.93057 -19.25776 -19.25587 -19.20296 -19.20222
 Alpha  occ. eigenvalues --  -19.19502 -19.18945 -14.42394 -14.42274 -14.39213
 Alpha  occ. eigenvalues --  -14.38886 -10.36668 -10.36550 -10.32926 -10.32451
 Alpha  occ. eigenvalues --  -10.29958 -10.29949 -10.29581 -10.29067 -10.28928
 Alpha  occ. eigenvalues --  -10.28797 -10.28744 -10.27861 -10.27310 -10.26677
 Alpha  occ. eigenvalues --  -10.26619 -10.26522 -10.26435 -10.26400 -10.26364
 Alpha  occ. eigenvalues --  -10.25816 -10.25579 -10.25527 -10.25517 -10.25306
 Alpha  occ. eigenvalues --  -10.25254 -10.25247 -10.24983 -10.24949 -10.24765
 Alpha  occ. eigenvalues --  -10.24468 -10.24455 -10.24412 -10.23944 -10.23752
 Alpha  occ. eigenvalues --  -10.23620 -10.23459 -10.23379 -10.23337 -10.23178
 Alpha  occ. eigenvalues --  -10.23080 -10.23050 -10.22825 -10.22774 -10.22759
 Alpha  occ. eigenvalues --  -10.22693 -10.22321 -10.22270 -10.22250 -10.22111
 Alpha  occ. eigenvalues --  -10.21847 -10.21730 -10.21717 -10.21656 -10.21538
 Alpha  occ. eigenvalues --  -10.21176  -3.14972  -1.87836  -1.87320  -1.87198
 Alpha  occ. eigenvalues --   -1.10721  -1.10407  -1.03194  -1.02604  -1.02148
 Alpha  occ. eigenvalues --   -1.01794  -1.00797  -0.99275  -0.97906  -0.95929
 Alpha  occ. eigenvalues --   -0.87005  -0.84795  -0.84243  -0.83563  -0.83064
 Alpha  occ. eigenvalues --   -0.82919  -0.82096  -0.81986  -0.81392  -0.81077
 Alpha  occ. eigenvalues --   -0.79642  -0.79255  -0.78769  -0.78589  -0.77753
 Alpha  occ. eigenvalues --   -0.76633  -0.76322  -0.75149  -0.75119  -0.74831
 Alpha  occ. eigenvalues --   -0.73937  -0.72757  -0.72092  -0.71398  -0.70928
 Alpha  occ. eigenvalues --   -0.69547  -0.69254  -0.69210  -0.68821  -0.68063
 Alpha  occ. eigenvalues --   -0.67655  -0.67118  -0.66606  -0.65107  -0.64202
 Alpha  occ. eigenvalues --   -0.63427  -0.61557  -0.61284  -0.60886  -0.60473
 Alpha  occ. eigenvalues --   -0.59588  -0.59576  -0.59418  -0.58951  -0.58160
 Alpha  occ. eigenvalues --   -0.57661  -0.57141  -0.57051  -0.56777  -0.54966
 Alpha  occ. eigenvalues --   -0.54539  -0.53842  -0.53604  -0.53383  -0.52810
 Alpha  occ. eigenvalues --   -0.51619  -0.51139  -0.50849  -0.50639  -0.50456
 Alpha  occ. eigenvalues --   -0.49805  -0.49535  -0.49350  -0.48961  -0.48594
 Alpha  occ. eigenvalues --   -0.48237  -0.48065  -0.47832  -0.47558  -0.47322
 Alpha  occ. eigenvalues --   -0.47117  -0.46686  -0.46569  -0.46549  -0.46484
 Alpha  occ. eigenvalues --   -0.46316  -0.45882  -0.45574  -0.45321  -0.45307
 Alpha  occ. eigenvalues --   -0.45137  -0.44849  -0.44561  -0.44254  -0.44111
 Alpha  occ. eigenvalues --   -0.43966  -0.43543  -0.43539  -0.43426  -0.43237
 Alpha  occ. eigenvalues --   -0.43039  -0.42902  -0.42818  -0.42550  -0.42443
 Alpha  occ. eigenvalues --   -0.42282  -0.41939  -0.41772  -0.41615  -0.41434
 Alpha  occ. eigenvalues --   -0.41080  -0.40986  -0.40665  -0.40556  -0.40411
 Alpha  occ. eigenvalues --   -0.40145  -0.40015  -0.39913  -0.39684  -0.39442
 Alpha  occ. eigenvalues --   -0.39200  -0.38950  -0.38927  -0.38813  -0.38483
 Alpha  occ. eigenvalues --   -0.38259  -0.38117  -0.37940  -0.37767  -0.37662
 Alpha  occ. eigenvalues --   -0.37483  -0.37271  -0.37105  -0.36823  -0.36691
 Alpha  occ. eigenvalues --   -0.36650  -0.36612  -0.36553  -0.36424  -0.36248
 Alpha  occ. eigenvalues --   -0.36010  -0.35649  -0.35474  -0.35430  -0.35203
 Alpha  occ. eigenvalues --   -0.35053  -0.34668  -0.34334  -0.33665  -0.33470
 Alpha  occ. eigenvalues --   -0.33358  -0.32926  -0.32600  -0.32383  -0.32147
 Alpha  occ. eigenvalues --   -0.32136  -0.31902  -0.31840  -0.31660  -0.31436
 Alpha  occ. eigenvalues --   -0.30559  -0.29862  -0.29844  -0.29576  -0.29548
 Alpha  occ. eigenvalues --   -0.29183  -0.29129  -0.28984  -0.27123  -0.26234
 Alpha  occ. eigenvalues --   -0.26052  -0.25533  -0.25235  -0.24218  -0.21453
 Alpha  occ. eigenvalues --   -0.19162
 Alpha virt. eigenvalues --   -0.11776  -0.05748  -0.04277  -0.02602  -0.00773
 Alpha virt. eigenvalues --   -0.00049   0.00237   0.00713   0.00893   0.02455
 Alpha virt. eigenvalues --    0.03112   0.03952   0.04975   0.05392   0.05636

 Mulliken charges:
               1
     1  Mg   0.948740
     2  C   -0.023598
     3  C   -0.061145
     4  C   -0.065614
     5  C   -0.073645
     6  N   -0.418142
     7  C    0.022937
     8  C   -0.105867
     9  C   -0.136021
    10  C    0.103784
    11  C    0.021106
    12  C    0.023027
    13  C   -0.051312
    14  C    0.234579
    15  O   -0.275613
    16  O   -0.366100
    17  N   -0.513605
    18  C    0.164733
    19  C   -0.182452
    20  C   -0.088595
    21  C    0.194952
    22  C    0.057511
    23  C    0.071733
    24  O   -0.253287
    25  C   -0.048378
    26  N   -0.376074
    27  C    0.057845
    28  C   -0.106324
    29  C   -0.134697
    30  C    0.069976
    31  C    0.014388
    32  C    0.007045
    33  C   -0.076436
    34  N   -0.399968
    35  C    0.124455
    36  C   -0.208165
    37  C   -0.062278
    38  C    0.119551
    39  C    0.076270
    40  C    0.190761
    41  O   -0.252033
    42  C   -0.060700
    43  C    0.274305
    44  O   -0.266773
    45  O   -0.381969
    46  C    0.132445
    47  C    0.220662
    48  C   -0.132035
    49  C   -0.216422
    50  C   -0.006787
    51  C    0.005521
    52  C    0.007177
    53  C   -0.056039
    54  C   -0.233982
    55  C   -0.012786
    56  C    0.038652
    57  C   -0.045417
    58  C   -0.082094
    59  C   -0.193937
    60  C   -0.015831
    61  C    0.015848
    62  C   -0.106707
    63  C    0.006312
    64  C   -0.224281
    65  C   -0.047083
    66  C    0.004747
    67  H    0.022133
    68  H   -0.010215
    69  H    0.001025
    70  H    0.058407
    71  H    0.059508
    72  H    0.038852
    73  H    0.054565
    74  H    0.036936
    75  H    0.051615
    76  H    0.062721
    77  H    0.099198
    78  H    0.066946
    79  H    0.061869
    80  H    0.033522
    81  H    0.058462
    82  H    0.078683
    83  H    0.061454
    84  H    0.045815
    85  H    0.041798
    86  H    0.037892
    87  H    0.046202
    88  H    0.049774
    89  H    0.050529
    90  H    0.048973
    91  H    0.032704
    92  H    0.042460
    93  H    0.058541
    94  H    0.033764
    95  H    0.066676
    96  H    0.071763
    97  H    0.049388
    98  H    0.080932
    99  H    0.070823
   100  H    0.048145
   101  H    0.070653
   102  H    0.062603
   103  H    0.051270
   104  H    0.024236
   105  H    0.052150
   106  H    0.057523
   107  H    0.042414
   108  H    0.025925
   109  H    0.030149
   110  H    0.041460
   111  H    0.037276
   112  H    0.027579
   113  H    0.038393
   114  H    0.038371
   115  H    0.042495
   116  H    0.031858
   117  H    0.030170
   118  H    0.024361
   119  H    0.032538
   120  H    0.034142
   121  H    0.034347
   122  H    0.037092
   123  H    0.049834
   124  H    0.037922
   125  H    0.033655
   126  H    0.024626
   127  H    0.029089
   128  H    0.027663
   129  H    0.019668
   130  H    0.019936
   131  H    0.037052
   132  H    0.024610
   133  H    0.030998
   134  H    0.039024
   135  H    0.029192
   136  H    0.031951
   137  H    0.038197
   138  H    0.042754
   139  H    0.024137
   140  H    0.033962
 Sum of Mulliken charges =  -0.00000

 Dipole moment (field-independent basis, Debye):
    X=              0.8946    Y=              3.0847    Z=              3.9173  Tot=              5.0656
 Quadrupole moment (field-independent basis, Debye-Ang):
   XX=           -383.2618   YY=           -439.8582   ZZ=           -377.3361
   XY=             46.0403   XZ=             -4.2335   YZ=             24.7231

 Normal termination of Gaussian 16 at Thu Apr 28 14:36:21 2022.
