 Gaussian 16, Revision A.03,
 Gaussian 16:  ES64L-G16RevA.03 25-Dec-2016

 --------------------------------
 #p wB97XD/Def2SVP td=(nstates=5)
 --------------------------------

 ----------------------------------------------------
 step_1601_chromophore_2 TDDFT with wB97XD functional
 ----------------------------------------------------
 Symbolic Z-matrix:
 Charge =  0 Multiplicity = 1

                         Standard orientation:
 ---------------------------------------------------------------------
 Center     Atomic      Atomic             Coordinates (Angstroms)
 Number     Number       Type             X           Y           Z
 ---------------------------------------------------------------------
      1         12           0        4.102775    1.339015   -0.344061
      2          6           0        4.688164   -2.039241   -0.823159
      3          6           0        1.763408    1.333284   -2.858867
      4          6           0        3.160790    4.543839    0.727899
      5          6           0        6.084418    1.070505    2.561240
      6          7           0        3.365902   -0.182442   -1.708035
      7          6           0        3.661814   -1.527720   -1.649831
      8          6           0        2.837235   -2.310576   -2.718108
      9          6           0        2.134589   -1.072739   -3.492370
     10          6           0        2.388059    0.108481   -2.627501
     11          6           0        2.551515   -0.847242   -4.960814
     12          6           0        1.802533   -3.359805   -2.168570
     13          6           0        0.863202   -2.882892   -1.015763
     14          6           0       -0.657023   -2.861416   -1.206521
     15          8           0       -1.190215   -2.590934   -2.277409
     16          8           0       -1.377479   -3.103785   -0.045761
     17          7           0        2.725447    2.782892   -1.099754
     18          6           0        1.922371    2.578008   -2.167363
     19          6           0        1.255822    3.825217   -2.397146
     20          6           0        1.599077    4.769661   -1.328370
     21          6           0        2.486331    4.045308   -0.435550
     22          6           0        0.444945    4.079135   -3.620465
     23          6           0        0.918996    6.153555   -1.216890
     24          8           0        0.117047    6.630004   -2.042413
     25          6           0        1.229951    7.009989   -0.003819
     26          7           0        4.399764    2.574655    1.403438
     27          6           0        4.014385    3.874151    1.592262
     28          6           0        4.649879    4.467010    2.812463
     29          6           0        5.149860    3.210829    3.600422
     30          6           0        5.201674    2.235859    2.448736
     31          6           0        5.792738    5.491933    2.495376
     32          6           0        4.245031    2.691147    4.707158
     33          6           0        4.996154    2.249489    5.981519
     34          7           0        5.301566   -0.169359    0.643128
     35          6           0        6.101459   -0.059229    1.748389
     36          6           0        6.900236   -1.251935    1.885353
     37          6           0        6.328495   -2.113319    0.930086
     38          6           0        5.414025   -1.363149    0.189545
     39          6           0        8.014399   -1.627645    2.890236
     40          6           0        6.281353   -3.510674    0.404540
     41          8           0        6.928432   -4.539791    0.754127
     42          6           0        5.262046   -3.525398   -0.708778
     43          6           0        5.766016   -4.145442   -1.952472
     44          8           0        5.319555   -5.123933   -2.556138
     45          8           0        6.866512   -3.449389   -2.390997
     46          6           0        7.456218   -4.061514   -3.620315
     47          6           0       -2.843237   -2.939605   -0.199495
     48          6           0       -3.539535   -3.696555    1.029276
     49          6           0       -4.073211   -3.134553    2.170604
     50          6           0       -3.845829   -1.625079    2.481274
     51          6           0       -4.816772   -3.916163    3.239197
     52          6           0       -6.224249   -3.576703    3.448253
     53          6           0       -7.032519   -4.610008    2.624212
     54          6           0       -8.385151   -3.940605    1.994400
     55          6           0       -9.340070   -5.129794    1.809486
     56          6           0       -8.108363   -3.099643    0.679073
     57          6           0       -8.442455   -1.607588    0.807524
     58          6           0       -7.271135   -0.560868    0.657196
     59          6           0       -7.602535    0.630217   -0.216744
     60          6           0       -6.291159    1.278078   -0.673383
     61          6           0       -8.504141    1.662556    0.554665
     62          6           0       -9.981107    1.666850   -0.049357
     63          6           0      -10.471746    3.071968   -0.403957
     64          6           0      -11.579538    3.012439   -1.513162
     65          6           0      -11.261961    4.014322   -2.693765
     66          6           0      -12.974558    3.211873   -0.978767
     67          1           0        0.987195    1.358009   -3.626609
     68          1           0        3.024053    5.596483    0.984009
     69          1           0        6.645104    1.037580    3.497842
     70          1           0        3.567292   -2.786221   -3.372542
     71          1           0        1.075651   -1.330400   -3.530675
     72          1           0        2.462452    0.216839   -5.179963
     73          1           0        1.926101   -1.408542   -5.656229
     74          1           0        3.606684   -1.106587   -5.046249
     75          1           0        2.463899   -4.119581   -1.750929
     76          1           0        1.270178   -3.800816   -3.011811
     77          1           0        1.114153   -1.898995   -0.618328
     78          1           0        1.096040   -3.685098   -0.315257
     79          1           0       -0.621160    3.871064   -3.520769
     80          1           0        0.935091    3.465988   -4.376606
     81          1           0        0.529658    5.103648   -3.982607
     82          1           0        2.288923    7.271550    0.011819
     83          1           0        0.868584    6.639680    0.956061
     84          1           0        0.552114    7.858992   -0.080071
     85          1           0        3.873513    4.970180    3.389283
     86          1           0        6.157961    3.275804    4.009528
     87          1           0        6.795746    5.269148    2.859082
     88          1           0        5.419496    6.373932    3.014312
     89          1           0        5.964395    5.673315    1.433579
     90          1           0        3.486437    1.999188    4.340985
     91          1           0        3.619389    3.481150    5.123857
     92          1           0        4.513857    1.299687    6.209789
     93          1           0        4.954063    2.830166    6.903272
     94          1           0        6.021201    2.020354    5.692209
     95          1           0        8.902649   -1.119699    2.513530
     96          1           0        8.145514   -2.707025    2.970938
     97          1           0        7.649403   -1.232782    3.838563
     98          1           0        4.362302   -4.069083   -0.418441
     99          1           0        7.935893   -5.004662   -3.357975
    100          1           0        8.325820   -3.459323   -3.886518
    101          1           0        6.681153   -4.002042   -4.384550
    102          1           0       -3.252980   -3.406914   -1.095468
    103          1           0       -3.119702   -1.885433   -0.221535
    104          1           0       -3.667316   -4.772942    0.912763
    105          1           0       -4.779024   -1.186316    2.127603
    106          1           0       -3.007536   -1.168169    1.954539
    107          1           0       -3.714936   -1.423835    3.545200
    108          1           0       -4.282847   -3.725738    4.169792
    109          1           0       -4.605585   -4.962987    3.022803
    110          1           0       -6.484616   -2.603822    3.033424
    111          1           0       -6.261711   -3.606711    4.537174
    112          1           0       -7.376951   -5.418984    3.268539
    113          1           0       -6.445234   -5.115270    1.857174
    114          1           0       -8.734002   -3.317885    2.818447
    115          1           0       -9.774021   -5.500750    2.737380
    116          1           0       -8.769588   -5.941461    1.358889
    117          1           0      -10.108034   -4.845333    1.089740
    118          1           0       -8.720082   -3.499253   -0.128096
    119          1           0       -7.072749   -3.241330    0.367894
    120          1           0       -8.777646   -1.356916    1.814872
    121          1           0       -9.152260   -1.309947    0.035694
    122          1           0       -6.415360   -1.093327    0.241604
    123          1           0       -6.987420   -0.236003    1.658709
    124          1           0       -8.115123    0.406388   -1.152126
    125          1           0       -6.055015    0.962677   -1.689325
    126          1           0       -5.440671    0.962832   -0.067686
    127          1           0       -6.248110    2.366809   -0.645712
    128          1           0       -8.172584    2.699931    0.587840
    129          1           0       -8.611738    1.325500    1.586166
    130          1           0      -10.572742    1.359511    0.812828
    131          1           0      -10.180830    0.900528   -0.799415
    132          1           0       -9.573973    3.573004   -0.764367
    133          1           0      -10.729967    3.544605    0.543793
    134          1           0      -11.529784    2.055571   -2.032147
    135          1           0      -11.852896    4.911295   -2.508492
    136          1           0      -11.550724    3.638850   -3.676108
    137          1           0      -10.217884    4.292179   -2.839241
    138          1           0      -13.177973    2.800738    0.010553
    139          1           0      -13.613586    2.667264   -1.673140
    140          1           0      -13.265832    4.252334   -1.121554
 ---------------------------------------------------------------------

 SCF Done:  E(RwB97XD) =  -3007.86041634     A.U. after   20 cycles

 Excitation energies and oscillator strengths:

 Excited State   1:      Singlet-A      1.5985 eV  775.65 nm  f=0.3666  <S**2>=0.000
     245 -> 248       -0.17627
     246 -> 247        0.68447
     245 <- 248       -0.11689
 This state for optimization and/or second-order correction.
 Total Energy, E(TD-HF/TD-DFT) =  -3007.80167422
 Copying the excited state density for this state as the 1-particle RhoCI density.

 Excited State   2:      Singlet-A      2.1290 eV  582.36 nm  f=0.0965  <S**2>=0.000
     245 -> 247        0.63610
     246 -> 248        0.29048

 Excited State   3:      Singlet-A      3.0073 eV  412.28 nm  f=0.0048  <S**2>=0.000
     244 -> 247        0.67670
     244 -> 249        0.10437

 Excited State   4:      Singlet-A      3.4288 eV  361.59 nm  f=0.0006  <S**2>=0.000
     239 -> 247        0.22593
     239 -> 249       -0.17258
     240 -> 247        0.44977
     240 -> 249       -0.32130
     240 -> 250       -0.13584
     241 -> 247       -0.23909

 Excited State   5:      Singlet-A      3.4440 eV  360.01 nm  f=0.1973  <S**2>=0.000
     240 -> 247        0.15377
     241 -> 247        0.46502
     245 -> 247       -0.16041
     246 -> 248        0.44340

 The electronic state is 1-A.
 Alpha  occ. eigenvalues --  -46.96019 -19.30317 -19.30226 -19.25044 -19.24848
 Alpha  occ. eigenvalues --  -19.24509 -19.23646 -14.47620 -14.47230 -14.44061
 Alpha  occ. eigenvalues --  -14.43944 -10.43441 -10.43419 -10.39968 -10.39177
 Alpha  occ. eigenvalues --  -10.36438 -10.36359 -10.35935 -10.35631 -10.35096
 Alpha  occ. eigenvalues --  -10.35017 -10.34958 -10.34362 -10.33493 -10.33227
 Alpha  occ. eigenvalues --  -10.33109 -10.32940 -10.32878 -10.32683 -10.32618
 Alpha  occ. eigenvalues --  -10.32151 -10.32071 -10.31997 -10.31833 -10.31780
 Alpha  occ. eigenvalues --  -10.31612 -10.31450 -10.31218 -10.31127 -10.31079
 Alpha  occ. eigenvalues --  -10.30979 -10.30792 -10.30762 -10.30287 -10.30042
 Alpha  occ. eigenvalues --  -10.30006 -10.29968 -10.29701 -10.29615 -10.29599
 Alpha  occ. eigenvalues --  -10.29548 -10.29336 -10.29182 -10.29137 -10.29097
 Alpha  occ. eigenvalues --  -10.29059 -10.28680 -10.28637 -10.28569 -10.28432
 Alpha  occ. eigenvalues --  -10.28195 -10.28155 -10.28053 -10.28048 -10.27961
 Alpha  occ. eigenvalues --  -10.27567  -3.21809  -1.95419  -1.94901  -1.94779
 Alpha  occ. eigenvalues --   -1.18188  -1.17760  -1.10588  -1.10284  -1.09459
 Alpha  occ. eigenvalues --   -1.09223  -1.08270  -1.06722  -1.05269  -1.03178
 Alpha  occ. eigenvalues --   -0.94739  -0.92453  -0.91851  -0.91210  -0.90669
 Alpha  occ. eigenvalues --   -0.90551  -0.89709  -0.89639  -0.89095  -0.88736
 Alpha  occ. eigenvalues --   -0.87269  -0.86770  -0.86441  -0.86238  -0.85379
 Alpha  occ. eigenvalues --   -0.84281  -0.83991  -0.82819  -0.82759  -0.82492
 Alpha  occ. eigenvalues --   -0.81603  -0.80422  -0.79752  -0.78993  -0.78606
 Alpha  occ. eigenvalues --   -0.77164  -0.76908  -0.76891  -0.76484  -0.75705
 Alpha  occ. eigenvalues --   -0.75224  -0.74719  -0.74119  -0.72696  -0.71822
 Alpha  occ. eigenvalues --   -0.70979  -0.69159  -0.68789  -0.68431  -0.68053
 Alpha  occ. eigenvalues --   -0.67130  -0.67004  -0.66991  -0.66396  -0.65830
 Alpha  occ. eigenvalues --   -0.65323  -0.64596  -0.64541  -0.64393  -0.62467
 Alpha  occ. eigenvalues --   -0.61987  -0.61307  -0.61071  -0.60774  -0.60177
 Alpha  occ. eigenvalues --   -0.59127  -0.58579  -0.58280  -0.58125  -0.57875
 Alpha  occ. eigenvalues --   -0.57235  -0.56988  -0.56774  -0.56404  -0.56025
 Alpha  occ. eigenvalues --   -0.55677  -0.55294  -0.55171  -0.54910  -0.54708
 Alpha  occ. eigenvalues --   -0.54507  -0.54050  -0.53937  -0.53912  -0.53889
 Alpha  occ. eigenvalues --   -0.53816  -0.53248  -0.52946  -0.52635  -0.52615
 Alpha  occ. eigenvalues --   -0.52435  -0.52171  -0.51885  -0.51604  -0.51470
 Alpha  occ. eigenvalues --   -0.51301  -0.50871  -0.50828  -0.50711  -0.50567
 Alpha  occ. eigenvalues --   -0.50320  -0.50200  -0.50064  -0.49880  -0.49700
 Alpha  occ. eigenvalues --   -0.49532  -0.49214  -0.49018  -0.48794  -0.48578
 Alpha  occ. eigenvalues --   -0.48310  -0.48165  -0.47904  -0.47790  -0.47573
 Alpha  occ. eigenvalues --   -0.47311  -0.47156  -0.47081  -0.46902  -0.46585
 Alpha  occ. eigenvalues --   -0.46407  -0.46160  -0.46094  -0.45962  -0.45722
 Alpha  occ. eigenvalues --   -0.45437  -0.45307  -0.45088  -0.44825  -0.44713
 Alpha  occ. eigenvalues --   -0.44557  -0.44354  -0.44188  -0.43953  -0.43930
 Alpha  occ. eigenvalues --   -0.43750  -0.43661  -0.43625  -0.43547  -0.43357
 Alpha  occ. eigenvalues --   -0.43099  -0.42726  -0.42531  -0.42455  -0.42229
 Alpha  occ. eigenvalues --   -0.42090  -0.41731  -0.41397  -0.40644  -0.40516
 Alpha  occ. eigenvalues --   -0.40366  -0.39825  -0.39683  -0.39440  -0.39194
 Alpha  occ. eigenvalues --   -0.39063  -0.38958  -0.38890  -0.38657  -0.38427
 Alpha  occ. eigenvalues --   -0.37471  -0.36774  -0.36707  -0.36543  -0.36462
 Alpha  occ. eigenvalues --   -0.36078  -0.36028  -0.35941  -0.33765  -0.33393
 Alpha  occ. eigenvalues --   -0.32827  -0.32587  -0.31930  -0.30632  -0.26459
 Alpha  occ. eigenvalues --   -0.23310
 Alpha virt. eigenvalues --   -0.07705  -0.00357   0.01962   0.03935   0.05205
 Alpha virt. eigenvalues --    0.06684   0.06962   0.07402   0.07657   0.08943
 Alpha virt. eigenvalues --    0.09682   0.10716   0.11671   0.11996   0.12337

 Mulliken charges:
               1
     1  Mg   0.940813
     2  C   -0.032988
     3  C   -0.083448
     4  C   -0.073516
     5  C   -0.089849
     6  N   -0.386096
     7  C   -0.009151
     8  C   -0.081456
     9  C   -0.114104
    10  C    0.094810
    11  C    0.033600
    12  C    0.038326
    13  C   -0.035377
    14  C    0.225988
    15  O   -0.273474
    16  O   -0.366303
    17  N   -0.482296
    18  C    0.153646
    19  C   -0.173922
    20  C   -0.086322
    21  C    0.186223
    22  C    0.069847
    23  C    0.068757
    24  O   -0.248361
    25  C   -0.036735
    26  N   -0.342595
    27  C    0.040700
    28  C   -0.076008
    29  C   -0.099611
    30  C    0.053612
    31  C    0.019766
    32  C    0.010131
    33  C   -0.057596
    34  N   -0.359141
    35  C    0.120749
    36  C   -0.204204
    37  C   -0.059992
    38  C    0.103729
    39  C    0.089269
    40  C    0.171397
    41  O   -0.240277
    42  C   -0.019588
    43  C    0.252679
    44  O   -0.260413
    45  O   -0.383424
    46  C    0.147776
    47  C    0.235824
    48  C   -0.139618
    49  C   -0.208401
    50  C    0.017180
    51  C    0.028213
    52  C    0.030493
    53  C   -0.041861
    54  C   -0.204125
    55  C    0.002397
    56  C    0.052419
    57  C   -0.027060
    58  C   -0.056632
    59  C   -0.163200
    60  C   -0.003546
    61  C    0.026087
    62  C   -0.087393
    63  C    0.020938
    64  C   -0.193953
    65  C   -0.033836
    66  C    0.016171
    67  H    0.016867
    68  H   -0.019339
    69  H   -0.005799
    70  H    0.047467
    71  H    0.047743
    72  H    0.031378
    73  H    0.050041
    74  H    0.029588
    75  H    0.039607
    76  H    0.057870
    77  H    0.090613
    78  H    0.062013
    79  H    0.057628
    80  H    0.025818
    81  H    0.053544
    82  H    0.073625
    83  H    0.056728
    84  H    0.043675
    85  H    0.032191
    86  H    0.025436
    87  H    0.040955
    88  H    0.044476
    89  H    0.045031
    90  H    0.042833
    91  H    0.024551
    92  H    0.036205
    93  H    0.054670
    94  H    0.024119
    95  H    0.062459
    96  H    0.070040
    97  H    0.043703
    98  H    0.072051
    99  H    0.066896
   100  H    0.044776
   101  H    0.066917
   102  H    0.058486
   103  H    0.045801
   104  H    0.020813
   105  H    0.032595
   106  H    0.052769
   107  H    0.038111
   108  H    0.018003
   109  H    0.020987
   110  H    0.020649
   111  H    0.032614
   112  H    0.018744
   113  H    0.026461
   114  H    0.025384
   115  H    0.037288
   116  H    0.023993
   117  H    0.023768
   118  H    0.017498
   119  H    0.019585
   120  H    0.024150
   121  H    0.023939
   122  H    0.020620
   123  H    0.039120
   124  H    0.025937
   125  H    0.028386
   126  H    0.016746
   127  H    0.023651
   128  H    0.019071
   129  H    0.010535
   130  H    0.010050
   131  H    0.025581
   132  H    0.012239
   133  H    0.024337
   134  H    0.027318
   135  H    0.021201
   136  H    0.026453
   137  H    0.032651
   138  H    0.037673
   139  H    0.017875
   140  H    0.026869
 Sum of Mulliken charges =  -0.00000

 Dipole moment (field-independent basis, Debye):
    X=              1.2008    Y=              2.9159    Z=              4.0919  Tot=              5.1660
 Quadrupole moment (field-independent basis, Debye-Ang):
   XX=           -380.2833   YY=           -439.3265   ZZ=           -377.5027
   XY=             44.9305   XZ=             -3.8294   YZ=             24.7355

 Normal termination of Gaussian 16 at Thu Apr 28 15:03:50 2022.
