 Gaussian 16, Revision A.03,
 Gaussian 16:  ES64L-G16RevA.03 25-Dec-2016

 --------------------
 #p ZINDO=(nstates=5)
 --------------------

 -----------------------------
 step_1601_chromophore_2 ZINDO
 -----------------------------
 Symbolic Z-matrix:
 Charge =  0 Multiplicity = 1

                         Standard orientation:
 ---------------------------------------------------------------------
 Center     Atomic      Atomic             Coordinates (Angstroms)
 Number     Number       Type             X           Y           Z
 ---------------------------------------------------------------------
      1         12           0        4.102775    1.339015   -0.344061
      2          6           0        4.688164   -2.039241   -0.823159
      3          6           0        1.763408    1.333284   -2.858867
      4          6           0        3.160790    4.543839    0.727899
      5          6           0        6.084418    1.070505    2.561240
      6          7           0        3.365902   -0.182442   -1.708035
      7          6           0        3.661814   -1.527720   -1.649831
      8          6           0        2.837235   -2.310576   -2.718108
      9          6           0        2.134589   -1.072739   -3.492370
     10          6           0        2.388059    0.108481   -2.627501
     11          6           0        2.551515   -0.847242   -4.960814
     12          6           0        1.802533   -3.359805   -2.168570
     13          6           0        0.863202   -2.882892   -1.015763
     14          6           0       -0.657023   -2.861416   -1.206521
     15          8           0       -1.190215   -2.590934   -2.277409
     16          8           0       -1.377479   -3.103785   -0.045761
     17          7           0        2.725447    2.782892   -1.099754
     18          6           0        1.922371    2.578008   -2.167363
     19          6           0        1.255822    3.825217   -2.397146
     20          6           0        1.599077    4.769661   -1.328370
     21          6           0        2.486331    4.045308   -0.435550
     22          6           0        0.444945    4.079135   -3.620465
     23          6           0        0.918996    6.153555   -1.216890
     24          8           0        0.117047    6.630004   -2.042413
     25          6           0        1.229951    7.009989   -0.003819
     26          7           0        4.399764    2.574655    1.403438
     27          6           0        4.014385    3.874151    1.592262
     28          6           0        4.649879    4.467010    2.812463
     29          6           0        5.149860    3.210829    3.600422
     30          6           0        5.201674    2.235859    2.448736
     31          6           0        5.792738    5.491933    2.495376
     32          6           0        4.245031    2.691147    4.707158
     33          6           0        4.996154    2.249489    5.981519
     34          7           0        5.301566   -0.169359    0.643128
     35          6           0        6.101459   -0.059229    1.748389
     36          6           0        6.900236   -1.251935    1.885353
     37          6           0        6.328495   -2.113319    0.930086
     38          6           0        5.414025   -1.363149    0.189545
     39          6           0        8.014399   -1.627645    2.890236
     40          6           0        6.281353   -3.510674    0.404540
     41          8           0        6.928432   -4.539791    0.754127
     42          6           0        5.262046   -3.525398   -0.708778
     43          6           0        5.766016   -4.145442   -1.952472
     44          8           0        5.319555   -5.123933   -2.556138
     45          8           0        6.866512   -3.449389   -2.390997
     46          6           0        7.456218   -4.061514   -3.620315
     47          6           0       -2.843237   -2.939605   -0.199495
     48          6           0       -3.539535   -3.696555    1.029276
     49          6           0       -4.073211   -3.134553    2.170604
     50          6           0       -3.845829   -1.625079    2.481274
     51          6           0       -4.816772   -3.916163    3.239197
     52          6           0       -6.224249   -3.576703    3.448253
     53          6           0       -7.032519   -4.610008    2.624212
     54          6           0       -8.385151   -3.940605    1.994400
     55          6           0       -9.340070   -5.129794    1.809486
     56          6           0       -8.108363   -3.099643    0.679073
     57          6           0       -8.442455   -1.607588    0.807524
     58          6           0       -7.271135   -0.560868    0.657196
     59          6           0       -7.602535    0.630217   -0.216744
     60          6           0       -6.291159    1.278078   -0.673383
     61          6           0       -8.504141    1.662556    0.554665
     62          6           0       -9.981107    1.666850   -0.049357
     63          6           0      -10.471746    3.071968   -0.403957
     64          6           0      -11.579538    3.012439   -1.513162
     65          6           0      -11.261961    4.014322   -2.693765
     66          6           0      -12.974558    3.211873   -0.978767
     67          1           0        0.987195    1.358009   -3.626609
     68          1           0        3.024053    5.596483    0.984009
     69          1           0        6.645104    1.037580    3.497842
     70          1           0        3.567292   -2.786221   -3.372542
     71          1           0        1.075651   -1.330400   -3.530675
     72          1           0        2.462452    0.216839   -5.179963
     73          1           0        1.926101   -1.408542   -5.656229
     74          1           0        3.606684   -1.106587   -5.046249
     75          1           0        2.463899   -4.119581   -1.750929
     76          1           0        1.270178   -3.800816   -3.011811
     77          1           0        1.114153   -1.898995   -0.618328
     78          1           0        1.096040   -3.685098   -0.315257
     79          1           0       -0.621160    3.871064   -3.520769
     80          1           0        0.935091    3.465988   -4.376606
     81          1           0        0.529658    5.103648   -3.982607
     82          1           0        2.288923    7.271550    0.011819
     83          1           0        0.868584    6.639680    0.956061
     84          1           0        0.552114    7.858992   -0.080071
     85          1           0        3.873513    4.970180    3.389283
     86          1           0        6.157961    3.275804    4.009528
     87          1           0        6.795746    5.269148    2.859082
     88          1           0        5.419496    6.373932    3.014312
     89          1           0        5.964395    5.673315    1.433579
     90          1           0        3.486437    1.999188    4.340985
     91          1           0        3.619389    3.481150    5.123857
     92          1           0        4.513857    1.299687    6.209789
     93          1           0        4.954063    2.830166    6.903272
     94          1           0        6.021201    2.020354    5.692209
     95          1           0        8.902649   -1.119699    2.513530
     96          1           0        8.145514   -2.707025    2.970938
     97          1           0        7.649403   -1.232782    3.838563
     98          1           0        4.362302   -4.069083   -0.418441
     99          1           0        7.935893   -5.004662   -3.357975
    100          1           0        8.325820   -3.459323   -3.886518
    101          1           0        6.681153   -4.002042   -4.384550
    102          1           0       -3.252980   -3.406914   -1.095468
    103          1           0       -3.119702   -1.885433   -0.221535
    104          1           0       -3.667316   -4.772942    0.912763
    105          1           0       -4.779024   -1.186316    2.127603
    106          1           0       -3.007536   -1.168169    1.954539
    107          1           0       -3.714936   -1.423835    3.545200
    108          1           0       -4.282847   -3.725738    4.169792
    109          1           0       -4.605585   -4.962987    3.022803
    110          1           0       -6.484616   -2.603822    3.033424
    111          1           0       -6.261711   -3.606711    4.537174
    112          1           0       -7.376951   -5.418984    3.268539
    113          1           0       -6.445234   -5.115270    1.857174
    114          1           0       -8.734002   -3.317885    2.818447
    115          1           0       -9.774021   -5.500750    2.737380
    116          1           0       -8.769588   -5.941461    1.358889
    117          1           0      -10.108034   -4.845333    1.089740
    118          1           0       -8.720082   -3.499253   -0.128096
    119          1           0       -7.072749   -3.241330    0.367894
    120          1           0       -8.777646   -1.356916    1.814872
    121          1           0       -9.152260   -1.309947    0.035694
    122          1           0       -6.415360   -1.093327    0.241604
    123          1           0       -6.987420   -0.236003    1.658709
    124          1           0       -8.115123    0.406388   -1.152126
    125          1           0       -6.055015    0.962677   -1.689325
    126          1           0       -5.440671    0.962832   -0.067686
    127          1           0       -6.248110    2.366809   -0.645712
    128          1           0       -8.172584    2.699931    0.587840
    129          1           0       -8.611738    1.325500    1.586166
    130          1           0      -10.572742    1.359511    0.812828
    131          1           0      -10.180830    0.900528   -0.799415
    132          1           0       -9.573973    3.573004   -0.764367
    133          1           0      -10.729967    3.544605    0.543793
    134          1           0      -11.529784    2.055571   -2.032147
    135          1           0      -11.852896    4.911295   -2.508492
    136          1           0      -11.550724    3.638850   -3.676108
    137          1           0      -10.217884    4.292179   -2.839241
    138          1           0      -13.177973    2.800738    0.010553
    139          1           0      -13.613586    2.667264   -1.673140
    140          1           0      -13.265832    4.252334   -1.121554
 ---------------------------------------------------------------------

 SCF Done:  E(RZINDO/S) =  -473.960141730     A.U. after   20 cycles

 Excitation energies and oscillator strengths:

 Excited State   1:      Singlet-A      1.2196 eV 1016.60 nm  f=0.6106  <S**2>=0.000
     175 ->178        -0.18427
     176 ->177         0.66365
 This state for optimization and/or second-order correction.
 Total Energy, E(CIS/TDA) =  -473.915322194
 Copying the excited state density for this state as the 1-particle RhoCI density.

 Excited State   2:      Singlet-A      1.9265 eV  643.57 nm  f=0.0288  <S**2>=0.000
     175 ->177         0.53508
     176 ->178         0.43799

 Excited State   3:      Singlet-A      2.9548 eV  419.61 nm  f=0.0028  <S**2>=0.000
     167 ->179         0.14151
     168 ->177         0.30805
     168 ->179        -0.41458
     168 ->180         0.13657
     168 ->184        -0.12029
     168 ->185        -0.16679
     174 ->177         0.15180
     176 ->179         0.14705

 Excited State   4:      Singlet-A      2.9824 eV  415.71 nm  f=0.2491  <S**2>=0.000
     170 ->180        -0.18170
     170 ->185        -0.10235
     172 ->177        -0.11017
     174 ->177         0.48027
     175 ->177        -0.18232
     176 ->178         0.26438

 Excited State   5:      Singlet-A      3.0068 eV  412.34 nm  f=0.9129  <S**2>=0.000
     170 ->180         0.18980
     170 ->185         0.10350
     171 ->177         0.10982
     172 ->177         0.13413
     174 ->177        -0.14833
     175 ->177        -0.34977
     176 ->178         0.43025
     176 ->180         0.10147

 The electronic state is 1-A.
 Alpha  occ. eigenvalues --   -1.87241  -1.81834  -1.78722  -1.72999  -1.71379
 Alpha  occ. eigenvalues --   -1.69784  -1.64830  -1.60853  -1.57112  -1.56463
 Alpha  occ. eigenvalues --   -1.54529  -1.50073  -1.48518  -1.47353  -1.45728
 Alpha  occ. eigenvalues --   -1.44767  -1.41596  -1.39371  -1.38359  -1.37509
 Alpha  occ. eigenvalues --   -1.36064  -1.34036  -1.33093  -1.30542  -1.29691
 Alpha  occ. eigenvalues --   -1.29055  -1.26560  -1.22447  -1.19475  -1.18687
 Alpha  occ. eigenvalues --   -1.16055  -1.14400  -1.14380  -1.13688  -1.13523
 Alpha  occ. eigenvalues --   -1.12262  -1.09727  -1.08742  -1.06185  -1.03843
 Alpha  occ. eigenvalues --   -1.03173  -1.02260  -0.99566  -0.98423  -0.97320
 Alpha  occ. eigenvalues --   -0.94685  -0.93729  -0.93307  -0.92346  -0.91752
 Alpha  occ. eigenvalues --   -0.91182  -0.90735  -0.88710  -0.88397  -0.86959
 Alpha  occ. eigenvalues --   -0.86027  -0.83556  -0.82839  -0.81839  -0.81053
 Alpha  occ. eigenvalues --   -0.80006  -0.79039  -0.77460  -0.77096  -0.76685
 Alpha  occ. eigenvalues --   -0.76353  -0.75751  -0.74838  -0.74063  -0.73114
 Alpha  occ. eigenvalues --   -0.73032  -0.72137  -0.71815  -0.71168  -0.70949
 Alpha  occ. eigenvalues --   -0.70843  -0.69863  -0.69154  -0.68764  -0.68553
 Alpha  occ. eigenvalues --   -0.68367  -0.67362  -0.66653  -0.66400  -0.65773
 Alpha  occ. eigenvalues --   -0.65246  -0.64987  -0.64736  -0.64649  -0.63913
 Alpha  occ. eigenvalues --   -0.63574  -0.63083  -0.62325  -0.62291  -0.62149
 Alpha  occ. eigenvalues --   -0.61888  -0.61695  -0.60754  -0.60030  -0.59628
 Alpha  occ. eigenvalues --   -0.59452  -0.59020  -0.58895  -0.58295  -0.58036
 Alpha  occ. eigenvalues --   -0.57775  -0.57175  -0.57098  -0.56543  -0.56163
 Alpha  occ. eigenvalues --   -0.55854  -0.55538  -0.55043  -0.54974  -0.54749
 Alpha  occ. eigenvalues --   -0.54501  -0.54384  -0.54123  -0.53957  -0.53003
 Alpha  occ. eigenvalues --   -0.52562  -0.52388  -0.52237  -0.52119  -0.51703
 Alpha  occ. eigenvalues --   -0.51563  -0.51490  -0.51122  -0.50934  -0.50564
 Alpha  occ. eigenvalues --   -0.50207  -0.49868  -0.49581  -0.49503  -0.49094
 Alpha  occ. eigenvalues --   -0.48916  -0.48739  -0.48630  -0.48238  -0.48029
 Alpha  occ. eigenvalues --   -0.47462  -0.47435  -0.47176  -0.46556  -0.46435
 Alpha  occ. eigenvalues --   -0.46283  -0.46054  -0.45528  -0.45148  -0.45086
 Alpha  occ. eigenvalues --   -0.44573  -0.44400  -0.44243  -0.44154  -0.43944
 Alpha  occ. eigenvalues --   -0.43745  -0.43139  -0.42766  -0.42504  -0.42385
 Alpha  occ. eigenvalues --   -0.42111  -0.42081  -0.41883  -0.39496  -0.39024
 Alpha  occ. eigenvalues --   -0.38779  -0.37489  -0.36278  -0.35590  -0.35047
 Alpha  occ. eigenvalues --   -0.33997  -0.32909  -0.32183  -0.31449  -0.27309
 Alpha  occ. eigenvalues --   -0.22086
 Alpha virt. eigenvalues --   -0.09099  -0.02614  -0.01139   0.00956   0.01263
 Alpha virt. eigenvalues --    0.01853   0.01951   0.02599   0.04093   0.04560
 Alpha virt. eigenvalues --    0.05616   0.06044   0.06956   0.07237   0.07710

 Mulliken charges:
               1
     1  Mg   0.421382
     2  C   -0.082955
     3  C   -0.076026
     4  C   -0.065430
     5  C   -0.076514
     6  N   -0.294832
     7  C    0.139387
     8  C   -0.005282
     9  C   -0.000094
    10  C    0.138887
    11  C   -0.047064
    12  C   -0.015941
    13  C    0.006241
    14  C    0.465643
    15  O   -0.519176
    16  O   -0.264440
    17  N   -0.335186
    18  C    0.115880
    19  C    0.021629
    20  C   -0.060685
    21  C    0.089325
    22  C   -0.039824
    23  C    0.327092
    24  O   -0.524005
    25  C   -0.037643
    26  N   -0.262996
    27  C    0.113470
    28  C    0.011785
    29  C    0.005993
    30  C    0.137412
    31  C   -0.053015
    32  C   -0.024035
    33  C   -0.061623
    34  N   -0.319669
    35  C    0.112121
    36  C    0.040601
    37  C   -0.059253
    38  C    0.150001
    39  C   -0.036238
    40  C    0.335699
    41  O   -0.526281
    42  C    0.058609
    43  C    0.493214
    44  O   -0.522948
    45  O   -0.272677
    46  C    0.073540
    47  C    0.104693
    48  C   -0.116489
    49  C   -0.001802
    50  C   -0.050230
    51  C   -0.007624
    52  C   -0.028199
    53  C   -0.043802
    54  C   -0.025129
    55  C   -0.055140
    56  C   -0.027275
    57  C   -0.046811
    58  C   -0.030371
    59  C   -0.003207
    60  C   -0.061263
    61  C   -0.044731
    62  C   -0.050684
    63  C   -0.032977
    64  C   -0.006311
    65  C   -0.065018
    66  C   -0.053228
    67  H    0.032723
    68  H    0.030575
    69  H    0.028285
    70  H    0.038376
    71  H    0.032320
    72  H    0.022495
    73  H    0.026741
    74  H    0.021259
    75  H    0.021492
    76  H    0.040670
    77  H    0.055829
    78  H    0.034587
    79  H    0.040803
    80  H    0.016747
    81  H    0.034705
    82  H    0.042152
    83  H    0.035344
    84  H    0.030110
    85  H    0.027018
    86  H    0.031299
    87  H    0.023696
    88  H    0.019687
    89  H    0.027796
    90  H    0.032494
    91  H    0.010055
    92  H    0.011726
    93  H    0.034370
    94  H    0.018493
    95  H    0.041055
    96  H    0.044393
    97  H    0.028639
    98  H    0.053978
    99  H    0.055600
   100  H    0.021422
   101  H    0.055523
   102  H    0.051703
   103  H    0.047394
   104  H    0.029687
   105  H    0.030024
   106  H    0.026847
   107  H    0.023450
   108  H    0.009299
   109  H    0.020760
   110  H    0.028168
   111  H    0.029726
   112  H    0.013283
   113  H    0.029278
   114  H    0.022731
   115  H    0.022298
   116  H    0.016419
   117  H    0.012864
   118  H    0.018929
   119  H    0.023777
   120  H    0.020968
   121  H    0.022981
   122  H    0.012531
   123  H    0.019751
   124  H    0.028003
   125  H    0.013883
   126  H    0.011649
   127  H    0.017386
   128  H    0.028116
   129  H    0.014274
   130  H    0.003306
   131  H    0.029949
   132  H    0.016537
   133  H    0.025197
   134  H    0.020567
   135  H    0.016091
   136  H    0.014098
   137  H    0.020513
   138  H    0.024891
   139  H    0.007356
   140  H    0.024381
 Sum of Mulliken charges =  -0.00000

 Dipole moment (field-independent basis, Debye):
    X=              2.4866    Y=              3.3384    Z=              6.9113  Tot=              8.0681
 N-N= 4.465976973142D+03 E-N= 0.000000000000D+00  KE=-9.605588080896D+03
 Leave Link  601 at Thu Apr 28 15:17:32 2022, MaxMem=  6710886400 cpu:               0.8 elap:               0.0
 (Enter /sw/apps/gaussian-16.0/g16/l9999.exe)
 1\1\GINC-BP1-COMPUTE068\SP\RZINDO CIS\STO-3G\C55H74Mg1N4O6\OF15641\28-
 Apr-2022\0\\#p ZINDO=(nstates=5)\\step_1601_chromophore_2 ZINDO\\0,1\M
 g,0,2.494,-0.361,43.438\C,0,5.937,0.,43.454\C,0,2.146,2.629,41.784\C,0
 ,-0.868,-1.214,42.912\C,0,3.029,-3.645,44.608\N,0,3.896,1.151,42.755\C
 ,0,5.27,1.038,42.764\C,0,5.92,2.276,42.072\C,0,4.6,3.181,41.819\C,0,3.
 458,2.27,42.09\C,0,4.511,4.51,42.598\C,0,6.733,1.992,40.756\C,0,6.045,
 1.085,39.687\C,0,5.742,1.624,38.285\O,0,5.414,2.787,38.075\O,0,5.801,0

 Normal termination of Gaussian 16 at Thu Apr 28 15:17:33 2022.
