 Gaussian 16, Revision A.03,
 Gaussian 16:  ES64L-G16RevA.03 25-Dec-2016

 ------------------------------
 #p blyp/Def2SVP td=(nstates=5)
 ------------------------------

 ---------------------------------------------------
 step_1401_chromophore_23 TDDFT with blyp functional
 ---------------------------------------------------
 Symbolic Z-matrix:
 Charge =  0 Multiplicity = 1

                         Standard orientation:
 ---------------------------------------------------------------------
 Center     Atomic      Atomic             Coordinates (Angstroms)
 Number     Number       Type             X           Y           Z
 ---------------------------------------------------------------------
      1         12           0        4.925264    0.778631   -0.324818
      2          6           0        3.844818   -2.603381    0.277444
      3          6           0        2.816209    0.819916   -3.067842
      4          6           0        5.418255    3.987000   -0.447427
      5          6           0        6.284005    0.527416    2.931521
      6          7           0        3.457752   -0.615139   -1.127070
      7          6           0        3.206270   -1.917412   -0.769887
      8          6           0        2.138052   -2.523459   -1.715625
      9          6           0        1.918686   -1.591772   -2.833632
     10          6           0        2.762838   -0.365349   -2.334764
     11          6           0        2.437882   -2.097247   -4.228132
     12          6           0        0.773234   -2.793351   -1.002727
     13          6           0        0.202246   -4.164820   -1.245503
     14          6           0       -1.014931   -4.165755   -2.129394
     15          8           0       -0.962721   -4.201002   -3.330391
     16          8           0       -2.189252   -4.284611   -1.410385
     17          7           0        4.319849    2.238636   -1.746171
     18          6           0        3.568669    2.014746   -2.852279
     19          6           0        3.496980    3.327131   -3.539534
     20          6           0        4.139964    4.319315   -2.775019
     21          6           0        4.709388    3.540020   -1.630924
     22          6           0        2.739523    3.446502   -4.780595
     23          6           0        4.191822    5.825448   -3.106873
     24          8           0        3.588179    6.239220   -4.051753
     25          6           0        5.120802    6.818556   -2.347741
     26          7           0        5.838909    2.027836    1.053109
     27          6           0        5.919895    3.327825    0.726503
     28          6           0        6.549588    4.066231    1.851578
     29          6           0        6.783969    3.070547    2.989461
     30          6           0        6.227098    1.787953    2.300712
     31          6           0        7.741767    4.973012    1.441473
     32          6           0        6.075107    3.383069    4.379912
     33          6           0        6.955031    3.309679    5.637267
     34          7           0        5.278873   -0.733899    1.179816
     35          6           0        5.855277   -0.723836    2.411707
     36          6           0        5.892921   -1.969522    3.001037
     37          6           0        5.023074   -2.763600    2.237338
     38          6           0        4.724347   -1.963362    1.128556
     39          6           0        6.391547   -2.274938    4.381664
     40          6           0        4.447241   -4.064981    2.163812
     41          8           0        4.507135   -4.960631    2.953524
     42          6           0        3.613067   -4.026305    0.840428
     43          6           0        4.122475   -5.051111    0.008692
     44          8           0        5.227460   -5.034598   -0.502357
     45          8           0        3.143093   -6.016287   -0.269858
     46          6           0        3.699827   -7.247791   -0.989321
     47          6           0       -3.523453   -4.375446   -2.069698
     48          6           0       -4.667943   -3.937794   -1.152040
     49          6           0       -4.997168   -2.827054   -0.400699
     50          6           0       -4.245016   -1.486920   -0.398073
     51          6           0       -6.189002   -2.909746    0.498993
     52          6           0       -7.552258   -2.724372   -0.238881
     53          6           0       -8.704083   -3.278313    0.668218
     54          6           0      -10.027375   -2.567627    0.269634
     55          6           0      -11.079667   -3.536350   -0.182605
     56          6           0      -10.578633   -1.832549    1.467674
     57          6           0      -10.780925   -0.362218    1.270490
     58          6           0      -10.405709    0.474679    2.518821
     59          6           0       -9.534364    1.734614    2.093200
     60          6           0       -8.699292    2.105117    3.231258
     61          6           0      -10.581419    2.871404    1.630792
     62          6           0       -9.935674    3.651915    0.501525
     63          6           0       -9.782871    5.104912    0.829741
     64          6           0       -8.958000    5.935416   -0.304059
     65          6           0       -7.931255    6.866062    0.338899
     66          6           0       -9.935956    6.808769   -1.164244
     67          1           0        2.099777    0.914417   -3.887177
     68          1           0        5.629090    5.057732   -0.472228
     69          1           0        6.716960    0.404826    3.927076
     70          1           0        2.581965   -3.400464   -2.188945
     71          1           0        0.847705   -1.395004   -2.887742
     72          1           0        3.460441   -1.789072   -4.442714
     73          1           0        1.845977   -1.809887   -5.097149
     74          1           0        2.461992   -3.186312   -4.238189
     75          1           0        0.022011   -2.050080   -1.271207
     76          1           0        0.967140   -2.671743    0.063106
     77          1           0       -0.058899   -4.556889   -0.262431
     78          1           0        0.844275   -4.902124   -1.727492
     79          1           0        2.183472    4.382808   -4.828256
     80          1           0        1.939136    2.710306   -4.837764
     81          1           0        3.400195    3.198777   -5.611173
     82          1           0        6.056253    6.259587   -2.352218
     83          1           0        4.834949    7.043633   -1.320197
     84          1           0        5.145483    7.768544   -2.882094
     85          1           0        5.727190    4.738743    2.096386
     86          1           0        7.867259    2.958386    3.047073
     87          1           0        7.782823    5.187136    0.373511
     88          1           0        8.667085    4.635982    1.910184
     89          1           0        7.561773    5.872687    2.028707
     90          1           0        5.246393    2.690649    4.529158
     91          1           0        5.714906    4.410520    4.330152
     92          1           0        7.946548    3.139331    5.219151
     93          1           0        6.698186    2.510591    6.332353
     94          1           0        6.900426    4.277833    6.135336
     95          1           0        7.283689   -1.717491    4.664883
     96          1           0        6.627769   -3.339287    4.354954
     97          1           0        5.622034   -2.164157    5.146349
     98          1           0        2.529101   -4.113437    0.902962
     99          1           0        4.550510   -7.663253   -0.449610
    100          1           0        3.926728   -6.987454   -2.023519
    101          1           0        2.841194   -7.914698   -0.914639
    102          1           0       -3.794589   -5.305909   -2.567424
    103          1           0       -3.560462   -3.633701   -2.867808
    104          1           0       -5.393649   -4.726541   -0.955458
    105          1           0       -4.193123   -1.024591    0.587314
    106          1           0       -4.717098   -0.826018   -1.126315
    107          1           0       -3.222537   -1.583808   -0.760629
    108          1           0       -6.013131   -2.250458    1.349002
    109          1           0       -6.317188   -3.910683    0.912781
    110          1           0       -7.422778   -3.312830   -1.147040
    111          1           0       -7.713895   -1.693808   -0.553276
    112          1           0       -8.470226   -3.088472    1.715577
    113          1           0       -8.829120   -4.358132    0.594422
    114          1           0       -9.779942   -1.970737   -0.608715
    115          1           0      -10.949240   -3.694454   -1.253535
    116          1           0      -12.101249   -3.197184   -0.010255
    117          1           0      -10.964060   -4.542056    0.222146
    118          1           0      -10.014420   -1.949828    2.392651
    119          1           0      -11.567524   -2.219026    1.718051
    120          1           0      -11.861104   -0.264350    1.166921
    121          1           0      -10.400228    0.041367    0.331686
    122          1           0       -9.802267   -0.190225    3.136458
    123          1           0      -11.266220    0.738916    3.132721
    124          1           0       -8.929177    1.451885    1.231978
    125          1           0       -8.396563    3.135283    3.045975
    126          1           0       -7.791128    1.523654    3.388687
    127          1           0       -9.219206    2.109299    4.189567
    128          1           0      -11.010608    3.447836    2.450724
    129          1           0      -11.371346    2.282843    1.162633
    130          1           0      -10.522444    3.619495   -0.416281
    131          1           0       -8.944286    3.279078    0.240251
    132          1           0       -9.188017    5.228757    1.734237
    133          1           0      -10.812885    5.429400    0.981126
    134          1           0       -8.379138    5.213295   -0.881129
    135          1           0       -7.076615    6.240985    0.597376
    136          1           0       -8.259371    7.326905    1.270277
    137          1           0       -7.545551    7.632642   -0.333306
    138          1           0       -9.492053    7.016877   -2.137195
    139          1           0      -10.151353    7.792845   -0.750033
    140          1           0      -10.911029    6.322723   -1.205944
 ---------------------------------------------------------------------

 SCF Done:  E(RB-LYP) =  -3007.35752464     A.U. after   19 cycles

 Excitation energies and oscillator strengths:

 Excited State   1:      Singlet-A      1.8197 eV  681.35 nm  f=0.3217  <S**2>=0.000
     245 -> 248       -0.19302
     246 -> 247        0.69156
     246 <- 247       -0.15463
 This state for optimization and/or second-order correction.
 Total Energy, E(TD-HF/TD-DFT) =  -3007.29065271
 Copying the excited state density for this state as the 1-particle RhoCI density.

 Excited State   2:      Singlet-A      1.9979 eV  620.59 nm  f=0.0579  <S**2>=0.000
     243 -> 247        0.17212
     244 -> 247       -0.20134
     245 -> 247        0.61023
     246 -> 248        0.21329

 Excited State   3:      Singlet-A      2.0281 eV  611.33 nm  f=0.0064  <S**2>=0.000
     244 -> 247        0.67740
     245 -> 247        0.17552

 Excited State   4:      Singlet-A      2.1995 eV  563.70 nm  f=0.0075  <S**2>=0.000
     243 -> 247        0.67395
     245 -> 247       -0.14402
     246 -> 248       -0.10753

 Excited State   5:      Singlet-A      2.2167 eV  559.32 nm  f=0.0002  <S**2>=0.000
     242 -> 247        0.70001

 The electronic state is 1-A.
 Alpha  occ. eigenvalues --  -46.27587 -18.81607 -18.81540 -18.76617 -18.76343
 Alpha  occ. eigenvalues --  -18.76230 -18.76007 -14.03857 -14.03403 -14.01307
 Alpha  occ. eigenvalues --  -14.00227 -10.03635 -10.03105 -10.00536  -9.99736
 Alpha  occ. eigenvalues --   -9.98431  -9.97844  -9.96968  -9.96887  -9.96746
 Alpha  occ. eigenvalues --   -9.96708  -9.96674  -9.95677  -9.94408  -9.94235
 Alpha  occ. eigenvalues --   -9.93796  -9.93677  -9.93651  -9.93628  -9.93592
 Alpha  occ. eigenvalues --   -9.93580  -9.93546  -9.93491  -9.93380  -9.93168
 Alpha  occ. eigenvalues --   -9.93103  -9.93039  -9.93031  -9.92876  -9.92871
 Alpha  occ. eigenvalues --   -9.92641  -9.92604  -9.92532  -9.92428  -9.92305
 Alpha  occ. eigenvalues --   -9.92129  -9.92110  -9.92039  -9.91953  -9.91928
 Alpha  occ. eigenvalues --   -9.91928  -9.91805  -9.91398  -9.91273  -9.91217
 Alpha  occ. eigenvalues --   -9.91193  -9.90870  -9.90773  -9.90670  -9.90619
 Alpha  occ. eigenvalues --   -9.90545  -9.90424  -9.90412  -9.90369  -9.90316
 Alpha  occ. eigenvalues --   -9.90141  -2.92156  -1.72586  -1.72037  -1.71865
 Alpha  occ. eigenvalues --   -0.97136  -0.96316  -0.93405  -0.93149  -0.89800
 Alpha  occ. eigenvalues --   -0.88867  -0.87857  -0.86781  -0.85631  -0.84699
 Alpha  occ. eigenvalues --   -0.76085  -0.74017  -0.73704  -0.73029  -0.72628
 Alpha  occ. eigenvalues --   -0.72292  -0.71858  -0.70871  -0.70602  -0.70279
 Alpha  occ. eigenvalues --   -0.69811  -0.69417  -0.68107  -0.68003  -0.67411
 Alpha  occ. eigenvalues --   -0.66789  -0.65993  -0.65655  -0.64828  -0.64732
 Alpha  occ. eigenvalues --   -0.64465  -0.62446  -0.62094  -0.61711  -0.61039
 Alpha  occ. eigenvalues --   -0.60557  -0.60119  -0.59750  -0.59676  -0.58474
 Alpha  occ. eigenvalues --   -0.58097  -0.57749  -0.57070  -0.55862  -0.54626
 Alpha  occ. eigenvalues --   -0.54253  -0.53417  -0.52478  -0.52288  -0.51768
 Alpha  occ. eigenvalues --   -0.51265  -0.50995  -0.50912  -0.50546  -0.50474
 Alpha  occ. eigenvalues --   -0.50062  -0.49689  -0.48750  -0.47650  -0.46565
 Alpha  occ. eigenvalues --   -0.46371  -0.45949  -0.45479  -0.45302  -0.44840
 Alpha  occ. eigenvalues --   -0.44343  -0.43980  -0.43238  -0.42741  -0.42603
 Alpha  occ. eigenvalues --   -0.42113  -0.41901  -0.41647  -0.41537  -0.41410
 Alpha  occ. eigenvalues --   -0.41004  -0.40784  -0.40325  -0.40073  -0.39770
 Alpha  occ. eigenvalues --   -0.39710  -0.39544  -0.39427  -0.39347  -0.39231
 Alpha  occ. eigenvalues --   -0.39084  -0.38862  -0.38769  -0.38468  -0.38175
 Alpha  occ. eigenvalues --   -0.37959  -0.37911  -0.37713  -0.37507  -0.37110
 Alpha  occ. eigenvalues --   -0.37041  -0.36902  -0.36624  -0.36558  -0.36449
 Alpha  occ. eigenvalues --   -0.36418  -0.36136  -0.35946  -0.35837  -0.35657
 Alpha  occ. eigenvalues --   -0.35482  -0.35206  -0.34941  -0.34708  -0.34569
 Alpha  occ. eigenvalues --   -0.34516  -0.34315  -0.34172  -0.34115  -0.33889
 Alpha  occ. eigenvalues --   -0.33767  -0.33726  -0.33584  -0.33571  -0.33484
 Alpha  occ. eigenvalues --   -0.33120  -0.33080  -0.32861  -0.32681  -0.32498
 Alpha  occ. eigenvalues --   -0.32236  -0.32115  -0.31731  -0.31718  -0.31509
 Alpha  occ. eigenvalues --   -0.31490  -0.31306  -0.31066  -0.30978  -0.30808
 Alpha  occ. eigenvalues --   -0.30439  -0.30235  -0.30137  -0.30012  -0.29931
 Alpha  occ. eigenvalues --   -0.29763  -0.29599  -0.29516  -0.29419  -0.29231
 Alpha  occ. eigenvalues --   -0.29086  -0.28770  -0.28445  -0.28251  -0.28063
 Alpha  occ. eigenvalues --   -0.27658  -0.27319  -0.27282  -0.26680  -0.26463
 Alpha  occ. eigenvalues --   -0.26349  -0.26235  -0.25954  -0.25789  -0.25297
 Alpha  occ. eigenvalues --   -0.25178  -0.24913  -0.24298  -0.24009  -0.23458
 Alpha  occ. eigenvalues --   -0.22690  -0.22177  -0.21733  -0.21587  -0.20826
 Alpha  occ. eigenvalues --   -0.20441  -0.19750  -0.19493  -0.18995  -0.17342
 Alpha  occ. eigenvalues --   -0.15851
 Alpha virt. eigenvalues --   -0.11608  -0.06876  -0.06000  -0.04588  -0.03748
 Alpha virt. eigenvalues --   -0.02718  -0.02686  -0.02180  -0.01398  -0.00035
 Alpha virt. eigenvalues --    0.01124   0.01525   0.02184   0.02587   0.02809

 Mulliken charges:
               1
     1  Mg   0.702382
     2  C   -0.076782
     3  C   -0.035678
     4  C   -0.044882
     5  C   -0.069064
     6  N   -0.235047
     7  C   -0.076469
     8  C    0.039331
     9  C    0.006826
    10  C    0.029716
    11  C    0.120827
    12  C    0.111397
    13  C    0.185685
    14  C    0.026814
    15  O   -0.180994
    16  O   -0.281348
    17  N   -0.281143
    18  C    0.106281
    19  C   -0.149968
    20  C    0.037233
    21  C    0.088063
    22  C    0.186108
    23  C   -0.082878
    24  O   -0.127119
    25  C    0.110195
    26  N   -0.212973
    27  C    0.019970
    28  C   -0.000804
    29  C    0.056178
    30  C    0.004815
    31  C    0.142973
    32  C    0.091638
    33  C    0.063906
    34  N   -0.200058
    35  C    0.088165
    36  C   -0.178819
    37  C    0.057312
    38  C    0.119546
    39  C    0.158894
    40  C   -0.048263
    41  O   -0.095349
    42  C    0.134759
    43  C    0.092722
    44  O   -0.184604
    45  O   -0.312368
    46  C    0.220032
    47  C    0.356946
    48  C   -0.118220
    49  C   -0.158246
    50  C    0.135342
    51  C    0.119085
    52  C    0.056621
    53  C    0.117898
    54  C   -0.067011
    55  C    0.108697
    56  C    0.140195
    57  C    0.061409
    58  C    0.078171
    59  C   -0.089678
    60  C    0.146594
    61  C    0.139064
    62  C    0.061791
    63  C    0.061661
    64  C   -0.060452
    65  C    0.093871
    66  C    0.097228
    67  H   -0.061376
    68  H   -0.091733
    69  H   -0.074730
    70  H   -0.021017
    71  H   -0.021069
    72  H   -0.009635
    73  H   -0.004469
    74  H   -0.009014
    75  H   -0.007784
    76  H   -0.018331
    77  H   -0.014157
    78  H    0.005597
    79  H    0.009052
    80  H   -0.031324
    81  H    0.006466
    82  H    0.011973
    83  H    0.022024
    84  H   -0.001802
    85  H   -0.024312
    86  H   -0.019276
    87  H    0.012292
    88  H   -0.017763
    89  H   -0.021698
    90  H   -0.009976
    91  H   -0.020906
    92  H   -0.015178
    93  H    0.003775
    94  H   -0.005963
    95  H   -0.007951
    96  H    0.003763
    97  H    0.008559
    98  H   -0.019348
    99  H    0.031140
   100  H    0.024419
   101  H    0.016031
   102  H   -0.003926
   103  H   -0.011002
   104  H   -0.038729
   105  H   -0.003446
   106  H    0.002760
   107  H   -0.015595
   108  H   -0.028949
   109  H   -0.024408
   110  H   -0.032638
   111  H   -0.021930
   112  H   -0.027899
   113  H   -0.034079
   114  H   -0.024991
   115  H   -0.034858
   116  H   -0.015129
   117  H   -0.022948
   118  H   -0.042234
   119  H   -0.048319
   120  H   -0.042048
   121  H   -0.026527
   122  H   -0.045927
   123  H   -0.028496
   124  H   -0.036124
   125  H   -0.037264
   126  H   -0.020522
   127  H   -0.022618
   128  H   -0.024691
   129  H   -0.045378
   130  H   -0.034328
   131  H   -0.032419
   132  H   -0.037664
   133  H   -0.028273
   134  H   -0.033977
   135  H   -0.028335
   136  H   -0.010915
   137  H   -0.018925
   138  H   -0.013671
   139  H   -0.019753
   140  H   -0.018226
 Sum of Mulliken charges =  -0.00000

 Dipole moment (field-independent basis, Debye):
    X=             -1.2786    Y=              2.2221    Z=              2.1000  Tot=              3.3140
 Quadrupole moment (field-independent basis, Debye-Ang):
   XX=           -382.8582   YY=           -417.5781   ZZ=           -415.0103
   XY=             30.4338   XZ=              7.1746   YZ=             31.0863

 Normal termination of Gaussian 16 at Wed May  4 06:24:37 2022.
