 Gaussian 16, Revision A.03,
 Gaussian 16:  ES64L-G16RevA.03 25-Dec-2016

 -----------------------------------
 #p cam-b3lyp/Def2SVP td=(nstates=5)
 -----------------------------------

 --------------------------------------------------------
 step_1401_chromophore_23 TDDFT with cam-b3lyp functional
 --------------------------------------------------------
 Symbolic Z-matrix:
 Charge =  0 Multiplicity = 1

                         Standard orientation:
 ---------------------------------------------------------------------
 Center     Atomic      Atomic             Coordinates (Angstroms)
 Number     Number       Type             X           Y           Z
 ---------------------------------------------------------------------
      1         12           0        4.925264    0.778631   -0.324818
      2          6           0        3.844818   -2.603381    0.277444
      3          6           0        2.816209    0.819916   -3.067842
      4          6           0        5.418255    3.987000   -0.447427
      5          6           0        6.284005    0.527416    2.931521
      6          7           0        3.457752   -0.615139   -1.127070
      7          6           0        3.206270   -1.917412   -0.769887
      8          6           0        2.138052   -2.523459   -1.715625
      9          6           0        1.918686   -1.591772   -2.833632
     10          6           0        2.762838   -0.365349   -2.334764
     11          6           0        2.437882   -2.097247   -4.228132
     12          6           0        0.773234   -2.793351   -1.002727
     13          6           0        0.202246   -4.164820   -1.245503
     14          6           0       -1.014931   -4.165755   -2.129394
     15          8           0       -0.962721   -4.201002   -3.330391
     16          8           0       -2.189252   -4.284611   -1.410385
     17          7           0        4.319849    2.238636   -1.746171
     18          6           0        3.568669    2.014746   -2.852279
     19          6           0        3.496980    3.327131   -3.539534
     20          6           0        4.139964    4.319315   -2.775019
     21          6           0        4.709388    3.540020   -1.630924
     22          6           0        2.739523    3.446502   -4.780595
     23          6           0        4.191822    5.825448   -3.106873
     24          8           0        3.588179    6.239220   -4.051753
     25          6           0        5.120802    6.818556   -2.347741
     26          7           0        5.838909    2.027836    1.053109
     27          6           0        5.919895    3.327825    0.726503
     28          6           0        6.549588    4.066231    1.851578
     29          6           0        6.783969    3.070547    2.989461
     30          6           0        6.227098    1.787953    2.300712
     31          6           0        7.741767    4.973012    1.441473
     32          6           0        6.075107    3.383069    4.379912
     33          6           0        6.955031    3.309679    5.637267
     34          7           0        5.278873   -0.733899    1.179816
     35          6           0        5.855277   -0.723836    2.411707
     36          6           0        5.892921   -1.969522    3.001037
     37          6           0        5.023074   -2.763600    2.237338
     38          6           0        4.724347   -1.963362    1.128556
     39          6           0        6.391547   -2.274938    4.381664
     40          6           0        4.447241   -4.064981    2.163812
     41          8           0        4.507135   -4.960631    2.953524
     42          6           0        3.613067   -4.026305    0.840428
     43          6           0        4.122475   -5.051111    0.008692
     44          8           0        5.227460   -5.034598   -0.502357
     45          8           0        3.143093   -6.016287   -0.269858
     46          6           0        3.699827   -7.247791   -0.989321
     47          6           0       -3.523453   -4.375446   -2.069698
     48          6           0       -4.667943   -3.937794   -1.152040
     49          6           0       -4.997168   -2.827054   -0.400699
     50          6           0       -4.245016   -1.486920   -0.398073
     51          6           0       -6.189002   -2.909746    0.498993
     52          6           0       -7.552258   -2.724372   -0.238881
     53          6           0       -8.704083   -3.278313    0.668218
     54          6           0      -10.027375   -2.567627    0.269634
     55          6           0      -11.079667   -3.536350   -0.182605
     56          6           0      -10.578633   -1.832549    1.467674
     57          6           0      -10.780925   -0.362218    1.270490
     58          6           0      -10.405709    0.474679    2.518821
     59          6           0       -9.534364    1.734614    2.093200
     60          6           0       -8.699292    2.105117    3.231258
     61          6           0      -10.581419    2.871404    1.630792
     62          6           0       -9.935674    3.651915    0.501525
     63          6           0       -9.782871    5.104912    0.829741
     64          6           0       -8.958000    5.935416   -0.304059
     65          6           0       -7.931255    6.866062    0.338899
     66          6           0       -9.935956    6.808769   -1.164244
     67          1           0        2.099777    0.914417   -3.887177
     68          1           0        5.629090    5.057732   -0.472228
     69          1           0        6.716960    0.404826    3.927076
     70          1           0        2.581965   -3.400464   -2.188945
     71          1           0        0.847705   -1.395004   -2.887742
     72          1           0        3.460441   -1.789072   -4.442714
     73          1           0        1.845977   -1.809887   -5.097149
     74          1           0        2.461992   -3.186312   -4.238189
     75          1           0        0.022011   -2.050080   -1.271207
     76          1           0        0.967140   -2.671743    0.063106
     77          1           0       -0.058899   -4.556889   -0.262431
     78          1           0        0.844275   -4.902124   -1.727492
     79          1           0        2.183472    4.382808   -4.828256
     80          1           0        1.939136    2.710306   -4.837764
     81          1           0        3.400195    3.198777   -5.611173
     82          1           0        6.056253    6.259587   -2.352218
     83          1           0        4.834949    7.043633   -1.320197
     84          1           0        5.145483    7.768544   -2.882094
     85          1           0        5.727190    4.738743    2.096386
     86          1           0        7.867259    2.958386    3.047073
     87          1           0        7.782823    5.187136    0.373511
     88          1           0        8.667085    4.635982    1.910184
     89          1           0        7.561773    5.872687    2.028707
     90          1           0        5.246393    2.690649    4.529158
     91          1           0        5.714906    4.410520    4.330152
     92          1           0        7.946548    3.139331    5.219151
     93          1           0        6.698186    2.510591    6.332353
     94          1           0        6.900426    4.277833    6.135336
     95          1           0        7.283689   -1.717491    4.664883
     96          1           0        6.627769   -3.339287    4.354954
     97          1           0        5.622034   -2.164157    5.146349
     98          1           0        2.529101   -4.113437    0.902962
     99          1           0        4.550510   -7.663253   -0.449610
    100          1           0        3.926728   -6.987454   -2.023519
    101          1           0        2.841194   -7.914698   -0.914639
    102          1           0       -3.794589   -5.305909   -2.567424
    103          1           0       -3.560462   -3.633701   -2.867808
    104          1           0       -5.393649   -4.726541   -0.955458
    105          1           0       -4.193123   -1.024591    0.587314
    106          1           0       -4.717098   -0.826018   -1.126315
    107          1           0       -3.222537   -1.583808   -0.760629
    108          1           0       -6.013131   -2.250458    1.349002
    109          1           0       -6.317188   -3.910683    0.912781
    110          1           0       -7.422778   -3.312830   -1.147040
    111          1           0       -7.713895   -1.693808   -0.553276
    112          1           0       -8.470226   -3.088472    1.715577
    113          1           0       -8.829120   -4.358132    0.594422
    114          1           0       -9.779942   -1.970737   -0.608715
    115          1           0      -10.949240   -3.694454   -1.253535
    116          1           0      -12.101249   -3.197184   -0.010255
    117          1           0      -10.964060   -4.542056    0.222146
    118          1           0      -10.014420   -1.949828    2.392651
    119          1           0      -11.567524   -2.219026    1.718051
    120          1           0      -11.861104   -0.264350    1.166921
    121          1           0      -10.400228    0.041367    0.331686
    122          1           0       -9.802267   -0.190225    3.136458
    123          1           0      -11.266220    0.738916    3.132721
    124          1           0       -8.929177    1.451885    1.231978
    125          1           0       -8.396563    3.135283    3.045975
    126          1           0       -7.791128    1.523654    3.388687
    127          1           0       -9.219206    2.109299    4.189567
    128          1           0      -11.010608    3.447836    2.450724
    129          1           0      -11.371346    2.282843    1.162633
    130          1           0      -10.522444    3.619495   -0.416281
    131          1           0       -8.944286    3.279078    0.240251
    132          1           0       -9.188017    5.228757    1.734237
    133          1           0      -10.812885    5.429400    0.981126
    134          1           0       -8.379138    5.213295   -0.881129
    135          1           0       -7.076615    6.240985    0.597376
    136          1           0       -8.259371    7.326905    1.270277
    137          1           0       -7.545551    7.632642   -0.333306
    138          1           0       -9.492053    7.016877   -2.137195
    139          1           0      -10.151353    7.792845   -0.750033
    140          1           0      -10.911029    6.322723   -1.205944
 ---------------------------------------------------------------------

 SCF Done:  E(RCAM-B3LYP) =  -3007.15686794     A.U. after   16 cycles

 Excitation energies and oscillator strengths:

 Excited State   1:      Singlet-A      1.7039 eV  727.64 nm  f=0.3970  <S**2>=0.000
     245 -> 248        0.17993
     246 -> 247        0.68640
     245 <- 248        0.10859
 This state for optimization and/or second-order correction.
 Total Energy, E(TD-HF/TD-DFT) =  -3007.09425009
 Copying the excited state density for this state as the 1-particle RhoCI density.

 Excited State   2:      Singlet-A      2.2228 eV  557.79 nm  f=0.1002  <S**2>=0.000
     245 -> 247        0.63760
     246 -> 248       -0.29374

 Excited State   3:      Singlet-A      3.3798 eV  366.84 nm  f=0.0072  <S**2>=0.000
     243 -> 247        0.67466
     246 -> 248        0.13979

 Excited State   4:      Singlet-A      3.4929 eV  354.96 nm  f=0.2908  <S**2>=0.000
     240 -> 247        0.11178
     242 -> 247        0.43942
     245 -> 247        0.18717
     246 -> 248        0.49124

 Excited State   5:      Singlet-A      3.6431 eV  340.33 nm  f=0.3367  <S**2>=0.000
     239 -> 247       -0.20867
     240 -> 247       -0.17178
     242 -> 247        0.49225
     243 -> 247        0.14194
     245 -> 247       -0.19399
     246 -> 248       -0.28660

 The electronic state is 1-A.
 Alpha  occ. eigenvalues --  -46.89154 -19.24630 -19.24410 -19.19584 -19.19535
 Alpha  occ. eigenvalues --  -19.19366 -19.19287 -14.42764 -14.42237 -14.39893
 Alpha  occ. eigenvalues --  -14.38504 -10.38869 -10.38600 -10.35755 -10.34985
 Alpha  occ. eigenvalues --  -10.32614 -10.32001 -10.31516 -10.31483 -10.31384
 Alpha  occ. eigenvalues --  -10.31175 -10.30953 -10.30138 -10.28377 -10.28258
 Alpha  occ. eigenvalues --  -10.28165 -10.27980 -10.27927 -10.27876 -10.27875
 Alpha  occ. eigenvalues --  -10.27601 -10.27590 -10.27530 -10.27411 -10.27378
 Alpha  occ. eigenvalues --  -10.27165 -10.27066 -10.26883 -10.26828 -10.26753
 Alpha  occ. eigenvalues --  -10.26715 -10.26686 -10.26609 -10.26085 -10.26077
 Alpha  occ. eigenvalues --  -10.26028 -10.25799 -10.25709 -10.25655 -10.25607
 Alpha  occ. eigenvalues --  -10.25563 -10.25533 -10.25059 -10.25013 -10.24893
 Alpha  occ. eigenvalues --  -10.24864 -10.24568 -10.24372 -10.24343 -10.24279
 Alpha  occ. eigenvalues --  -10.24219 -10.24131 -10.23967 -10.23934 -10.23899
 Alpha  occ. eigenvalues --  -10.23715  -3.17622  -1.92531  -1.92082  -1.91914
 Alpha  occ. eigenvalues --   -1.15614  -1.14960  -1.11943  -1.11569  -1.07627
 Alpha  occ. eigenvalues --   -1.06811  -1.05601  -1.04349  -1.03341  -1.02264
 Alpha  occ. eigenvalues --   -0.93230  -0.90876  -0.90517  -0.89832  -0.89270
 Alpha  occ. eigenvalues --   -0.89009  -0.88567  -0.87435  -0.87172  -0.86832
 Alpha  occ. eigenvalues --   -0.86402  -0.85842  -0.84363  -0.84220  -0.83608
 Alpha  occ. eigenvalues --   -0.82870  -0.82114  -0.81639  -0.80797  -0.80548
 Alpha  occ. eigenvalues --   -0.80282  -0.78074  -0.77618  -0.77363  -0.76455
 Alpha  occ. eigenvalues --   -0.75901  -0.75413  -0.75084  -0.74985  -0.73652
 Alpha  occ. eigenvalues --   -0.73126  -0.72735  -0.71986  -0.70680  -0.69164
 Alpha  occ. eigenvalues --   -0.68888  -0.67888  -0.67033  -0.66408  -0.66094
 Alpha  occ. eigenvalues --   -0.65421  -0.65136  -0.65037  -0.64567  -0.64512
 Alpha  occ. eigenvalues --   -0.63880  -0.63569  -0.62647  -0.61411  -0.60178
 Alpha  occ. eigenvalues --   -0.60036  -0.59525  -0.58839  -0.58699  -0.58475
 Alpha  occ. eigenvalues --   -0.57859  -0.57352  -0.56551  -0.55892  -0.55690
 Alpha  occ. eigenvalues --   -0.55224  -0.54749  -0.54550  -0.54264  -0.54107
 Alpha  occ. eigenvalues --   -0.53923  -0.53716  -0.53099  -0.52762  -0.52637
 Alpha  occ. eigenvalues --   -0.52484  -0.52265  -0.52259  -0.52009  -0.51883
 Alpha  occ. eigenvalues --   -0.51821  -0.51577  -0.51482  -0.50914  -0.50683
 Alpha  occ. eigenvalues --   -0.50396  -0.50288  -0.49999  -0.49928  -0.49732
 Alpha  occ. eigenvalues --   -0.49451  -0.49216  -0.49095  -0.49074  -0.48808
 Alpha  occ. eigenvalues --   -0.48581  -0.48423  -0.48004  -0.47921  -0.47702
 Alpha  occ. eigenvalues --   -0.47573  -0.47324  -0.47045  -0.46924  -0.46468
 Alpha  occ. eigenvalues --   -0.46277  -0.46212  -0.46141  -0.45841  -0.45657
 Alpha  occ. eigenvalues --   -0.45491  -0.45440  -0.45423  -0.45370  -0.45137
 Alpha  occ. eigenvalues --   -0.45000  -0.44805  -0.44438  -0.44247  -0.44206
 Alpha  occ. eigenvalues --   -0.43924  -0.43759  -0.43407  -0.43358  -0.43168
 Alpha  occ. eigenvalues --   -0.43107  -0.43044  -0.42736  -0.42359  -0.42179
 Alpha  occ. eigenvalues --   -0.42094  -0.41628  -0.41380  -0.41208  -0.41101
 Alpha  occ. eigenvalues --   -0.40891  -0.40832  -0.40795  -0.40469  -0.40332
 Alpha  occ. eigenvalues --   -0.40221  -0.39915  -0.39645  -0.39276  -0.39013
 Alpha  occ. eigenvalues --   -0.38527  -0.38282  -0.38123  -0.37488  -0.37425
 Alpha  occ. eigenvalues --   -0.37223  -0.37105  -0.36820  -0.36700  -0.36555
 Alpha  occ. eigenvalues --   -0.36499  -0.35855  -0.34825  -0.34656  -0.34225
 Alpha  occ. eigenvalues --   -0.33732  -0.33177  -0.32943  -0.31467  -0.31199
 Alpha  occ. eigenvalues --   -0.31119  -0.30227  -0.29697  -0.29337  -0.24143
 Alpha  occ. eigenvalues --   -0.21103
 Alpha virt. eigenvalues --   -0.08734  -0.01719   0.00577   0.02513   0.02586
 Alpha virt. eigenvalues --    0.03525   0.04900   0.05091   0.05680   0.06490
 Alpha virt. eigenvalues --    0.07915   0.08329   0.08732   0.08844   0.09206

 Mulliken charges:
               1
     1  Mg   0.834321
     2  C   -0.099075
     3  C   -0.052967
     4  C   -0.063684
     5  C   -0.070419
     6  N   -0.305410
     7  C   -0.029127
     8  C   -0.014708
     9  C   -0.043852
    10  C    0.047022
    11  C    0.063653
    12  C    0.056478
    13  C    0.110088
    14  C    0.111779
    15  O   -0.221074
    16  O   -0.347891
    17  N   -0.366911
    18  C    0.117931
    19  C   -0.154732
    20  C   -0.030002
    21  C    0.118492
    22  C    0.124297
    23  C   -0.005178
    24  O   -0.167465
    25  C    0.034338
    26  N   -0.290869
    27  C    0.047149
    28  C   -0.060217
    29  C   -0.000405
    30  C    0.024428
    31  C    0.082410
    32  C    0.035114
    33  C    0.003644
    34  N   -0.287386
    35  C    0.088220
    36  C   -0.171682
    37  C   -0.017425
    38  C    0.153218
    39  C    0.104882
    40  C    0.043378
    41  O   -0.135159
    42  C    0.051425
    43  C    0.187261
    44  O   -0.219451
    45  O   -0.377435
    46  C    0.181230
    47  C    0.332471
    48  C   -0.148273
    49  C   -0.175607
    50  C    0.080795
    51  C    0.054513
    52  C    0.009766
    53  C    0.066219
    54  C   -0.131076
    55  C    0.053140
    56  C    0.084503
    57  C    0.006641
    58  C    0.025790
    59  C   -0.144088
    60  C    0.087644
    61  C    0.077885
    62  C    0.010584
    63  C    0.012681
    64  C   -0.120583
    65  C    0.033397
    66  C    0.039023
    67  H   -0.025979
    68  H   -0.058215
    69  H   -0.038884
    70  H    0.012703
    71  H    0.014174
    72  H    0.016947
    73  H    0.020526
    74  H    0.015170
    75  H    0.020659
    76  H    0.013722
    77  H    0.023107
    78  H    0.036817
    79  H    0.039764
    80  H   -0.004432
    81  H    0.034146
    82  H    0.035377
    83  H    0.047977
    84  H    0.033106
    85  H    0.010737
    86  H    0.014298
    87  H    0.035213
    88  H    0.008458
    89  H    0.003812
    90  H    0.020401
    91  H    0.007353
    92  H    0.006813
    93  H    0.026250
    94  H    0.017607
    95  H    0.015859
    96  H    0.030780
    97  H    0.034544
    98  H    0.024063
    99  H    0.054266
   100  H    0.047213
   101  H    0.040263
   102  H    0.024234
   103  H    0.018723
   104  H   -0.008856
   105  H    0.020615
   106  H    0.026368
   107  H    0.007621
   108  H   -0.000295
   109  H    0.006787
   110  H   -0.004216
   111  H    0.003786
   112  H    0.000263
   113  H   -0.005629
   114  H    0.006591
   115  H   -0.008985
   116  H    0.008952
   117  H    0.001055
   118  H   -0.014404
   119  H   -0.016550
   120  H   -0.013074
   121  H   -0.000718
   122  H   -0.016663
   123  H   -0.000081
   124  H   -0.004361
   125  H   -0.014547
   126  H    0.005206
   127  H    0.001779
   128  H    0.004959
   129  H   -0.013361
   130  H   -0.006633
   131  H   -0.006289
   132  H   -0.011510
   133  H   -0.001057
   134  H   -0.002514
   135  H   -0.003696
   136  H    0.012575
   137  H    0.006368
   138  H    0.010394
   139  H    0.004448
   140  H    0.004443
 Sum of Mulliken charges =  -0.00000

 Dipole moment (field-independent basis, Debye):
    X=             -1.2781    Y=              2.5354    Z=              1.9192  Tot=              3.4271
 Quadrupole moment (field-independent basis, Debye-Ang):
   XX=           -382.6834   YY=           -412.6636   ZZ=           -413.9885
   XY=             33.3975   XZ=              6.9655   YZ=             31.6896

 Normal termination of Gaussian 16 at Wed May  4 05:23:46 2022.
