 Gaussian 16, Revision A.03,
 Gaussian 16:  ES64L-G16RevA.03 25-Dec-2016

 ---------------------------------
 #p PBE1PBE/Def2SVP td=(nstates=5)
 ---------------------------------

 ------------------------------------------------------
 step_1401_chromophore_23 TDDFT with PBE1PBE functional
 ------------------------------------------------------
 Symbolic Z-matrix:
 Charge =  0 Multiplicity = 1

                         Standard orientation:
 ---------------------------------------------------------------------
 Center     Atomic      Atomic             Coordinates (Angstroms)
 Number     Number       Type             X           Y           Z
 ---------------------------------------------------------------------
      1         12           0        4.925264    0.778631   -0.324818
      2          6           0        3.844818   -2.603381    0.277444
      3          6           0        2.816209    0.819916   -3.067842
      4          6           0        5.418255    3.987000   -0.447427
      5          6           0        6.284005    0.527416    2.931521
      6          7           0        3.457752   -0.615139   -1.127070
      7          6           0        3.206270   -1.917412   -0.769887
      8          6           0        2.138052   -2.523459   -1.715625
      9          6           0        1.918686   -1.591772   -2.833632
     10          6           0        2.762838   -0.365349   -2.334764
     11          6           0        2.437882   -2.097247   -4.228132
     12          6           0        0.773234   -2.793351   -1.002727
     13          6           0        0.202246   -4.164820   -1.245503
     14          6           0       -1.014931   -4.165755   -2.129394
     15          8           0       -0.962721   -4.201002   -3.330391
     16          8           0       -2.189252   -4.284611   -1.410385
     17          7           0        4.319849    2.238636   -1.746171
     18          6           0        3.568669    2.014746   -2.852279
     19          6           0        3.496980    3.327131   -3.539534
     20          6           0        4.139964    4.319315   -2.775019
     21          6           0        4.709388    3.540020   -1.630924
     22          6           0        2.739523    3.446502   -4.780595
     23          6           0        4.191822    5.825448   -3.106873
     24          8           0        3.588179    6.239220   -4.051753
     25          6           0        5.120802    6.818556   -2.347741
     26          7           0        5.838909    2.027836    1.053109
     27          6           0        5.919895    3.327825    0.726503
     28          6           0        6.549588    4.066231    1.851578
     29          6           0        6.783969    3.070547    2.989461
     30          6           0        6.227098    1.787953    2.300712
     31          6           0        7.741767    4.973012    1.441473
     32          6           0        6.075107    3.383069    4.379912
     33          6           0        6.955031    3.309679    5.637267
     34          7           0        5.278873   -0.733899    1.179816
     35          6           0        5.855277   -0.723836    2.411707
     36          6           0        5.892921   -1.969522    3.001037
     37          6           0        5.023074   -2.763600    2.237338
     38          6           0        4.724347   -1.963362    1.128556
     39          6           0        6.391547   -2.274938    4.381664
     40          6           0        4.447241   -4.064981    2.163812
     41          8           0        4.507135   -4.960631    2.953524
     42          6           0        3.613067   -4.026305    0.840428
     43          6           0        4.122475   -5.051111    0.008692
     44          8           0        5.227460   -5.034598   -0.502357
     45          8           0        3.143093   -6.016287   -0.269858
     46          6           0        3.699827   -7.247791   -0.989321
     47          6           0       -3.523453   -4.375446   -2.069698
     48          6           0       -4.667943   -3.937794   -1.152040
     49          6           0       -4.997168   -2.827054   -0.400699
     50          6           0       -4.245016   -1.486920   -0.398073
     51          6           0       -6.189002   -2.909746    0.498993
     52          6           0       -7.552258   -2.724372   -0.238881
     53          6           0       -8.704083   -3.278313    0.668218
     54          6           0      -10.027375   -2.567627    0.269634
     55          6           0      -11.079667   -3.536350   -0.182605
     56          6           0      -10.578633   -1.832549    1.467674
     57          6           0      -10.780925   -0.362218    1.270490
     58          6           0      -10.405709    0.474679    2.518821
     59          6           0       -9.534364    1.734614    2.093200
     60          6           0       -8.699292    2.105117    3.231258
     61          6           0      -10.581419    2.871404    1.630792
     62          6           0       -9.935674    3.651915    0.501525
     63          6           0       -9.782871    5.104912    0.829741
     64          6           0       -8.958000    5.935416   -0.304059
     65          6           0       -7.931255    6.866062    0.338899
     66          6           0       -9.935956    6.808769   -1.164244
     67          1           0        2.099777    0.914417   -3.887177
     68          1           0        5.629090    5.057732   -0.472228
     69          1           0        6.716960    0.404826    3.927076
     70          1           0        2.581965   -3.400464   -2.188945
     71          1           0        0.847705   -1.395004   -2.887742
     72          1           0        3.460441   -1.789072   -4.442714
     73          1           0        1.845977   -1.809887   -5.097149
     74          1           0        2.461992   -3.186312   -4.238189
     75          1           0        0.022011   -2.050080   -1.271207
     76          1           0        0.967140   -2.671743    0.063106
     77          1           0       -0.058899   -4.556889   -0.262431
     78          1           0        0.844275   -4.902124   -1.727492
     79          1           0        2.183472    4.382808   -4.828256
     80          1           0        1.939136    2.710306   -4.837764
     81          1           0        3.400195    3.198777   -5.611173
     82          1           0        6.056253    6.259587   -2.352218
     83          1           0        4.834949    7.043633   -1.320197
     84          1           0        5.145483    7.768544   -2.882094
     85          1           0        5.727190    4.738743    2.096386
     86          1           0        7.867259    2.958386    3.047073
     87          1           0        7.782823    5.187136    0.373511
     88          1           0        8.667085    4.635982    1.910184
     89          1           0        7.561773    5.872687    2.028707
     90          1           0        5.246393    2.690649    4.529158
     91          1           0        5.714906    4.410520    4.330152
     92          1           0        7.946548    3.139331    5.219151
     93          1           0        6.698186    2.510591    6.332353
     94          1           0        6.900426    4.277833    6.135336
     95          1           0        7.283689   -1.717491    4.664883
     96          1           0        6.627769   -3.339287    4.354954
     97          1           0        5.622034   -2.164157    5.146349
     98          1           0        2.529101   -4.113437    0.902962
     99          1           0        4.550510   -7.663253   -0.449610
    100          1           0        3.926728   -6.987454   -2.023519
    101          1           0        2.841194   -7.914698   -0.914639
    102          1           0       -3.794589   -5.305909   -2.567424
    103          1           0       -3.560462   -3.633701   -2.867808
    104          1           0       -5.393649   -4.726541   -0.955458
    105          1           0       -4.193123   -1.024591    0.587314
    106          1           0       -4.717098   -0.826018   -1.126315
    107          1           0       -3.222537   -1.583808   -0.760629
    108          1           0       -6.013131   -2.250458    1.349002
    109          1           0       -6.317188   -3.910683    0.912781
    110          1           0       -7.422778   -3.312830   -1.147040
    111          1           0       -7.713895   -1.693808   -0.553276
    112          1           0       -8.470226   -3.088472    1.715577
    113          1           0       -8.829120   -4.358132    0.594422
    114          1           0       -9.779942   -1.970737   -0.608715
    115          1           0      -10.949240   -3.694454   -1.253535
    116          1           0      -12.101249   -3.197184   -0.010255
    117          1           0      -10.964060   -4.542056    0.222146
    118          1           0      -10.014420   -1.949828    2.392651
    119          1           0      -11.567524   -2.219026    1.718051
    120          1           0      -11.861104   -0.264350    1.166921
    121          1           0      -10.400228    0.041367    0.331686
    122          1           0       -9.802267   -0.190225    3.136458
    123          1           0      -11.266220    0.738916    3.132721
    124          1           0       -8.929177    1.451885    1.231978
    125          1           0       -8.396563    3.135283    3.045975
    126          1           0       -7.791128    1.523654    3.388687
    127          1           0       -9.219206    2.109299    4.189567
    128          1           0      -11.010608    3.447836    2.450724
    129          1           0      -11.371346    2.282843    1.162633
    130          1           0      -10.522444    3.619495   -0.416281
    131          1           0       -8.944286    3.279078    0.240251
    132          1           0       -9.188017    5.228757    1.734237
    133          1           0      -10.812885    5.429400    0.981126
    134          1           0       -8.379138    5.213295   -0.881129
    135          1           0       -7.076615    6.240985    0.597376
    136          1           0       -8.259371    7.326905    1.270277
    137          1           0       -7.545551    7.632642   -0.333306
    138          1           0       -9.492053    7.016877   -2.137195
    139          1           0      -10.151353    7.792845   -0.750033
    140          1           0      -10.911029    6.322723   -1.205944
 ---------------------------------------------------------------------

 SCF Done:  E(RPBE1PBE) =  -3005.34623757     A.U. after   15 cycles

 Excitation energies and oscillator strengths:

 Excited State   1:      Singlet-A      1.8622 eV  665.80 nm  f=0.3843  <S**2>=0.000
     245 -> 248        0.17434
     246 -> 247        0.69365
     246 <- 247       -0.11161
 This state for optimization and/or second-order correction.
 Total Energy, E(TD-HF/TD-DFT) =  -3005.27780313
 Copying the excited state density for this state as the 1-particle RhoCI density.

 Excited State   2:      Singlet-A      2.2338 eV  555.04 nm  f=0.0977  <S**2>=0.000
     245 -> 247        0.64982
     246 -> 248       -0.26547

 Excited State   3:      Singlet-A      3.0580 eV  405.44 nm  f=0.0002  <S**2>=0.000
     240 -> 247        0.13978
     243 -> 247        0.67996

 Excited State   4:      Singlet-A      3.1733 eV  390.71 nm  f=0.0080  <S**2>=0.000
     240 -> 247        0.58268
     240 -> 249        0.13207
     242 -> 247        0.27373
     243 -> 247       -0.13518
     246 -> 248        0.18274

 Excited State   5:      Singlet-A      3.2006 eV  387.38 nm  f=0.0004  <S**2>=0.000
     240 -> 247       -0.16289
     241 -> 247        0.53128
     241 -> 249       -0.12397
     242 -> 247        0.38573

 The electronic state is 1-A.
 Alpha  occ. eigenvalues --  -46.92543 -19.25269 -19.25091 -19.19836 -19.19715
 Alpha  occ. eigenvalues --  -19.19622 -19.19429 -14.42323 -14.41714 -14.39465
 Alpha  occ. eigenvalues --  -14.38217 -10.35897 -10.35560 -10.32873 -10.32137
 Alpha  occ. eigenvalues --  -10.29976 -10.29209 -10.29207 -10.29176 -10.28995
 Alpha  occ. eigenvalues --  -10.28977 -10.28762 -10.27751 -10.26166 -10.26037
 Alpha  occ. eigenvalues --  -10.25830 -10.25700 -10.25586 -10.25539 -10.25506
 Alpha  occ. eigenvalues --  -10.25431 -10.25385 -10.25215 -10.25196 -10.25029
 Alpha  occ. eigenvalues --  -10.24876 -10.24792 -10.24566 -10.24543 -10.24363
 Alpha  occ. eigenvalues --  -10.24253 -10.24105 -10.23962 -10.23758 -10.23613
 Alpha  occ. eigenvalues --  -10.23442 -10.23385 -10.23240 -10.23178 -10.23157
 Alpha  occ. eigenvalues --  -10.23140 -10.23041 -10.22670 -10.22610 -10.22441
 Alpha  occ. eigenvalues --  -10.22400 -10.22112 -10.22094 -10.21941 -10.21745
 Alpha  occ. eigenvalues --  -10.21722 -10.21495 -10.21441 -10.21370 -10.21294
 Alpha  occ. eigenvalues --  -10.21269  -3.14593  -1.87443  -1.86973  -1.86806
 Alpha  occ. eigenvalues --   -1.10407  -1.09652  -1.06657  -1.06377  -1.02501
 Alpha  occ. eigenvalues --   -1.01608  -1.00245  -0.99105  -0.97937  -0.96875
 Alpha  occ. eigenvalues --   -0.87628  -0.85007  -0.84777  -0.83939  -0.83578
 Alpha  occ. eigenvalues --   -0.83140  -0.82865  -0.81785  -0.81263  -0.81153
 Alpha  occ. eigenvalues --   -0.80713  -0.80102  -0.78580  -0.78478  -0.77863
 Alpha  occ. eigenvalues --   -0.77052  -0.76314  -0.75801  -0.75031  -0.74884
 Alpha  occ. eigenvalues --   -0.74505  -0.72391  -0.71907  -0.71618  -0.70733
 Alpha  occ. eigenvalues --   -0.70083  -0.69782  -0.69152  -0.69102  -0.67854
 Alpha  occ. eigenvalues --   -0.67568  -0.67071  -0.66444  -0.64986  -0.63563
 Alpha  occ. eigenvalues --   -0.63392  -0.62105  -0.61443  -0.60800  -0.60304
 Alpha  occ. eigenvalues --   -0.59916  -0.59552  -0.59314  -0.59131  -0.58676
 Alpha  occ. eigenvalues --   -0.58253  -0.57863  -0.56840  -0.55974  -0.54749
 Alpha  occ. eigenvalues --   -0.54573  -0.54095  -0.53469  -0.53100  -0.52930
 Alpha  occ. eigenvalues --   -0.52422  -0.51842  -0.51102  -0.50347  -0.50248
 Alpha  occ. eigenvalues --   -0.49840  -0.49188  -0.49051  -0.48711  -0.48535
 Alpha  occ. eigenvalues --   -0.48436  -0.48243  -0.47678  -0.47334  -0.47211
 Alpha  occ. eigenvalues --   -0.47022  -0.46733  -0.46720  -0.46497  -0.46429
 Alpha  occ. eigenvalues --   -0.46371  -0.46122  -0.46045  -0.45450  -0.45244
 Alpha  occ. eigenvalues --   -0.44976  -0.44829  -0.44621  -0.44435  -0.44274
 Alpha  occ. eigenvalues --   -0.44032  -0.43823  -0.43649  -0.43619  -0.43451
 Alpha  occ. eigenvalues --   -0.43229  -0.42987  -0.42650  -0.42588  -0.42365
 Alpha  occ. eigenvalues --   -0.42232  -0.41951  -0.41699  -0.41544  -0.41181
 Alpha  occ. eigenvalues --   -0.41005  -0.40900  -0.40793  -0.40478  -0.40385
 Alpha  occ. eigenvalues --   -0.40219  -0.40159  -0.40134  -0.40075  -0.39765
 Alpha  occ. eigenvalues --   -0.39680  -0.39627  -0.39140  -0.38983  -0.38905
 Alpha  occ. eigenvalues --   -0.38735  -0.38524  -0.38242  -0.38144  -0.37941
 Alpha  occ. eigenvalues --   -0.37857  -0.37799  -0.37490  -0.37156  -0.37061
 Alpha  occ. eigenvalues --   -0.36990  -0.36458  -0.36150  -0.36128  -0.36024
 Alpha  occ. eigenvalues --   -0.35751  -0.35606  -0.35552  -0.35343  -0.35124
 Alpha  occ. eigenvalues --   -0.35029  -0.34726  -0.34415  -0.34204  -0.33774
 Alpha  occ. eigenvalues --   -0.33312  -0.33222  -0.32887  -0.32506  -0.32289
 Alpha  occ. eigenvalues --   -0.32132  -0.32064  -0.31807  -0.31610  -0.31499
 Alpha  occ. eigenvalues --   -0.31401  -0.30777  -0.29855  -0.29688  -0.28990
 Alpha  occ. eigenvalues --   -0.28749  -0.28521  -0.27941  -0.26970  -0.26279
 Alpha  occ. eigenvalues --   -0.25906  -0.25801  -0.25368  -0.24662  -0.21058
 Alpha  occ. eigenvalues --   -0.18759
 Alpha virt. eigenvalues --   -0.11197  -0.05207  -0.03677  -0.01944  -0.00882
 Alpha virt. eigenvalues --   -0.00202   0.00326   0.00756   0.01499   0.02759
 Alpha virt. eigenvalues --    0.03937   0.04606   0.05086   0.05460   0.05696

 Mulliken charges:
               1
     1  Mg   0.979121
     2  C   -0.093064
     3  C   -0.053487
     4  C   -0.061888
     5  C   -0.057931
     6  N   -0.408286
     7  C    0.046192
     8  C   -0.084153
     9  C   -0.117018
    10  C    0.076700
    11  C    0.008590
    12  C    0.002037
    13  C    0.031607
    14  C    0.185817
    15  O   -0.255294
    16  O   -0.378878
    17  N   -0.479871
    18  C    0.157126
    19  C   -0.192638
    20  C   -0.074474
    21  C    0.149751
    22  C    0.066804
    23  C    0.049770
    24  O   -0.203213
    25  C   -0.041967
    26  N   -0.406678
    27  C    0.085484
    28  C   -0.133884
    29  C   -0.081243
    30  C    0.066399
    31  C    0.021842
    32  C   -0.023137
    33  C   -0.068816
    34  N   -0.412479
    35  C    0.103418
    36  C   -0.176791
    37  C   -0.058071
    38  C    0.195681
    39  C    0.047895
    40  C    0.131405
    41  O   -0.183790
    42  C   -0.075212
    43  C    0.289693
    44  O   -0.253872
    45  O   -0.409208
    46  C    0.123888
    47  C    0.290533
    48  C   -0.165352
    49  C   -0.212766
    50  C    0.019696
    51  C   -0.013517
    52  C   -0.052908
    53  C    0.018984
    54  C   -0.225158
    55  C   -0.004083
    56  C    0.031673
    57  C   -0.051609
    58  C   -0.030969
    59  C   -0.233861
    60  C    0.027252
    61  C    0.022509
    62  C   -0.052193
    63  C   -0.042065
    64  C   -0.212425
    65  C   -0.028988
    66  C   -0.022088
    67  H    0.005983
    68  H   -0.021016
    69  H   -0.005234
    70  H    0.051805
    71  H    0.049757
    72  H    0.044775
    73  H    0.047415
    74  H    0.042317
    75  H    0.052500
    76  H    0.047075
    77  H    0.055874
    78  H    0.068449
    79  H    0.066341
    80  H    0.023317
    81  H    0.062601
    82  H    0.062209
    83  H    0.072683
    84  H    0.060693
    85  H    0.049011
    86  H    0.051136
    87  H    0.061363
    88  H    0.035984
    89  H    0.032162
    90  H    0.052677
    91  H    0.040398
    92  H    0.034962
    93  H    0.052924
    94  H    0.045383
    95  H    0.042503
    96  H    0.059595
    97  H    0.062644
    98  H    0.065005
    99  H    0.075605
   100  H    0.068604
   101  H    0.061608
   102  H    0.049659
   103  H    0.045441
   104  H    0.020922
   105  H    0.046535
   106  H    0.054457
   107  H    0.037347
   108  H    0.031527
   109  H    0.040766
   110  H    0.030292
   111  H    0.036359
   112  H    0.032563
   113  H    0.025788
   114  H    0.043156
   115  H    0.020030
   116  H    0.036589
   117  H    0.028348
   118  H    0.015634
   119  H    0.016815
   120  H    0.020962
   121  H    0.029689
   122  H    0.017351
   123  H    0.031841
   124  H    0.032491
   125  H    0.016747
   126  H    0.033270
   127  H    0.029434
   128  H    0.034768
   129  H    0.023359
   130  H    0.026870
   131  H    0.025775
   132  H    0.022791
   133  H    0.031151
   134  H    0.033738
   135  H    0.025403
   136  H    0.039726
   137  H    0.034598
   138  H    0.038349
   139  H    0.031833
   140  H    0.031978
 Sum of Mulliken charges =  -0.00000

 Dipole moment (field-independent basis, Debye):
    X=             -1.2957    Y=              2.5073    Z=              2.0916  Tot=              3.5129
 Quadrupole moment (field-independent basis, Debye-Ang):
   XX=           -378.4939   YY=           -410.1900   ZZ=           -409.8902
   XY=             33.9749   XZ=              8.5094   YZ=             32.4743

 Normal termination of Gaussian 16 at Wed May  4 05:45:10 2022.
