 Gaussian 16, Revision A.03,
 Gaussian 16:  ES64L-G16RevA.03 25-Dec-2016

 --------------------------------
 #p wB97XD/Def2SVP td=(nstates=5)
 --------------------------------

 -----------------------------------------------------
 step_1401_chromophore_23 TDDFT with wB97XD functional
 -----------------------------------------------------
 Symbolic Z-matrix:
 Charge =  0 Multiplicity = 1

                         Standard orientation:
 ---------------------------------------------------------------------
 Center     Atomic      Atomic             Coordinates (Angstroms)
 Number     Number       Type             X           Y           Z
 ---------------------------------------------------------------------
      1         12           0        4.925264    0.778631   -0.324818
      2          6           0        3.844818   -2.603381    0.277444
      3          6           0        2.816209    0.819916   -3.067842
      4          6           0        5.418255    3.987000   -0.447427
      5          6           0        6.284005    0.527416    2.931521
      6          7           0        3.457752   -0.615139   -1.127070
      7          6           0        3.206270   -1.917412   -0.769887
      8          6           0        2.138052   -2.523459   -1.715625
      9          6           0        1.918686   -1.591772   -2.833632
     10          6           0        2.762838   -0.365349   -2.334764
     11          6           0        2.437882   -2.097247   -4.228132
     12          6           0        0.773234   -2.793351   -1.002727
     13          6           0        0.202246   -4.164820   -1.245503
     14          6           0       -1.014931   -4.165755   -2.129394
     15          8           0       -0.962721   -4.201002   -3.330391
     16          8           0       -2.189252   -4.284611   -1.410385
     17          7           0        4.319849    2.238636   -1.746171
     18          6           0        3.568669    2.014746   -2.852279
     19          6           0        3.496980    3.327131   -3.539534
     20          6           0        4.139964    4.319315   -2.775019
     21          6           0        4.709388    3.540020   -1.630924
     22          6           0        2.739523    3.446502   -4.780595
     23          6           0        4.191822    5.825448   -3.106873
     24          8           0        3.588179    6.239220   -4.051753
     25          6           0        5.120802    6.818556   -2.347741
     26          7           0        5.838909    2.027836    1.053109
     27          6           0        5.919895    3.327825    0.726503
     28          6           0        6.549588    4.066231    1.851578
     29          6           0        6.783969    3.070547    2.989461
     30          6           0        6.227098    1.787953    2.300712
     31          6           0        7.741767    4.973012    1.441473
     32          6           0        6.075107    3.383069    4.379912
     33          6           0        6.955031    3.309679    5.637267
     34          7           0        5.278873   -0.733899    1.179816
     35          6           0        5.855277   -0.723836    2.411707
     36          6           0        5.892921   -1.969522    3.001037
     37          6           0        5.023074   -2.763600    2.237338
     38          6           0        4.724347   -1.963362    1.128556
     39          6           0        6.391547   -2.274938    4.381664
     40          6           0        4.447241   -4.064981    2.163812
     41          8           0        4.507135   -4.960631    2.953524
     42          6           0        3.613067   -4.026305    0.840428
     43          6           0        4.122475   -5.051111    0.008692
     44          8           0        5.227460   -5.034598   -0.502357
     45          8           0        3.143093   -6.016287   -0.269858
     46          6           0        3.699827   -7.247791   -0.989321
     47          6           0       -3.523453   -4.375446   -2.069698
     48          6           0       -4.667943   -3.937794   -1.152040
     49          6           0       -4.997168   -2.827054   -0.400699
     50          6           0       -4.245016   -1.486920   -0.398073
     51          6           0       -6.189002   -2.909746    0.498993
     52          6           0       -7.552258   -2.724372   -0.238881
     53          6           0       -8.704083   -3.278313    0.668218
     54          6           0      -10.027375   -2.567627    0.269634
     55          6           0      -11.079667   -3.536350   -0.182605
     56          6           0      -10.578633   -1.832549    1.467674
     57          6           0      -10.780925   -0.362218    1.270490
     58          6           0      -10.405709    0.474679    2.518821
     59          6           0       -9.534364    1.734614    2.093200
     60          6           0       -8.699292    2.105117    3.231258
     61          6           0      -10.581419    2.871404    1.630792
     62          6           0       -9.935674    3.651915    0.501525
     63          6           0       -9.782871    5.104912    0.829741
     64          6           0       -8.958000    5.935416   -0.304059
     65          6           0       -7.931255    6.866062    0.338899
     66          6           0       -9.935956    6.808769   -1.164244
     67          1           0        2.099777    0.914417   -3.887177
     68          1           0        5.629090    5.057732   -0.472228
     69          1           0        6.716960    0.404826    3.927076
     70          1           0        2.581965   -3.400464   -2.188945
     71          1           0        0.847705   -1.395004   -2.887742
     72          1           0        3.460441   -1.789072   -4.442714
     73          1           0        1.845977   -1.809887   -5.097149
     74          1           0        2.461992   -3.186312   -4.238189
     75          1           0        0.022011   -2.050080   -1.271207
     76          1           0        0.967140   -2.671743    0.063106
     77          1           0       -0.058899   -4.556889   -0.262431
     78          1           0        0.844275   -4.902124   -1.727492
     79          1           0        2.183472    4.382808   -4.828256
     80          1           0        1.939136    2.710306   -4.837764
     81          1           0        3.400195    3.198777   -5.611173
     82          1           0        6.056253    6.259587   -2.352218
     83          1           0        4.834949    7.043633   -1.320197
     84          1           0        5.145483    7.768544   -2.882094
     85          1           0        5.727190    4.738743    2.096386
     86          1           0        7.867259    2.958386    3.047073
     87          1           0        7.782823    5.187136    0.373511
     88          1           0        8.667085    4.635982    1.910184
     89          1           0        7.561773    5.872687    2.028707
     90          1           0        5.246393    2.690649    4.529158
     91          1           0        5.714906    4.410520    4.330152
     92          1           0        7.946548    3.139331    5.219151
     93          1           0        6.698186    2.510591    6.332353
     94          1           0        6.900426    4.277833    6.135336
     95          1           0        7.283689   -1.717491    4.664883
     96          1           0        6.627769   -3.339287    4.354954
     97          1           0        5.622034   -2.164157    5.146349
     98          1           0        2.529101   -4.113437    0.902962
     99          1           0        4.550510   -7.663253   -0.449610
    100          1           0        3.926728   -6.987454   -2.023519
    101          1           0        2.841194   -7.914698   -0.914639
    102          1           0       -3.794589   -5.305909   -2.567424
    103          1           0       -3.560462   -3.633701   -2.867808
    104          1           0       -5.393649   -4.726541   -0.955458
    105          1           0       -4.193123   -1.024591    0.587314
    106          1           0       -4.717098   -0.826018   -1.126315
    107          1           0       -3.222537   -1.583808   -0.760629
    108          1           0       -6.013131   -2.250458    1.349002
    109          1           0       -6.317188   -3.910683    0.912781
    110          1           0       -7.422778   -3.312830   -1.147040
    111          1           0       -7.713895   -1.693808   -0.553276
    112          1           0       -8.470226   -3.088472    1.715577
    113          1           0       -8.829120   -4.358132    0.594422
    114          1           0       -9.779942   -1.970737   -0.608715
    115          1           0      -10.949240   -3.694454   -1.253535
    116          1           0      -12.101249   -3.197184   -0.010255
    117          1           0      -10.964060   -4.542056    0.222146
    118          1           0      -10.014420   -1.949828    2.392651
    119          1           0      -11.567524   -2.219026    1.718051
    120          1           0      -11.861104   -0.264350    1.166921
    121          1           0      -10.400228    0.041367    0.331686
    122          1           0       -9.802267   -0.190225    3.136458
    123          1           0      -11.266220    0.738916    3.132721
    124          1           0       -8.929177    1.451885    1.231978
    125          1           0       -8.396563    3.135283    3.045975
    126          1           0       -7.791128    1.523654    3.388687
    127          1           0       -9.219206    2.109299    4.189567
    128          1           0      -11.010608    3.447836    2.450724
    129          1           0      -11.371346    2.282843    1.162633
    130          1           0      -10.522444    3.619495   -0.416281
    131          1           0       -8.944286    3.279078    0.240251
    132          1           0       -9.188017    5.228757    1.734237
    133          1           0      -10.812885    5.429400    0.981126
    134          1           0       -8.379138    5.213295   -0.881129
    135          1           0       -7.076615    6.240985    0.597376
    136          1           0       -8.259371    7.326905    1.270277
    137          1           0       -7.545551    7.632642   -0.333306
    138          1           0       -9.492053    7.016877   -2.137195
    139          1           0      -10.151353    7.792845   -0.750033
    140          1           0      -10.911029    6.322723   -1.205944
 ---------------------------------------------------------------------

 SCF Done:  E(RwB97XD) =  -3007.85192386     A.U. after   19 cycles

 Excitation energies and oscillator strengths:

 Excited State   1:      Singlet-A      1.6448 eV  753.82 nm  f=0.3957  <S**2>=0.000
     245 -> 248        0.18534
     246 -> 247        0.68420
     245 <- 248        0.11786
 This state for optimization and/or second-order correction.
 Total Energy, E(TD-HF/TD-DFT) =  -3007.79148036
 Copying the excited state density for this state as the 1-particle RhoCI density.

 Excited State   2:      Singlet-A      2.1669 eV  572.17 nm  f=0.0970  <S**2>=0.000
     245 -> 247        0.63558
     246 -> 248       -0.29654

 Excited State   3:      Singlet-A      3.4002 eV  364.64 nm  f=0.0152  <S**2>=0.000
     243 -> 247        0.66135
     246 -> 248        0.17802

 Excited State   4:      Singlet-A      3.5125 eV  352.98 nm  f=0.3369  <S**2>=0.000
     240 -> 247        0.10097
     242 -> 247        0.41722
     243 -> 247       -0.12616
     245 -> 247        0.19817
     246 -> 248        0.50004

 Excited State   5:      Singlet-A      3.6905 eV  335.96 nm  f=0.2915  <S**2>=0.000
     239 -> 247       -0.13846
     240 -> 247       -0.26233
     240 -> 249       -0.16354
     242 -> 247        0.48456
     243 -> 247        0.14840
     245 -> 247       -0.18241
     246 -> 248       -0.24594

 The electronic state is 1-A.
 Alpha  occ. eigenvalues --  -46.95492 -19.29844 -19.29647 -19.24511 -19.24460
 Alpha  occ. eigenvalues --  -19.24407 -19.24293 -14.47397 -14.46806 -14.44481
 Alpha  occ. eigenvalues --  -14.43114 -10.42671 -10.42417 -10.39730 -10.38985
 Alpha  occ. eigenvalues --  -10.36503 -10.35750 -10.35559 -10.35547 -10.35473
 Alpha  occ. eigenvalues --  -10.35195 -10.34940 -10.34201 -10.32402 -10.32346
 Alpha  occ. eigenvalues --  -10.32218 -10.32040 -10.31955 -10.31898 -10.31886
 Alpha  occ. eigenvalues --  -10.31708 -10.31662 -10.31641 -10.31434 -10.31352
 Alpha  occ. eigenvalues --  -10.31227 -10.31106 -10.30920 -10.30814 -10.30751
 Alpha  occ. eigenvalues --  -10.30657 -10.30571 -10.30490 -10.30038 -10.29986
 Alpha  occ. eigenvalues --  -10.29882 -10.29739 -10.29539 -10.29522 -10.29516
 Alpha  occ. eigenvalues --  -10.29502 -10.29443 -10.29007 -10.28927 -10.28870
 Alpha  occ. eigenvalues --  -10.28792 -10.28478 -10.28307 -10.28275 -10.28180
 Alpha  occ. eigenvalues --  -10.28102 -10.27933 -10.27801 -10.27792 -10.27722
 Alpha  occ. eigenvalues --  -10.27637  -3.21407  -1.95004  -1.94534  -1.94367
 Alpha  occ. eigenvalues --   -1.17777  -1.17093  -1.14163  -1.13809  -1.09834
 Alpha  occ. eigenvalues --   -1.09003  -1.07599  -1.06389  -1.05383  -1.04284
 Alpha  occ. eigenvalues --   -0.95210  -0.92649  -0.92371  -0.91603  -0.91131
 Alpha  occ. eigenvalues --   -0.90794  -0.90494  -0.89359  -0.88931  -0.88784
 Alpha  occ. eigenvalues --   -0.88365  -0.87739  -0.86212  -0.86103  -0.85504
 Alpha  occ. eigenvalues --   -0.84704  -0.84020  -0.83478  -0.82716  -0.82498
 Alpha  occ. eigenvalues --   -0.82157  -0.80008  -0.79516  -0.79298  -0.78374
 Alpha  occ. eigenvalues --   -0.77742  -0.77362  -0.76856  -0.76783  -0.75496
 Alpha  occ. eigenvalues --   -0.75098  -0.74661  -0.73970  -0.72590  -0.71082
 Alpha  occ. eigenvalues --   -0.70894  -0.69746  -0.69052  -0.68307  -0.67942
 Alpha  occ. eigenvalues --   -0.67400  -0.67020  -0.66961  -0.66571  -0.66319
 Alpha  occ. eigenvalues --   -0.65770  -0.65471  -0.64475  -0.63408  -0.62180
 Alpha  occ. eigenvalues --   -0.62005  -0.61532  -0.60807  -0.60599  -0.60427
 Alpha  occ. eigenvalues --   -0.59866  -0.59272  -0.58546  -0.57779  -0.57630
 Alpha  occ. eigenvalues --   -0.57200  -0.56624  -0.56458  -0.56122  -0.55991
 Alpha  occ. eigenvalues --   -0.55824  -0.55626  -0.55007  -0.54699  -0.54576
 Alpha  occ. eigenvalues --   -0.54404  -0.54199  -0.54111  -0.53944  -0.53778
 Alpha  occ. eigenvalues --   -0.53737  -0.53477  -0.53382  -0.52800  -0.52622
 Alpha  occ. eigenvalues --   -0.52326  -0.52172  -0.51970  -0.51792  -0.51600
 Alpha  occ. eigenvalues --   -0.51399  -0.51142  -0.50973  -0.50965  -0.50706
 Alpha  occ. eigenvalues --   -0.50488  -0.50283  -0.49892  -0.49837  -0.49602
 Alpha  occ. eigenvalues --   -0.49486  -0.49254  -0.49017  -0.48849  -0.48404
 Alpha  occ. eigenvalues --   -0.48160  -0.48115  -0.48035  -0.47697  -0.47592
 Alpha  occ. eigenvalues --   -0.47425  -0.47340  -0.47318  -0.47277  -0.46975
 Alpha  occ. eigenvalues --   -0.46923  -0.46757  -0.46326  -0.46143  -0.46107
 Alpha  occ. eigenvalues --   -0.45857  -0.45664  -0.45358  -0.45333  -0.45103
 Alpha  occ. eigenvalues --   -0.45073  -0.44934  -0.44611  -0.44221  -0.44102
 Alpha  occ. eigenvalues --   -0.44037  -0.43542  -0.43243  -0.43115  -0.42973
 Alpha  occ. eigenvalues --   -0.42728  -0.42720  -0.42651  -0.42359  -0.42184
 Alpha  occ. eigenvalues --   -0.42088  -0.41789  -0.41494  -0.41167  -0.40845
 Alpha  occ. eigenvalues --   -0.40366  -0.40204  -0.39947  -0.39394  -0.39278
 Alpha  occ. eigenvalues --   -0.39109  -0.39051  -0.38840  -0.38672  -0.38582
 Alpha  occ. eigenvalues --   -0.38388  -0.37691  -0.36679  -0.36670  -0.36132
 Alpha  occ. eigenvalues --   -0.35642  -0.35430  -0.34773  -0.33598  -0.33273
 Alpha  occ. eigenvalues --   -0.33084  -0.32430  -0.31878  -0.31363  -0.26073
 Alpha  occ. eigenvalues --   -0.22901
 Alpha virt. eigenvalues --   -0.07085   0.00194   0.02629   0.04609   0.05745
 Alpha virt. eigenvalues --    0.05787   0.07095   0.07463   0.08236   0.09122
 Alpha virt. eigenvalues --    0.10577   0.11478   0.11829   0.12149   0.12447

 Mulliken charges:
               1
     1  Mg   0.970280
     2  C   -0.104512
     3  C   -0.066554
     4  C   -0.072343
     5  C   -0.075557
     6  N   -0.376732
     7  C    0.017682
     8  C   -0.059918
     9  C   -0.093167
    10  C    0.067563
    11  C    0.018580
    12  C    0.016514
    13  C    0.046515
    14  C    0.171952
    15  O   -0.252040
    16  O   -0.377526
    17  N   -0.447075
    18  C    0.141449
    19  C   -0.176609
    20  C   -0.070575
    21  C    0.143527
    22  C    0.076950
    23  C    0.043965
    24  O   -0.199183
    25  C   -0.027471
    26  N   -0.369327
    27  C    0.073843
    28  C   -0.109905
    29  C   -0.052087
    30  C    0.051324
    31  C    0.034323
    32  C   -0.010575
    33  C   -0.051547
    34  N   -0.374115
    35  C    0.097489
    36  C   -0.177404
    37  C   -0.058478
    38  C    0.181412
    39  C    0.059896
    40  C    0.115602
    41  O   -0.173814
    42  C   -0.023469
    43  C    0.260134
    44  O   -0.248718
    45  O   -0.407864
    46  C    0.138793
    47  C    0.305425
    48  C   -0.173526
    49  C   -0.201918
    50  C    0.033471
    51  C    0.007974
    52  C   -0.034544
    53  C    0.030598
    54  C   -0.193942
    55  C    0.007923
    56  C    0.051021
    57  C   -0.039334
    58  C   -0.011619
    59  C   -0.199115
    60  C    0.038441
    61  C    0.032258
    62  C   -0.032306
    63  C   -0.025755
    64  C   -0.184699
    65  C   -0.017020
    66  C   -0.009886
    67  H   -0.000798
    68  H   -0.037634
    69  H   -0.012505
    70  H    0.035551
    71  H    0.040423
    72  H    0.038325
    73  H    0.042832
    74  H    0.036635
    75  H    0.044057
    76  H    0.038321
    77  H    0.051792
    78  H    0.062591
    79  H    0.063106
    80  H    0.017746
    81  H    0.058585
    82  H    0.054686
    83  H    0.069484
    84  H    0.059878
    85  H    0.036636
    86  H    0.037620
    87  H    0.055377
    88  H    0.030604
    89  H    0.026100
    90  H    0.044738
    91  H    0.031897
    92  H    0.026891
    93  H    0.047768
    94  H    0.040050
    95  H    0.037202
    96  H    0.054742
    97  H    0.057722
    98  H    0.053201
    99  H    0.071905
   100  H    0.065145
   101  H    0.058725
   102  H    0.047053
   103  H    0.039994
   104  H    0.015601
   105  H    0.041811
   106  H    0.048431
   107  H    0.030913
   108  H    0.024132
   109  H    0.030544
   110  H    0.019672
   111  H    0.026839
   112  H    0.021981
   113  H    0.017754
   114  H    0.029680
   115  H    0.014242
   116  H    0.029952
   117  H    0.021735
   118  H    0.004095
   119  H    0.007808
   120  H    0.012076
   121  H    0.018882
   122  H    0.005303
   123  H    0.024076
   124  H    0.019237
   125  H    0.007281
   126  H    0.028546
   127  H    0.023101
   128  H    0.028576
   129  H    0.012826
   130  H    0.018214
   131  H    0.013929
   132  H    0.010146
   133  H    0.022334
   134  H    0.024037
   135  H    0.018850
   136  H    0.033433
   137  H    0.029113
   138  H    0.032836
   139  H    0.025631
   140  H    0.025258
 Sum of Mulliken charges =  -0.00000

 Dipole moment (field-independent basis, Debye):
    X=             -1.2927    Y=              2.6138    Z=              1.9203  Tot=              3.4915
 Quadrupole moment (field-independent basis, Debye-Ang):
   XX=           -378.7706   YY=           -408.2588   ZZ=           -409.8042
   XY=             34.3491   XZ=              7.5233   YZ=             31.8268

 Normal termination of Gaussian 16 at Wed May  4 06:12:01 2022.
