 Gaussian 16, Revision A.03,
 Gaussian 16:  ES64L-G16RevA.03 25-Dec-2016

 --------------------
 #p ZINDO=(nstates=5)
 --------------------

 ------------------------------
 step_1401_chromophore_23 ZINDO
 ------------------------------
 Symbolic Z-matrix:
 Charge =  0 Multiplicity = 1

                         Standard orientation:
 ---------------------------------------------------------------------
 Center     Atomic      Atomic             Coordinates (Angstroms)
 Number     Number       Type             X           Y           Z
 ---------------------------------------------------------------------
      1         12           0        4.925264    0.778631   -0.324818
      2          6           0        3.844818   -2.603381    0.277444
      3          6           0        2.816209    0.819916   -3.067842
      4          6           0        5.418255    3.987000   -0.447427
      5          6           0        6.284005    0.527416    2.931521
      6          7           0        3.457752   -0.615139   -1.127070
      7          6           0        3.206270   -1.917412   -0.769887
      8          6           0        2.138052   -2.523459   -1.715625
      9          6           0        1.918686   -1.591772   -2.833632
     10          6           0        2.762838   -0.365349   -2.334764
     11          6           0        2.437882   -2.097247   -4.228132
     12          6           0        0.773234   -2.793351   -1.002727
     13          6           0        0.202246   -4.164820   -1.245503
     14          6           0       -1.014931   -4.165755   -2.129394
     15          8           0       -0.962721   -4.201002   -3.330391
     16          8           0       -2.189252   -4.284611   -1.410385
     17          7           0        4.319849    2.238636   -1.746171
     18          6           0        3.568669    2.014746   -2.852279
     19          6           0        3.496980    3.327131   -3.539534
     20          6           0        4.139964    4.319315   -2.775019
     21          6           0        4.709388    3.540020   -1.630924
     22          6           0        2.739523    3.446502   -4.780595
     23          6           0        4.191822    5.825448   -3.106873
     24          8           0        3.588179    6.239220   -4.051753
     25          6           0        5.120802    6.818556   -2.347741
     26          7           0        5.838909    2.027836    1.053109
     27          6           0        5.919895    3.327825    0.726503
     28          6           0        6.549588    4.066231    1.851578
     29          6           0        6.783969    3.070547    2.989461
     30          6           0        6.227098    1.787953    2.300712
     31          6           0        7.741767    4.973012    1.441473
     32          6           0        6.075107    3.383069    4.379912
     33          6           0        6.955031    3.309679    5.637267
     34          7           0        5.278873   -0.733899    1.179816
     35          6           0        5.855277   -0.723836    2.411707
     36          6           0        5.892921   -1.969522    3.001037
     37          6           0        5.023074   -2.763600    2.237338
     38          6           0        4.724347   -1.963362    1.128556
     39          6           0        6.391547   -2.274938    4.381664
     40          6           0        4.447241   -4.064981    2.163812
     41          8           0        4.507135   -4.960631    2.953524
     42          6           0        3.613067   -4.026305    0.840428
     43          6           0        4.122475   -5.051111    0.008692
     44          8           0        5.227460   -5.034598   -0.502357
     45          8           0        3.143093   -6.016287   -0.269858
     46          6           0        3.699827   -7.247791   -0.989321
     47          6           0       -3.523453   -4.375446   -2.069698
     48          6           0       -4.667943   -3.937794   -1.152040
     49          6           0       -4.997168   -2.827054   -0.400699
     50          6           0       -4.245016   -1.486920   -0.398073
     51          6           0       -6.189002   -2.909746    0.498993
     52          6           0       -7.552258   -2.724372   -0.238881
     53          6           0       -8.704083   -3.278313    0.668218
     54          6           0      -10.027375   -2.567627    0.269634
     55          6           0      -11.079667   -3.536350   -0.182605
     56          6           0      -10.578633   -1.832549    1.467674
     57          6           0      -10.780925   -0.362218    1.270490
     58          6           0      -10.405709    0.474679    2.518821
     59          6           0       -9.534364    1.734614    2.093200
     60          6           0       -8.699292    2.105117    3.231258
     61          6           0      -10.581419    2.871404    1.630792
     62          6           0       -9.935674    3.651915    0.501525
     63          6           0       -9.782871    5.104912    0.829741
     64          6           0       -8.958000    5.935416   -0.304059
     65          6           0       -7.931255    6.866062    0.338899
     66          6           0       -9.935956    6.808769   -1.164244
     67          1           0        2.099777    0.914417   -3.887177
     68          1           0        5.629090    5.057732   -0.472228
     69          1           0        6.716960    0.404826    3.927076
     70          1           0        2.581965   -3.400464   -2.188945
     71          1           0        0.847705   -1.395004   -2.887742
     72          1           0        3.460441   -1.789072   -4.442714
     73          1           0        1.845977   -1.809887   -5.097149
     74          1           0        2.461992   -3.186312   -4.238189
     75          1           0        0.022011   -2.050080   -1.271207
     76          1           0        0.967140   -2.671743    0.063106
     77          1           0       -0.058899   -4.556889   -0.262431
     78          1           0        0.844275   -4.902124   -1.727492
     79          1           0        2.183472    4.382808   -4.828256
     80          1           0        1.939136    2.710306   -4.837764
     81          1           0        3.400195    3.198777   -5.611173
     82          1           0        6.056253    6.259587   -2.352218
     83          1           0        4.834949    7.043633   -1.320197
     84          1           0        5.145483    7.768544   -2.882094
     85          1           0        5.727190    4.738743    2.096386
     86          1           0        7.867259    2.958386    3.047073
     87          1           0        7.782823    5.187136    0.373511
     88          1           0        8.667085    4.635982    1.910184
     89          1           0        7.561773    5.872687    2.028707
     90          1           0        5.246393    2.690649    4.529158
     91          1           0        5.714906    4.410520    4.330152
     92          1           0        7.946548    3.139331    5.219151
     93          1           0        6.698186    2.510591    6.332353
     94          1           0        6.900426    4.277833    6.135336
     95          1           0        7.283689   -1.717491    4.664883
     96          1           0        6.627769   -3.339287    4.354954
     97          1           0        5.622034   -2.164157    5.146349
     98          1           0        2.529101   -4.113437    0.902962
     99          1           0        4.550510   -7.663253   -0.449610
    100          1           0        3.926728   -6.987454   -2.023519
    101          1           0        2.841194   -7.914698   -0.914639
    102          1           0       -3.794589   -5.305909   -2.567424
    103          1           0       -3.560462   -3.633701   -2.867808
    104          1           0       -5.393649   -4.726541   -0.955458
    105          1           0       -4.193123   -1.024591    0.587314
    106          1           0       -4.717098   -0.826018   -1.126315
    107          1           0       -3.222537   -1.583808   -0.760629
    108          1           0       -6.013131   -2.250458    1.349002
    109          1           0       -6.317188   -3.910683    0.912781
    110          1           0       -7.422778   -3.312830   -1.147040
    111          1           0       -7.713895   -1.693808   -0.553276
    112          1           0       -8.470226   -3.088472    1.715577
    113          1           0       -8.829120   -4.358132    0.594422
    114          1           0       -9.779942   -1.970737   -0.608715
    115          1           0      -10.949240   -3.694454   -1.253535
    116          1           0      -12.101249   -3.197184   -0.010255
    117          1           0      -10.964060   -4.542056    0.222146
    118          1           0      -10.014420   -1.949828    2.392651
    119          1           0      -11.567524   -2.219026    1.718051
    120          1           0      -11.861104   -0.264350    1.166921
    121          1           0      -10.400228    0.041367    0.331686
    122          1           0       -9.802267   -0.190225    3.136458
    123          1           0      -11.266220    0.738916    3.132721
    124          1           0       -8.929177    1.451885    1.231978
    125          1           0       -8.396563    3.135283    3.045975
    126          1           0       -7.791128    1.523654    3.388687
    127          1           0       -9.219206    2.109299    4.189567
    128          1           0      -11.010608    3.447836    2.450724
    129          1           0      -11.371346    2.282843    1.162633
    130          1           0      -10.522444    3.619495   -0.416281
    131          1           0       -8.944286    3.279078    0.240251
    132          1           0       -9.188017    5.228757    1.734237
    133          1           0      -10.812885    5.429400    0.981126
    134          1           0       -8.379138    5.213295   -0.881129
    135          1           0       -7.076615    6.240985    0.597376
    136          1           0       -8.259371    7.326905    1.270277
    137          1           0       -7.545551    7.632642   -0.333306
    138          1           0       -9.492053    7.016877   -2.137195
    139          1           0      -10.151353    7.792845   -0.750033
    140          1           0      -10.911029    6.322723   -1.205944
 ---------------------------------------------------------------------

 SCF Done:  E(RZINDO/S) =  -474.546237125     A.U. after   19 cycles

 Excitation energies and oscillator strengths:

 Excited State   1:      Singlet-A      1.2446 eV  996.17 nm  f=0.6234  <S**2>=0.000
     175 ->178         0.19029
     176 ->177         0.66347
 This state for optimization and/or second-order correction.
 Total Energy, E(CIS/TDA) =  -474.500498804
 Copying the excited state density for this state as the 1-particle RhoCI density.

 Excited State   2:      Singlet-A      1.9031 eV  651.49 nm  f=0.0293  <S**2>=0.000
     175 ->177         0.53623
     176 ->178        -0.43634

 Excited State   3:      Singlet-A      2.9963 eV  413.80 nm  f=0.6840  <S**2>=0.000
     172 ->177        -0.10868
     175 ->177         0.32909
     176 ->178         0.40630
     176 ->179        -0.38224
     176 ->180         0.13857

 Excited State   4:      Singlet-A      3.0062 eV  412.42 nm  f=0.3967  <S**2>=0.000
     169 ->177         0.17930
     169 ->179        -0.20446
     170 ->177         0.14844
     170 ->179        -0.15536
     170 ->180         0.12961
     175 ->177         0.20407
     176 ->178         0.28062
     176 ->179         0.37651

 Excited State   5:      Singlet-A      3.0647 eV  404.56 nm  f=0.1336  <S**2>=0.000
     168 ->177        -0.11485
     168 ->179        -0.20615
     168 ->180        -0.20024
     168 ->186         0.13490
     169 ->177         0.21260
     169 ->179        -0.17552
     169 ->180         0.17493
     170 ->177         0.12398
     170 ->179        -0.17082
     175 ->177        -0.11150
     176 ->178        -0.15075
     176 ->179        -0.29303

 The electronic state is 1-A.
 Alpha  occ. eigenvalues --   -1.86785  -1.82665  -1.80031  -1.73290  -1.71954
 Alpha  occ. eigenvalues --   -1.70091  -1.67253  -1.61999  -1.60701  -1.59367
 Alpha  occ. eigenvalues --   -1.55080  -1.52109  -1.50002  -1.49221  -1.47004
 Alpha  occ. eigenvalues --   -1.44726  -1.43642  -1.41216  -1.39404  -1.38530
 Alpha  occ. eigenvalues --   -1.36266  -1.34094  -1.33272  -1.31870  -1.29122
 Alpha  occ. eigenvalues --   -1.28521  -1.26826  -1.23267  -1.21786  -1.18051
 Alpha  occ. eigenvalues --   -1.17755  -1.15675  -1.15019  -1.14689  -1.13706
 Alpha  occ. eigenvalues --   -1.12436  -1.09695  -1.08700  -1.05528  -1.03302
 Alpha  occ. eigenvalues --   -1.02155  -1.01686  -0.99076  -0.98267  -0.96974
 Alpha  occ. eigenvalues --   -0.95651  -0.94263  -0.94021  -0.93265  -0.93125
 Alpha  occ. eigenvalues --   -0.91619  -0.91143  -0.89686  -0.89112  -0.86890
 Alpha  occ. eigenvalues --   -0.86459  -0.84844  -0.83379  -0.82081  -0.79720
 Alpha  occ. eigenvalues --   -0.79225  -0.78781  -0.77505  -0.77039  -0.76567
 Alpha  occ. eigenvalues --   -0.76274  -0.75859  -0.75025  -0.74454  -0.73857
 Alpha  occ. eigenvalues --   -0.72991  -0.72602  -0.72069  -0.71543  -0.71209
 Alpha  occ. eigenvalues --   -0.70858  -0.69963  -0.69550  -0.68369  -0.67788
 Alpha  occ. eigenvalues --   -0.67516  -0.67170  -0.66829  -0.65751  -0.65433
 Alpha  occ. eigenvalues --   -0.65146  -0.64708  -0.64231  -0.63760  -0.63401
 Alpha  occ. eigenvalues --   -0.62970  -0.62860  -0.62587  -0.62458  -0.62056
 Alpha  occ. eigenvalues --   -0.61386  -0.61020  -0.60805  -0.60265  -0.60106
 Alpha  occ. eigenvalues --   -0.59818  -0.59461  -0.59107  -0.58706  -0.58409
 Alpha  occ. eigenvalues --   -0.58047  -0.57363  -0.57219  -0.57074  -0.56008
 Alpha  occ. eigenvalues --   -0.55943  -0.55587  -0.55247  -0.54755  -0.54475
 Alpha  occ. eigenvalues --   -0.54249  -0.54039  -0.53598  -0.53059  -0.52477
 Alpha  occ. eigenvalues --   -0.52348  -0.52252  -0.52084  -0.51860  -0.51549
 Alpha  occ. eigenvalues --   -0.51062  -0.50878  -0.50806  -0.50601  -0.50232
 Alpha  occ. eigenvalues --   -0.50085  -0.50016  -0.49442  -0.49306  -0.49148
 Alpha  occ. eigenvalues --   -0.48938  -0.48382  -0.48160  -0.47935  -0.47869
 Alpha  occ. eigenvalues --   -0.47620  -0.47271  -0.47162  -0.46892  -0.46833
 Alpha  occ. eigenvalues --   -0.46523  -0.46382  -0.46212  -0.45844  -0.45688
 Alpha  occ. eigenvalues --   -0.45517  -0.45082  -0.44706  -0.44448  -0.43820
 Alpha  occ. eigenvalues --   -0.43681  -0.43339  -0.42519  -0.42297  -0.41941
 Alpha  occ. eigenvalues --   -0.41887  -0.41078  -0.40203  -0.38824  -0.38745
 Alpha  occ. eigenvalues --   -0.38207  -0.37195  -0.35773  -0.34780  -0.34666
 Alpha  occ. eigenvalues --   -0.33424  -0.32521  -0.32400  -0.31659  -0.26752
 Alpha  occ. eigenvalues --   -0.21661
 Alpha virt. eigenvalues --   -0.08502  -0.02157  -0.00369   0.01302   0.01817
 Alpha virt. eigenvalues --    0.02242   0.02830   0.02963   0.04031   0.04804
 Alpha virt. eigenvalues --    0.06405   0.06513   0.06889   0.07718   0.08335

 Mulliken charges:
               1
     1  Mg   0.427976
     2  C   -0.045784
     3  C   -0.073426
     4  C   -0.099670
     5  C   -0.072462
     6  N   -0.288627
     7  C    0.117189
     8  C    0.004826
     9  C    0.007065
    10  C    0.129180
    11  C   -0.052564
    12  C   -0.013634
    13  C    0.010409
    14  C    0.474658
    15  O   -0.517635
    16  O   -0.281509
    17  N   -0.309059
    18  C    0.110516
    19  C    0.056977
    20  C   -0.054605
    21  C    0.117673
    22  C   -0.038045
    23  C    0.328373
    24  O   -0.501170
    25  C   -0.030443
    26  N   -0.246639
    27  C    0.146778
    28  C    0.008133
    29  C   -0.003693
    30  C    0.105453
    31  C   -0.056637
    32  C   -0.030003
    33  C   -0.060649
    34  N   -0.338611
    35  C    0.100507
    36  C    0.022940
    37  C   -0.059450
    38  C    0.124844
    39  C   -0.043974
    40  C    0.347848
    41  O   -0.511976
    42  C    0.058712
    43  C    0.498236
    44  O   -0.525123
    45  O   -0.296425
    46  C    0.073557
    47  C    0.111266
    48  C   -0.103529
    49  C    0.005335
    50  C   -0.042095
    51  C   -0.022544
    52  C   -0.032564
    53  C   -0.038947
    54  C   -0.008443
    55  C   -0.054342
    56  C   -0.028216
    57  C   -0.041421
    58  C   -0.045625
    59  C   -0.012034
    60  C   -0.046629
    61  C   -0.037646
    62  C   -0.029897
    63  C   -0.040965
    64  C   -0.019033
    65  C   -0.054552
    66  C   -0.057130
    67  H    0.027511
    68  H    0.019140
    69  H    0.024449
    70  H    0.036387
    71  H    0.039368
    72  H    0.022581
    73  H    0.023368
    74  H    0.020251
    75  H    0.032882
    76  H    0.018696
    77  H    0.029588
    78  H    0.049091
    79  H    0.043040
    80  H    0.014822
    81  H    0.042337
    82  H    0.035659
    83  H    0.038296
    84  H    0.041748
    85  H    0.025471
    86  H    0.036660
    87  H    0.036227
    88  H    0.026166
    89  H    0.011823
    90  H    0.027306
    91  H    0.018921
    92  H    0.020123
    93  H    0.027084
    94  H    0.021138
    95  H    0.022297
    96  H    0.028390
    97  H    0.033569
    98  H    0.047989
    99  H    0.055736
   100  H    0.050308
   101  H    0.030660
   102  H    0.054554
   103  H    0.040431
   104  H    0.015471
   105  H    0.027352
   106  H    0.030014
   107  H    0.019177
   108  H    0.021422
   109  H    0.019803
   110  H    0.023402
   111  H    0.025293
   112  H    0.020687
   113  H    0.023309
   114  H    0.027986
   115  H    0.003400
   116  H    0.019271
   117  H    0.017672
   118  H    0.019548
   119  H    0.013236
   120  H    0.005109
   121  H    0.024554
   122  H    0.010609
   123  H    0.025229
   124  H    0.028171
   125  H    0.004924
   126  H    0.016256
   127  H    0.016953
   128  H    0.035314
   129  H    0.012549
   130  H    0.014247
   131  H    0.017405
   132  H    0.017584
   133  H    0.023923
   134  H    0.027762
   135  H    0.005208
   136  H    0.021173
   137  H    0.017182
   138  H    0.018930
   139  H    0.018360
   140  H    0.016419
 Sum of Mulliken charges =  -0.00000

 Dipole moment (field-independent basis, Debye):
    X=             -2.0199    Y=              4.9011    Z=              2.5126  Tot=              5.8664
 N-N= 4.333976101645D+03 E-N= 0.000000000000D+00  KE=-9.342220794833D+03
 Leave Link  601 at Wed May  4 06:24:44 2022, MaxMem=  6710886400 cpu:               0.8 elap:               0.1
 (Enter /sw/apps/gaussian-16.0/g16/l9999.exe)
 1\1\GINC-BP1-COMPUTE036\SP\RZINDO CIS\STO-3G\C55H74Mg1N4O6\OF15641\04-
 May-2022\0\\#p ZINDO=(nstates=5)\\step_1401_chromophore_23 ZINDO\\0,1\
 Mg,0,-9.168,41.518,42.478\C,0,-8.206,38.156,41.618\C,0,-6.432,42.619,4
 0.668\C,0,-10.419,44.506,42.72\C,0,-12.188,39.991,43.508\N,0,-7.69,40.
 533,41.219\C,0,-7.454,39.192,41.038\C,0,-6.216,38.996,40.126\C,0,-5.55
 3,40.298,39.949\C,0,-6.609,41.236,40.635\C,0,-4.152,40.428,40.649\C,0,
 -6.578,38.414,38.721\C,0,-5.73,37.247,38.291\C,0,-4.774,37.572,37.176\

 Normal termination of Gaussian 16 at Wed May  4 06:24:45 2022.
