 Gaussian 16, Revision A.03,
 Gaussian 16:  ES64L-G16RevA.03 25-Dec-2016

 ------------------------------
 #p blyp/Def2SVP td=(nstates=5)
 ------------------------------

 ---------------------------------------------------
 step_1101_chromophore_13 TDDFT with blyp functional
 ---------------------------------------------------
 Symbolic Z-matrix:
 Charge =  0 Multiplicity = 1

                         Standard orientation:
 ---------------------------------------------------------------------
 Center     Atomic      Atomic             Coordinates (Angstroms)
 Number     Number       Type             X           Y           Z
 ---------------------------------------------------------------------
      1         12           0       -6.015244    0.438567   -0.375570
      2          6           0       -3.599457   -2.168600   -0.320649
      3          6           0       -3.516014    2.682637   -0.059703
      4          6           0       -8.283324    2.757554    0.660983
      5          6           0       -8.581780   -2.050240   -0.337680
      6          7           0       -3.822074    0.243110   -0.155100
      7          6           0       -3.086722   -0.910299   -0.187523
      8          6           0       -1.557591   -0.654995   -0.070463
      9          6           0       -1.555466    0.972927   -0.000752
     10          6           0       -2.999128    1.351339   -0.044241
     11          6           0       -0.983244    1.545012    1.340081
     12          6           0       -0.648736   -1.342912   -1.108649
     13          6           0        0.495097   -2.117967   -0.573089
     14          6           0        1.974024   -1.693208   -0.957678
     15          8           0        2.405943   -0.611565   -1.338171
     16          8           0        2.894567   -2.697090   -0.666787
     17          7           0       -5.962475    2.442482    0.016425
     18          6           0       -4.839548    3.244157   -0.071377
     19          6           0       -5.146972    4.648575    0.007902
     20          6           0       -6.581335    4.629345    0.313067
     21          6           0       -7.011431    3.250296    0.325435
     22          6           0       -4.081029    5.761706    0.131490
     23          6           0       -7.401776    5.782432    0.529131
     24          8           0       -8.588700    5.737344    0.757471
     25          6           0       -6.848736    7.214533    0.422187
     26          7           0       -8.108924    0.354931    0.069974
     27          6           0       -8.804979    1.472003    0.470693
     28          6           0      -10.280472    1.162049    0.550758
     29          6           0      -10.408089   -0.378738    0.264028
     30          6           0       -8.981283   -0.742792   -0.039442
     31          6           0      -10.951303    1.713697    1.832098
     32          6           0      -11.339007   -0.648663   -0.984949
     33          6           0      -10.810870   -0.479971   -2.438708
     34          7           0       -6.131662   -1.676387   -0.422780
     35          6           0       -7.230889   -2.488175   -0.440809
     36          6           0       -6.811141   -3.872730   -0.553697
     37          6           0       -5.338634   -3.816580   -0.530539
     38          6           0       -5.009229   -2.446451   -0.442823
     39          6           0       -7.693476   -5.100403   -0.451530
     40          6           0       -4.090201   -4.545023   -0.493349
     41          8           0       -3.825629   -5.752061   -0.582377
     42          6           0       -2.937414   -3.438276   -0.310017
     43          6           0       -2.219843   -3.669730    1.024709
     44          8           0       -2.617064   -3.296744    2.127718
     45          8           0       -1.221514   -4.517118    0.775421
     46          6           0       -0.302876   -4.978170    1.892092
     47          6           0        4.274963   -2.455934   -1.102382
     48          6           0        4.975356   -1.465823   -0.047539
     49          6           0        6.340396   -1.355664    0.034099
     50          6           0        7.346502   -2.206873   -0.704076
     51          6           0        6.924079   -0.436909    1.113111
     52          6           0        7.309049    0.965683    0.635040
     53          6           0        8.891759    1.130607    0.664089
     54          6           0        9.566918    2.114603   -0.371262
     55          6           0        8.594739    3.342143   -0.496773
     56          6           0       10.054966    1.558058   -1.749041
     57          6           0       11.308342    2.348537   -2.286971
     58          6           0       12.491427    1.490134   -2.779555
     59          6           0       13.640850    1.354941   -1.736364
     60          6           0       15.064131    1.701339   -2.380993
     61          6           0       13.740221    0.152906   -0.855668
     62          6           0       14.192968    0.511884    0.552707
     63          6           0       12.938402    0.540262    1.559764
     64          6           0       12.923679   -0.598948    2.600099
     65          6           0       11.662165   -1.547486    2.605514
     66          6           0       13.247592   -0.076014    4.073942
     67          1           0       -2.697004    3.401500   -0.128143
     68          1           0       -9.049219    3.481596    0.947614
     69          1           0       -9.348179   -2.790014   -0.575993
     70          1           0       -1.126805   -0.973917    0.879271
     71          1           0       -0.899550    1.459026   -0.723493
     72          1           0       -0.165236    0.928294    1.711991
     73          1           0       -1.719869    1.586835    2.142156
     74          1           0       -0.484129    2.507968    1.227912
     75          1           0       -0.100541   -0.568394   -1.644921
     76          1           0       -1.100468   -1.965373   -1.880676
     77          1           0        0.339279   -3.166545   -0.828492
     78          1           0        0.531587   -2.170373    0.515906
     79          1           0       -4.343368    6.616830   -0.491336
     80          1           0       -3.096046    5.362843   -0.109319
     81          1           0       -3.984694    6.024993    1.183968
     82          1           0       -5.948666    7.205039    1.035363
     83          1           0       -7.572889    7.950995    0.771253
     84          1           0       -6.665099    7.467174   -0.622326
     85          1           0      -10.872212    1.722545   -0.173140
     86          1           0      -10.705824   -0.841340    1.205371
     87          1           0      -10.158829    1.806304    2.575364
     88          1           0      -11.815345    1.133347    2.158024
     89          1           0      -11.362451    2.721661    1.788063
     90          1           0      -12.149659    0.058120   -0.813466
     91          1           0      -11.809821   -1.631982   -1.000053
     92          1           0      -11.272375    0.428866   -2.825602
     93          1           0      -10.928577   -1.377046   -3.045854
     94          1           0       -9.732896   -0.338252   -2.359890
     95          1           0       -8.673370   -4.975971    0.008046
     96          1           0       -7.195914   -5.917032    0.071770
     97          1           0       -7.886164   -5.404871   -1.479960
     98          1           0       -2.255905   -3.678559   -1.126160
     99          1           0       -0.458283   -6.052658    1.989044
    100          1           0       -0.428572   -4.441509    2.832950
    101          1           0        0.742825   -4.860909    1.605992
    102          1           0        4.216890   -2.000844   -2.091730
    103          1           0        4.833615   -3.390767   -1.095689
    104          1           0        4.320991   -0.944282    0.651007
    105          1           0        8.388520   -2.057724   -0.424098
    106          1           0        7.124582   -1.967110   -1.743798
    107          1           0        7.039956   -3.243509   -0.561208
    108          1           0        7.717948   -1.027092    1.570550
    109          1           0        6.100265   -0.283597    1.810869
    110          1           0        7.011892    1.683451    1.399189
    111          1           0        6.809501    1.164473   -0.313679
    112          1           0        9.407844    0.170791    0.709031
    113          1           0        9.094516    1.480874    1.676147
    114          1           0       10.499087    2.405147    0.112160
    115          1           0        8.027880    3.190483   -1.415697
    116          1           0        9.268038    4.195753   -0.433209
    117          1           0        7.877766    3.489367    0.310627
    118          1           0        9.218279    1.725550   -2.428095
    119          1           0       10.244647    0.485776   -1.698335
    120          1           0       11.625702    2.996048   -1.469058
    121          1           0       11.108111    3.151709   -2.995922
    122          1           0       13.043616    1.958318   -3.594529
    123          1           0       12.213953    0.485233   -3.097425
    124          1           0       13.463719    2.188939   -1.057739
    125          1           0       14.917163    2.507347   -3.099643
    126          1           0       15.530060    0.764379   -2.686988
    127          1           0       15.716057    2.150482   -1.631934
    128          1           0       14.498033   -0.551361   -1.198535
    129          1           0       12.774893   -0.352528   -0.837953
    130          1           0       14.653686    1.496363    0.630147
    131          1           0       14.909069   -0.202678    0.957580
    132          1           0       11.968677    0.571598    1.064232
    133          1           0       12.992262    1.542944    1.985117
    134          1           0       13.816413   -1.212716    2.476112
    135          1           0       10.925399   -1.398413    3.395285
    136          1           0       11.912386   -2.607374    2.568338
    137          1           0       11.076655   -1.427620    1.693978
    138          1           0       12.394800   -0.274240    4.722893
    139          1           0       13.395807    1.004115    4.049980
    140          1           0       14.079848   -0.561052    4.583429
 ---------------------------------------------------------------------

 SCF Done:  E(RB-LYP) =  -3007.37522426     A.U. after   22 cycles

 Excitation energies and oscillator strengths:

 Excited State   1:      Singlet-A      1.5209 eV  815.21 nm  f=0.0021  <S**2>=0.000
     244 -> 247        0.63655
     245 -> 247       -0.29565
 This state for optimization and/or second-order correction.
 Total Energy, E(TD-HF/TD-DFT) =  -3007.31933241
 Copying the excited state density for this state as the 1-particle RhoCI density.

 Excited State   2:      Singlet-A      1.7624 eV  703.48 nm  f=0.2861  <S**2>=0.000
     243 -> 247       -0.10698
     245 -> 248        0.16652
     246 -> 247        0.68105
     246 <- 247       -0.15671

 Excited State   3:      Singlet-A      1.8040 eV  687.29 nm  f=0.0119  <S**2>=0.000
     243 -> 247        0.69550
     246 -> 247        0.10727

 Excited State   4:      Singlet-A      1.9585 eV  633.05 nm  f=0.1143  <S**2>=0.000
     244 -> 247        0.27818
     245 -> 247        0.59949
     246 -> 248       -0.19869

 Excited State   5:      Singlet-A      2.0147 eV  615.39 nm  f=0.0001  <S**2>=0.000
     242 -> 247        0.70705

 The electronic state is 1-A.
 Alpha  occ. eigenvalues --  -46.26943 -18.82836 -18.81607 -18.77542 -18.76377
 Alpha  occ. eigenvalues --  -18.75469 -18.74406 -14.03547 -14.03059 -14.01191
 Alpha  occ. eigenvalues --  -14.00720 -10.04809 -10.03948  -9.99626  -9.98535
 Alpha  occ. eigenvalues --   -9.98453  -9.98427  -9.97128  -9.96415  -9.96387
 Alpha  occ. eigenvalues --   -9.96333  -9.96159  -9.95889  -9.95442  -9.94665
 Alpha  occ. eigenvalues --   -9.94649  -9.94593  -9.94539  -9.94102  -9.94081
 Alpha  occ. eigenvalues --   -9.93973  -9.93840  -9.93424  -9.93389  -9.93358
 Alpha  occ. eigenvalues --   -9.92955  -9.92955  -9.92950  -9.92879  -9.92645
 Alpha  occ. eigenvalues --   -9.92613  -9.92571  -9.92522  -9.92435  -9.92339
 Alpha  occ. eigenvalues --   -9.92120  -9.91921  -9.91872  -9.91841  -9.91829
 Alpha  occ. eigenvalues --   -9.91684  -9.91622  -9.91514  -9.91431  -9.91425
 Alpha  occ. eigenvalues --   -9.91336  -9.91311  -9.91287  -9.91264  -9.91160
 Alpha  occ. eigenvalues --   -9.91093  -9.91077  -9.90981  -9.90975  -9.90734
 Alpha  occ. eigenvalues --   -9.90673  -2.91575  -1.71998  -1.71441  -1.71303
 Alpha  occ. eigenvalues --   -0.97902  -0.97595  -0.91627  -0.90072  -0.89375
 Alpha  occ. eigenvalues --   -0.89367  -0.86080  -0.85503  -0.85087  -0.84301
 Alpha  occ. eigenvalues --   -0.75989  -0.73288  -0.73076  -0.72740  -0.72089
 Alpha  occ. eigenvalues --   -0.71435  -0.71199  -0.70899  -0.70319  -0.70125
 Alpha  occ. eigenvalues --   -0.69249  -0.68928  -0.67736  -0.67385  -0.67009
 Alpha  occ. eigenvalues --   -0.66125  -0.65736  -0.65237  -0.64545  -0.63907
 Alpha  occ. eigenvalues --   -0.63618  -0.62763  -0.61981  -0.61948  -0.60916
 Alpha  occ. eigenvalues --   -0.60311  -0.60050  -0.59701  -0.59315  -0.59096
 Alpha  occ. eigenvalues --   -0.58107  -0.57635  -0.56563  -0.55605  -0.54726
 Alpha  occ. eigenvalues --   -0.54387  -0.53967  -0.53100  -0.52844  -0.51677
 Alpha  occ. eigenvalues --   -0.51598  -0.51142  -0.50577  -0.50338  -0.49852
 Alpha  occ. eigenvalues --   -0.48885  -0.48564  -0.48378  -0.47822  -0.46828
 Alpha  occ. eigenvalues --   -0.46335  -0.45728  -0.45665  -0.45205  -0.44801
 Alpha  occ. eigenvalues --   -0.44331  -0.43634  -0.42930  -0.42810  -0.42076
 Alpha  occ. eigenvalues --   -0.41679  -0.41499  -0.41279  -0.41147  -0.40940
 Alpha  occ. eigenvalues --   -0.40798  -0.40681  -0.40140  -0.39964  -0.39790
 Alpha  occ. eigenvalues --   -0.39666  -0.39610  -0.39350  -0.39050  -0.38967
 Alpha  occ. eigenvalues --   -0.38720  -0.38506  -0.38291  -0.38187  -0.37893
 Alpha  occ. eigenvalues --   -0.37735  -0.37645  -0.37466  -0.37348  -0.37171
 Alpha  occ. eigenvalues --   -0.36997  -0.36899  -0.36669  -0.36631  -0.36292
 Alpha  occ. eigenvalues --   -0.36118  -0.36021  -0.35832  -0.35673  -0.35568
 Alpha  occ. eigenvalues --   -0.35465  -0.35431  -0.34990  -0.34696  -0.34538
 Alpha  occ. eigenvalues --   -0.34349  -0.34203  -0.34072  -0.34071  -0.33972
 Alpha  occ. eigenvalues --   -0.33698  -0.33560  -0.33430  -0.33208  -0.33103
 Alpha  occ. eigenvalues --   -0.32980  -0.32824  -0.32639  -0.32558  -0.32311
 Alpha  occ. eigenvalues --   -0.32239  -0.32014  -0.31787  -0.31657  -0.31208
 Alpha  occ. eigenvalues --   -0.31170  -0.31090  -0.30991  -0.30602  -0.30450
 Alpha  occ. eigenvalues --   -0.30327  -0.30304  -0.30170  -0.30139  -0.30080
 Alpha  occ. eigenvalues --   -0.29785  -0.29528  -0.29341  -0.29237  -0.29012
 Alpha  occ. eigenvalues --   -0.28803  -0.28347  -0.28135  -0.27738  -0.27713
 Alpha  occ. eigenvalues --   -0.27586  -0.27354  -0.26741  -0.26528  -0.26485
 Alpha  occ. eigenvalues --   -0.26297  -0.26182  -0.25688  -0.25570  -0.25283
 Alpha  occ. eigenvalues --   -0.25075  -0.24706  -0.23854  -0.23671  -0.23463
 Alpha  occ. eigenvalues --   -0.23307  -0.22471  -0.22037  -0.21645  -0.20692
 Alpha  occ. eigenvalues --   -0.19951  -0.19427  -0.18562  -0.17588  -0.17219
 Alpha  occ. eigenvalues --   -0.16077
 Alpha virt. eigenvalues --   -0.12023  -0.06762  -0.06125  -0.04689  -0.03342
 Alpha virt. eigenvalues --   -0.02643  -0.02420  -0.01744  -0.01479   0.00375
 Alpha virt. eigenvalues --    0.01243   0.01376   0.02073   0.02523   0.02634

 Mulliken charges:
               1
     1  Mg   0.709023
     2  C    0.115006
     3  C   -0.051706
     4  C   -0.052366
     5  C   -0.075075
     6  N   -0.216383
     7  C   -0.070989
     8  C    0.044920
     9  C   -0.006645
    10  C    0.036815
    11  C    0.089312
    12  C    0.160012
    13  C    0.041114
    14  C    0.092876
    15  O   -0.191621
    16  O   -0.290516
    17  N   -0.300531
    18  C    0.146179
    19  C   -0.148657
    20  C    0.084952
    21  C    0.124370
    22  C    0.169193
    23  C   -0.151755
    24  O   -0.157555
    25  C    0.129503
    26  N   -0.248053
    27  C    0.049340
    28  C   -0.017225
    29  C    0.124584
    30  C   -0.004019
    31  C    0.095528
    32  C    0.038223
    33  C    0.069777
    34  N   -0.239323
    35  C    0.123059
    36  C   -0.180397
    37  C    0.105129
    38  C    0.022443
    39  C    0.168908
    40  C   -0.066491
    41  O   -0.144575
    42  C    0.006129
    43  C    0.104515
    44  O   -0.185316
    45  O   -0.255175
    46  C    0.195299
    47  C    0.291913
    48  C   -0.091267
    49  C   -0.205143
    50  C    0.152292
    51  C    0.146218
    52  C    0.098804
    53  C    0.025373
    54  C   -0.091500
    55  C    0.110591
    56  C    0.136483
    57  C    0.074880
    58  C    0.146018
    59  C   -0.120827
    60  C    0.091237
    61  C    0.166174
    62  C    0.046316
    63  C    0.074459
    64  C   -0.062270
    65  C    0.091237
    66  C    0.073140
    67  H   -0.074181
    68  H   -0.047190
    69  H   -0.055109
    70  H   -0.015711
    71  H   -0.007419
    72  H   -0.018013
    73  H    0.004396
    74  H   -0.007596
    75  H   -0.022747
    76  H   -0.012638
    77  H    0.007654
    78  H    0.004742
    79  H    0.013642
    80  H   -0.016019
    81  H    0.021542
    82  H   -0.008605
    83  H   -0.014852
    84  H    0.008852
    85  H   -0.012681
    86  H   -0.020611
    87  H   -0.007339
    88  H   -0.010545
    89  H   -0.002451
    90  H   -0.023591
    91  H   -0.019481
    92  H    0.001774
    93  H    0.000058
    94  H    0.002034
    95  H   -0.010875
    96  H    0.013903
    97  H   -0.001651
    98  H   -0.005676
    99  H    0.032923
   100  H    0.032663
   101  H    0.023010
   102  H    0.012620
   103  H   -0.001815
   104  H   -0.024047
   105  H    0.002201
   106  H    0.005520
   107  H    0.003525
   108  H   -0.024896
   109  H   -0.047705
   110  H   -0.020933
   111  H   -0.012112
   112  H   -0.025945
   113  H   -0.037806
   114  H   -0.030742
   115  H   -0.007430
   116  H   -0.013901
   117  H   -0.013342
   118  H   -0.033388
   119  H   -0.030482
   120  H   -0.045497
   121  H   -0.036407
   122  H   -0.057206
   123  H   -0.033114
   124  H   -0.045216
   125  H   -0.012710
   126  H   -0.006455
   127  H   -0.023470
   128  H   -0.045260
   129  H   -0.037820
   130  H   -0.025442
   131  H   -0.034240
   132  H   -0.022198
   133  H   -0.037622
   134  H   -0.025953
   135  H   -0.008058
   136  H   -0.017958
   137  H   -0.028251
   138  H   -0.025755
   139  H   -0.017623
   140  H   -0.011245
 Sum of Mulliken charges =  -0.00000

 Dipole moment (field-independent basis, Debye):
    X=              2.8433    Y=              1.1187    Z=             -0.8774  Tot=              3.1789
 Quadrupole moment (field-independent basis, Debye-Ang):
   XX=           -377.0183   YY=           -420.9497   ZZ=           -409.0474
   XY=              4.6794   XZ=             16.2858   YZ=             -3.6236

 Normal termination of Gaussian 16 at Wed Apr 27 07:01:55 2022.
