 Gaussian 16, Revision A.03,
 Gaussian 16:  ES64L-G16RevA.03 25-Dec-2016

 -----------------------------------
 #p cam-b3lyp/Def2SVP td=(nstates=5)
 -----------------------------------

 --------------------------------------------------------
 step_1101_chromophore_13 TDDFT with cam-b3lyp functional
 --------------------------------------------------------
 Symbolic Z-matrix:
 Charge =  0 Multiplicity = 1

                         Standard orientation:
 ---------------------------------------------------------------------
 Center     Atomic      Atomic             Coordinates (Angstroms)
 Number     Number       Type             X           Y           Z
 ---------------------------------------------------------------------
      1         12           0       -6.015244    0.438567   -0.375570
      2          6           0       -3.599457   -2.168600   -0.320649
      3          6           0       -3.516014    2.682637   -0.059703
      4          6           0       -8.283324    2.757554    0.660983
      5          6           0       -8.581780   -2.050240   -0.337680
      6          7           0       -3.822074    0.243110   -0.155100
      7          6           0       -3.086722   -0.910299   -0.187523
      8          6           0       -1.557591   -0.654995   -0.070463
      9          6           0       -1.555466    0.972927   -0.000752
     10          6           0       -2.999128    1.351339   -0.044241
     11          6           0       -0.983244    1.545012    1.340081
     12          6           0       -0.648736   -1.342912   -1.108649
     13          6           0        0.495097   -2.117967   -0.573089
     14          6           0        1.974024   -1.693208   -0.957678
     15          8           0        2.405943   -0.611565   -1.338171
     16          8           0        2.894567   -2.697090   -0.666787
     17          7           0       -5.962475    2.442482    0.016425
     18          6           0       -4.839548    3.244157   -0.071377
     19          6           0       -5.146972    4.648575    0.007902
     20          6           0       -6.581335    4.629345    0.313067
     21          6           0       -7.011431    3.250296    0.325435
     22          6           0       -4.081029    5.761706    0.131490
     23          6           0       -7.401776    5.782432    0.529131
     24          8           0       -8.588700    5.737344    0.757471
     25          6           0       -6.848736    7.214533    0.422187
     26          7           0       -8.108924    0.354931    0.069974
     27          6           0       -8.804979    1.472003    0.470693
     28          6           0      -10.280472    1.162049    0.550758
     29          6           0      -10.408089   -0.378738    0.264028
     30          6           0       -8.981283   -0.742792   -0.039442
     31          6           0      -10.951303    1.713697    1.832098
     32          6           0      -11.339007   -0.648663   -0.984949
     33          6           0      -10.810870   -0.479971   -2.438708
     34          7           0       -6.131662   -1.676387   -0.422780
     35          6           0       -7.230889   -2.488175   -0.440809
     36          6           0       -6.811141   -3.872730   -0.553697
     37          6           0       -5.338634   -3.816580   -0.530539
     38          6           0       -5.009229   -2.446451   -0.442823
     39          6           0       -7.693476   -5.100403   -0.451530
     40          6           0       -4.090201   -4.545023   -0.493349
     41          8           0       -3.825629   -5.752061   -0.582377
     42          6           0       -2.937414   -3.438276   -0.310017
     43          6           0       -2.219843   -3.669730    1.024709
     44          8           0       -2.617064   -3.296744    2.127718
     45          8           0       -1.221514   -4.517118    0.775421
     46          6           0       -0.302876   -4.978170    1.892092
     47          6           0        4.274963   -2.455934   -1.102382
     48          6           0        4.975356   -1.465823   -0.047539
     49          6           0        6.340396   -1.355664    0.034099
     50          6           0        7.346502   -2.206873   -0.704076
     51          6           0        6.924079   -0.436909    1.113111
     52          6           0        7.309049    0.965683    0.635040
     53          6           0        8.891759    1.130607    0.664089
     54          6           0        9.566918    2.114603   -0.371262
     55          6           0        8.594739    3.342143   -0.496773
     56          6           0       10.054966    1.558058   -1.749041
     57          6           0       11.308342    2.348537   -2.286971
     58          6           0       12.491427    1.490134   -2.779555
     59          6           0       13.640850    1.354941   -1.736364
     60          6           0       15.064131    1.701339   -2.380993
     61          6           0       13.740221    0.152906   -0.855668
     62          6           0       14.192968    0.511884    0.552707
     63          6           0       12.938402    0.540262    1.559764
     64          6           0       12.923679   -0.598948    2.600099
     65          6           0       11.662165   -1.547486    2.605514
     66          6           0       13.247592   -0.076014    4.073942
     67          1           0       -2.697004    3.401500   -0.128143
     68          1           0       -9.049219    3.481596    0.947614
     69          1           0       -9.348179   -2.790014   -0.575993
     70          1           0       -1.126805   -0.973917    0.879271
     71          1           0       -0.899550    1.459026   -0.723493
     72          1           0       -0.165236    0.928294    1.711991
     73          1           0       -1.719869    1.586835    2.142156
     74          1           0       -0.484129    2.507968    1.227912
     75          1           0       -0.100541   -0.568394   -1.644921
     76          1           0       -1.100468   -1.965373   -1.880676
     77          1           0        0.339279   -3.166545   -0.828492
     78          1           0        0.531587   -2.170373    0.515906
     79          1           0       -4.343368    6.616830   -0.491336
     80          1           0       -3.096046    5.362843   -0.109319
     81          1           0       -3.984694    6.024993    1.183968
     82          1           0       -5.948666    7.205039    1.035363
     83          1           0       -7.572889    7.950995    0.771253
     84          1           0       -6.665099    7.467174   -0.622326
     85          1           0      -10.872212    1.722545   -0.173140
     86          1           0      -10.705824   -0.841340    1.205371
     87          1           0      -10.158829    1.806304    2.575364
     88          1           0      -11.815345    1.133347    2.158024
     89          1           0      -11.362451    2.721661    1.788063
     90          1           0      -12.149659    0.058120   -0.813466
     91          1           0      -11.809821   -1.631982   -1.000053
     92          1           0      -11.272375    0.428866   -2.825602
     93          1           0      -10.928577   -1.377046   -3.045854
     94          1           0       -9.732896   -0.338252   -2.359890
     95          1           0       -8.673370   -4.975971    0.008046
     96          1           0       -7.195914   -5.917032    0.071770
     97          1           0       -7.886164   -5.404871   -1.479960
     98          1           0       -2.255905   -3.678559   -1.126160
     99          1           0       -0.458283   -6.052658    1.989044
    100          1           0       -0.428572   -4.441509    2.832950
    101          1           0        0.742825   -4.860909    1.605992
    102          1           0        4.216890   -2.000844   -2.091730
    103          1           0        4.833615   -3.390767   -1.095689
    104          1           0        4.320991   -0.944282    0.651007
    105          1           0        8.388520   -2.057724   -0.424098
    106          1           0        7.124582   -1.967110   -1.743798
    107          1           0        7.039956   -3.243509   -0.561208
    108          1           0        7.717948   -1.027092    1.570550
    109          1           0        6.100265   -0.283597    1.810869
    110          1           0        7.011892    1.683451    1.399189
    111          1           0        6.809501    1.164473   -0.313679
    112          1           0        9.407844    0.170791    0.709031
    113          1           0        9.094516    1.480874    1.676147
    114          1           0       10.499087    2.405147    0.112160
    115          1           0        8.027880    3.190483   -1.415697
    116          1           0        9.268038    4.195753   -0.433209
    117          1           0        7.877766    3.489367    0.310627
    118          1           0        9.218279    1.725550   -2.428095
    119          1           0       10.244647    0.485776   -1.698335
    120          1           0       11.625702    2.996048   -1.469058
    121          1           0       11.108111    3.151709   -2.995922
    122          1           0       13.043616    1.958318   -3.594529
    123          1           0       12.213953    0.485233   -3.097425
    124          1           0       13.463719    2.188939   -1.057739
    125          1           0       14.917163    2.507347   -3.099643
    126          1           0       15.530060    0.764379   -2.686988
    127          1           0       15.716057    2.150482   -1.631934
    128          1           0       14.498033   -0.551361   -1.198535
    129          1           0       12.774893   -0.352528   -0.837953
    130          1           0       14.653686    1.496363    0.630147
    131          1           0       14.909069   -0.202678    0.957580
    132          1           0       11.968677    0.571598    1.064232
    133          1           0       12.992262    1.542944    1.985117
    134          1           0       13.816413   -1.212716    2.476112
    135          1           0       10.925399   -1.398413    3.395285
    136          1           0       11.912386   -2.607374    2.568338
    137          1           0       11.076655   -1.427620    1.693978
    138          1           0       12.394800   -0.274240    4.722893
    139          1           0       13.395807    1.004115    4.049980
    140          1           0       14.079848   -0.561052    4.583429
 ---------------------------------------------------------------------

 SCF Done:  E(RCAM-B3LYP) =  -3007.15722141     A.U. after   18 cycles

 Excitation energies and oscillator strengths:

 Excited State   1:      Singlet-A      1.6469 eV  752.85 nm  f=0.3874  <S**2>=0.000
     245 -> 248       -0.17195
     246 -> 247        0.68826
     245 <- 248       -0.10787
 This state for optimization and/or second-order correction.
 Total Energy, E(TD-HF/TD-DFT) =  -3007.09670028
 Copying the excited state density for this state as the 1-particle RhoCI density.

 Excited State   2:      Singlet-A      2.1283 eV  582.55 nm  f=0.1794  <S**2>=0.000
     245 -> 247        0.66263
     246 -> 248        0.23281

 Excited State   3:      Singlet-A      3.1281 eV  396.35 nm  f=0.0075  <S**2>=0.000
     241 -> 247       -0.12665
     242 -> 247        0.14558
     244 -> 247        0.66754

 Excited State   4:      Singlet-A      3.2257 eV  384.36 nm  f=0.0002  <S**2>=0.000
     241 -> 247        0.19035
     241 -> 249        0.10915
     242 -> 247        0.57101
     242 -> 248       -0.11133
     242 -> 249        0.21437
     242 -> 250       -0.14508

 Excited State   5:      Singlet-A      3.3432 eV  370.86 nm  f=0.0079  <S**2>=0.000
     239 -> 247        0.12555
     240 -> 247        0.16004
     241 -> 247        0.60354
     242 -> 247       -0.19416
     244 -> 247        0.14313
     246 -> 248       -0.11560

 The electronic state is 1-A.
 Alpha  occ. eigenvalues --  -46.88455 -19.25815 -19.24445 -19.20576 -19.19412
 Alpha  occ. eigenvalues --  -19.18385 -19.17763 -14.42572 -14.41870 -14.39743
 Alpha  occ. eigenvalues --  -14.38933 -10.40234 -10.39377 -10.34861 -10.33702
 Alpha  occ. eigenvalues --  -10.32677 -10.32560 -10.31856 -10.30939 -10.30796
 Alpha  occ. eigenvalues --  -10.30777 -10.30607 -10.30528 -10.29729 -10.29354
 Alpha  occ. eigenvalues --  -10.28826 -10.28692 -10.28638 -10.28243 -10.28229
 Alpha  occ. eigenvalues --  -10.28054 -10.27813 -10.27792 -10.27692 -10.27229
 Alpha  occ. eigenvalues --  -10.27130 -10.27089 -10.26887 -10.26808 -10.26792
 Alpha  occ. eigenvalues --  -10.26610 -10.26381 -10.26235 -10.26215 -10.25931
 Alpha  occ. eigenvalues --  -10.25926 -10.25892 -10.25804 -10.25509 -10.25422
 Alpha  occ. eigenvalues --  -10.25390 -10.25352 -10.25333 -10.25248 -10.25195
 Alpha  occ. eigenvalues --  -10.25147 -10.25116 -10.25008 -10.24993 -10.24941
 Alpha  occ. eigenvalues --  -10.24880 -10.24760 -10.24625 -10.24604 -10.24373
 Alpha  occ. eigenvalues --  -10.24273  -3.16990  -1.91889  -1.91426  -1.91309
 Alpha  occ. eigenvalues --   -1.16424  -1.16077  -1.10230  -1.08204  -1.07299
 Alpha  occ. eigenvalues --   -1.07190  -1.03850  -1.03135  -1.02629  -1.01730
 Alpha  occ. eigenvalues --   -0.93082  -0.90173  -0.89918  -0.89555  -0.88820
 Alpha  occ. eigenvalues --   -0.88033  -0.87853  -0.87492  -0.87180  -0.86670
 Alpha  occ. eigenvalues --   -0.85715  -0.85194  -0.83975  -0.83439  -0.83128
 Alpha  occ. eigenvalues --   -0.82118  -0.81681  -0.81146  -0.80336  -0.79982
 Alpha  occ. eigenvalues --   -0.79373  -0.78739  -0.77549  -0.77432  -0.76339
 Alpha  occ. eigenvalues --   -0.75674  -0.75410  -0.74962  -0.74584  -0.74356
 Alpha  occ. eigenvalues --   -0.73173  -0.72609  -0.71472  -0.70468  -0.69318
 Alpha  occ. eigenvalues --   -0.69045  -0.68647  -0.67547  -0.67303  -0.65946
 Alpha  occ. eigenvalues --   -0.65814  -0.65090  -0.64665  -0.64163  -0.63887
 Alpha  occ. eigenvalues --   -0.62809  -0.62232  -0.62090  -0.61616  -0.60580
 Alpha  occ. eigenvalues --   -0.59884  -0.59260  -0.59143  -0.58636  -0.58314
 Alpha  occ. eigenvalues --   -0.57890  -0.56911  -0.55964  -0.55734  -0.55089
 Alpha  occ. eigenvalues --   -0.54914  -0.54728  -0.54401  -0.54067  -0.53775
 Alpha  occ. eigenvalues --   -0.53670  -0.53372  -0.52940  -0.52815  -0.52630
 Alpha  occ. eigenvalues --   -0.52411  -0.52237  -0.52124  -0.52043  -0.51405
 Alpha  occ. eigenvalues --   -0.51261  -0.50963  -0.50896  -0.50744  -0.50345
 Alpha  occ. eigenvalues --   -0.50268  -0.49860  -0.49722  -0.49594  -0.49356
 Alpha  occ. eigenvalues --   -0.49251  -0.49193  -0.48904  -0.48815  -0.48661
 Alpha  occ. eigenvalues --   -0.48421  -0.48286  -0.48200  -0.48063  -0.47895
 Alpha  occ. eigenvalues --   -0.47699  -0.47392  -0.47193  -0.46504  -0.46394
 Alpha  occ. eigenvalues --   -0.46123  -0.46053  -0.45986  -0.45911  -0.45834
 Alpha  occ. eigenvalues --   -0.45341  -0.45273  -0.45095  -0.45024  -0.44975
 Alpha  occ. eigenvalues --   -0.44601  -0.44577  -0.44236  -0.44126  -0.44052
 Alpha  occ. eigenvalues --   -0.43840  -0.43584  -0.43516  -0.43084  -0.43043
 Alpha  occ. eigenvalues --   -0.42865  -0.42609  -0.42320  -0.42193  -0.42120
 Alpha  occ. eigenvalues --   -0.41910  -0.41714  -0.41518  -0.41431  -0.41351
 Alpha  occ. eigenvalues --   -0.41210  -0.41145  -0.40887  -0.40302  -0.40110
 Alpha  occ. eigenvalues --   -0.39843  -0.39254  -0.39185  -0.38770  -0.38602
 Alpha  occ. eigenvalues --   -0.38496  -0.38281  -0.37855  -0.37558  -0.37251
 Alpha  occ. eigenvalues --   -0.37190  -0.36885  -0.36838  -0.36379  -0.36250
 Alpha  occ. eigenvalues --   -0.35720  -0.35294  -0.34798  -0.34506  -0.34270
 Alpha  occ. eigenvalues --   -0.34096  -0.33845  -0.32824  -0.31094  -0.30281
 Alpha  occ. eigenvalues --   -0.30221  -0.29925  -0.29063  -0.28861  -0.23904
 Alpha  occ. eigenvalues --   -0.21466
 Alpha virt. eigenvalues --   -0.09394  -0.01426   0.00221   0.02207   0.02438
 Alpha virt. eigenvalues --    0.04534   0.05060   0.05563   0.05900   0.06989
 Alpha virt. eigenvalues --    0.07392   0.08282   0.08407   0.08823   0.09051

 Mulliken charges:
               1
     1  Mg   0.839696
     2  C    0.077953
     3  C   -0.066750
     4  C   -0.069807
     5  C   -0.078166
     6  N   -0.286767
     7  C   -0.024093
     8  C    0.001093
     9  C   -0.060697
    10  C    0.054665
    11  C    0.032775
    12  C    0.092315
    13  C   -0.021685
    14  C    0.173542
    15  O   -0.233124
    16  O   -0.355167
    17  N   -0.390443
    18  C    0.155256
    19  C   -0.143233
    20  C    0.005489
    21  C    0.152820
    22  C    0.111299
    23  C   -0.074113
    24  O   -0.199323
    25  C    0.053889
    26  N   -0.319518
    27  C    0.073843
    28  C   -0.070957
    29  C    0.065034
    30  C    0.008848
    31  C    0.034990
    32  C   -0.015311
    33  C    0.010524
    34  N   -0.328401
    35  C    0.125053
    36  C   -0.171030
    37  C    0.021443
    38  C    0.062566
    39  C    0.112931
    40  C    0.035218
    41  O   -0.185865
    42  C   -0.068781
    43  C    0.189046
    44  O   -0.222960
    45  O   -0.319567
    46  C    0.161728
    47  C    0.261118
    48  C   -0.109886
    49  C   -0.220347
    50  C    0.086859
    51  C    0.086193
    52  C    0.039474
    53  C   -0.011171
    54  C   -0.140584
    55  C    0.048140
    56  C    0.083407
    57  C    0.020446
    58  C    0.086645
    59  C   -0.173931
    60  C    0.037344
    61  C    0.107722
    62  C   -0.007115
    63  C    0.031597
    64  C   -0.126818
    65  C    0.039101
    66  C    0.020043
    67  H   -0.039910
    68  H   -0.004974
    69  H   -0.019748
    70  H    0.017168
    71  H    0.027583
    72  H    0.007043
    73  H    0.030935
    74  H    0.016799
    75  H    0.014796
    76  H    0.020082
    77  H    0.042248
    78  H    0.033221
    79  H    0.040254
    80  H    0.013035
    81  H    0.048730
    82  H    0.017304
    83  H    0.021792
    84  H    0.036698
    85  H    0.021397
    86  H    0.015982
    87  H    0.018768
    88  H    0.015106
    89  H    0.021983
    90  H    0.003531
    91  H    0.008699
    92  H    0.024106
    93  H    0.023869
    94  H    0.024045
    95  H    0.013459
    96  H    0.039466
    97  H    0.023561
    98  H    0.035769
    99  H    0.056008
   100  H    0.057843
   101  H    0.043351
   102  H    0.041403
   103  H    0.025693
   104  H    0.008118
   105  H    0.025355
   106  H    0.029247
   107  H    0.027591
   108  H    0.002088
   109  H   -0.014956
   110  H    0.007698
   111  H    0.015537
   112  H   -0.009260
   113  H   -0.008836
   114  H   -0.002408
   115  H    0.015030
   116  H    0.010359
   117  H    0.011194
   118  H   -0.005263
   119  H   -0.004544
   120  H   -0.017180
   121  H   -0.006062
   122  H   -0.023482
   123  H   -0.004299
   124  H   -0.014852
   125  H    0.010793
   126  H    0.015956
   127  H    0.000247
   128  H   -0.014640
   129  H   -0.010751
   130  H    0.002056
   131  H   -0.004856
   132  H   -0.004782
   133  H   -0.009118
   134  H    0.005671
   135  H    0.014072
   136  H    0.007386
   137  H   -0.009592
   138  H   -0.002733
   139  H    0.005534
   140  H    0.012093
 Sum of Mulliken charges =  -0.00000

 Dipole moment (field-independent basis, Debye):
    X=              3.1018    Y=              2.1294    Z=             -0.7417  Tot=              3.8348
 Quadrupole moment (field-independent basis, Debye-Ang):
   XX=           -377.4173   YY=           -416.2375   ZZ=           -409.1203
   XY=             -0.9448   XZ=             16.6034   YZ=             -3.5641

 Normal termination of Gaussian 16 at Wed Apr 27 05:42:12 2022.
