 Gaussian 16, Revision A.03,
 Gaussian 16:  ES64L-G16RevA.03 25-Dec-2016

 ---------------------------------
 #p PBE1PBE/Def2SVP td=(nstates=5)
 ---------------------------------

 ------------------------------------------------------
 step_1101_chromophore_13 TDDFT with PBE1PBE functional
 ------------------------------------------------------
 Symbolic Z-matrix:
 Charge =  0 Multiplicity = 1

                         Standard orientation:
 ---------------------------------------------------------------------
 Center     Atomic      Atomic             Coordinates (Angstroms)
 Number     Number       Type             X           Y           Z
 ---------------------------------------------------------------------
      1         12           0       -6.015244    0.438567   -0.375570
      2          6           0       -3.599457   -2.168600   -0.320649
      3          6           0       -3.516014    2.682637   -0.059703
      4          6           0       -8.283324    2.757554    0.660983
      5          6           0       -8.581780   -2.050240   -0.337680
      6          7           0       -3.822074    0.243110   -0.155100
      7          6           0       -3.086722   -0.910299   -0.187523
      8          6           0       -1.557591   -0.654995   -0.070463
      9          6           0       -1.555466    0.972927   -0.000752
     10          6           0       -2.999128    1.351339   -0.044241
     11          6           0       -0.983244    1.545012    1.340081
     12          6           0       -0.648736   -1.342912   -1.108649
     13          6           0        0.495097   -2.117967   -0.573089
     14          6           0        1.974024   -1.693208   -0.957678
     15          8           0        2.405943   -0.611565   -1.338171
     16          8           0        2.894567   -2.697090   -0.666787
     17          7           0       -5.962475    2.442482    0.016425
     18          6           0       -4.839548    3.244157   -0.071377
     19          6           0       -5.146972    4.648575    0.007902
     20          6           0       -6.581335    4.629345    0.313067
     21          6           0       -7.011431    3.250296    0.325435
     22          6           0       -4.081029    5.761706    0.131490
     23          6           0       -7.401776    5.782432    0.529131
     24          8           0       -8.588700    5.737344    0.757471
     25          6           0       -6.848736    7.214533    0.422187
     26          7           0       -8.108924    0.354931    0.069974
     27          6           0       -8.804979    1.472003    0.470693
     28          6           0      -10.280472    1.162049    0.550758
     29          6           0      -10.408089   -0.378738    0.264028
     30          6           0       -8.981283   -0.742792   -0.039442
     31          6           0      -10.951303    1.713697    1.832098
     32          6           0      -11.339007   -0.648663   -0.984949
     33          6           0      -10.810870   -0.479971   -2.438708
     34          7           0       -6.131662   -1.676387   -0.422780
     35          6           0       -7.230889   -2.488175   -0.440809
     36          6           0       -6.811141   -3.872730   -0.553697
     37          6           0       -5.338634   -3.816580   -0.530539
     38          6           0       -5.009229   -2.446451   -0.442823
     39          6           0       -7.693476   -5.100403   -0.451530
     40          6           0       -4.090201   -4.545023   -0.493349
     41          8           0       -3.825629   -5.752061   -0.582377
     42          6           0       -2.937414   -3.438276   -0.310017
     43          6           0       -2.219843   -3.669730    1.024709
     44          8           0       -2.617064   -3.296744    2.127718
     45          8           0       -1.221514   -4.517118    0.775421
     46          6           0       -0.302876   -4.978170    1.892092
     47          6           0        4.274963   -2.455934   -1.102382
     48          6           0        4.975356   -1.465823   -0.047539
     49          6           0        6.340396   -1.355664    0.034099
     50          6           0        7.346502   -2.206873   -0.704076
     51          6           0        6.924079   -0.436909    1.113111
     52          6           0        7.309049    0.965683    0.635040
     53          6           0        8.891759    1.130607    0.664089
     54          6           0        9.566918    2.114603   -0.371262
     55          6           0        8.594739    3.342143   -0.496773
     56          6           0       10.054966    1.558058   -1.749041
     57          6           0       11.308342    2.348537   -2.286971
     58          6           0       12.491427    1.490134   -2.779555
     59          6           0       13.640850    1.354941   -1.736364
     60          6           0       15.064131    1.701339   -2.380993
     61          6           0       13.740221    0.152906   -0.855668
     62          6           0       14.192968    0.511884    0.552707
     63          6           0       12.938402    0.540262    1.559764
     64          6           0       12.923679   -0.598948    2.600099
     65          6           0       11.662165   -1.547486    2.605514
     66          6           0       13.247592   -0.076014    4.073942
     67          1           0       -2.697004    3.401500   -0.128143
     68          1           0       -9.049219    3.481596    0.947614
     69          1           0       -9.348179   -2.790014   -0.575993
     70          1           0       -1.126805   -0.973917    0.879271
     71          1           0       -0.899550    1.459026   -0.723493
     72          1           0       -0.165236    0.928294    1.711991
     73          1           0       -1.719869    1.586835    2.142156
     74          1           0       -0.484129    2.507968    1.227912
     75          1           0       -0.100541   -0.568394   -1.644921
     76          1           0       -1.100468   -1.965373   -1.880676
     77          1           0        0.339279   -3.166545   -0.828492
     78          1           0        0.531587   -2.170373    0.515906
     79          1           0       -4.343368    6.616830   -0.491336
     80          1           0       -3.096046    5.362843   -0.109319
     81          1           0       -3.984694    6.024993    1.183968
     82          1           0       -5.948666    7.205039    1.035363
     83          1           0       -7.572889    7.950995    0.771253
     84          1           0       -6.665099    7.467174   -0.622326
     85          1           0      -10.872212    1.722545   -0.173140
     86          1           0      -10.705824   -0.841340    1.205371
     87          1           0      -10.158829    1.806304    2.575364
     88          1           0      -11.815345    1.133347    2.158024
     89          1           0      -11.362451    2.721661    1.788063
     90          1           0      -12.149659    0.058120   -0.813466
     91          1           0      -11.809821   -1.631982   -1.000053
     92          1           0      -11.272375    0.428866   -2.825602
     93          1           0      -10.928577   -1.377046   -3.045854
     94          1           0       -9.732896   -0.338252   -2.359890
     95          1           0       -8.673370   -4.975971    0.008046
     96          1           0       -7.195914   -5.917032    0.071770
     97          1           0       -7.886164   -5.404871   -1.479960
     98          1           0       -2.255905   -3.678559   -1.126160
     99          1           0       -0.458283   -6.052658    1.989044
    100          1           0       -0.428572   -4.441509    2.832950
    101          1           0        0.742825   -4.860909    1.605992
    102          1           0        4.216890   -2.000844   -2.091730
    103          1           0        4.833615   -3.390767   -1.095689
    104          1           0        4.320991   -0.944282    0.651007
    105          1           0        8.388520   -2.057724   -0.424098
    106          1           0        7.124582   -1.967110   -1.743798
    107          1           0        7.039956   -3.243509   -0.561208
    108          1           0        7.717948   -1.027092    1.570550
    109          1           0        6.100265   -0.283597    1.810869
    110          1           0        7.011892    1.683451    1.399189
    111          1           0        6.809501    1.164473   -0.313679
    112          1           0        9.407844    0.170791    0.709031
    113          1           0        9.094516    1.480874    1.676147
    114          1           0       10.499087    2.405147    0.112160
    115          1           0        8.027880    3.190483   -1.415697
    116          1           0        9.268038    4.195753   -0.433209
    117          1           0        7.877766    3.489367    0.310627
    118          1           0        9.218279    1.725550   -2.428095
    119          1           0       10.244647    0.485776   -1.698335
    120          1           0       11.625702    2.996048   -1.469058
    121          1           0       11.108111    3.151709   -2.995922
    122          1           0       13.043616    1.958318   -3.594529
    123          1           0       12.213953    0.485233   -3.097425
    124          1           0       13.463719    2.188939   -1.057739
    125          1           0       14.917163    2.507347   -3.099643
    126          1           0       15.530060    0.764379   -2.686988
    127          1           0       15.716057    2.150482   -1.631934
    128          1           0       14.498033   -0.551361   -1.198535
    129          1           0       12.774893   -0.352528   -0.837953
    130          1           0       14.653686    1.496363    0.630147
    131          1           0       14.909069   -0.202678    0.957580
    132          1           0       11.968677    0.571598    1.064232
    133          1           0       12.992262    1.542944    1.985117
    134          1           0       13.816413   -1.212716    2.476112
    135          1           0       10.925399   -1.398413    3.395285
    136          1           0       11.912386   -2.607374    2.568338
    137          1           0       11.076655   -1.427620    1.693978
    138          1           0       12.394800   -0.274240    4.722893
    139          1           0       13.395807    1.004115    4.049980
    140          1           0       14.079848   -0.561052    4.583429
 ---------------------------------------------------------------------

 SCF Done:  E(RPBE1PBE) =  -3005.34653901     A.U. after   15 cycles

 Excitation energies and oscillator strengths:

 Excited State   1:      Singlet-A      1.8003 eV  688.68 nm  f=0.3671  <S**2>=0.000
     245 -> 248        0.16522
     246 -> 247        0.69601
     246 <- 247       -0.11591
 This state for optimization and/or second-order correction.
 Total Energy, E(TD-HF/TD-DFT) =  -3005.28037866
 Copying the excited state density for this state as the 1-particle RhoCI density.

 Excited State   2:      Singlet-A      2.1411 eV  579.07 nm  f=0.1629  <S**2>=0.000
     245 -> 247        0.66873
     246 -> 248       -0.21296

 Excited State   3:      Singlet-A      2.6276 eV  471.86 nm  f=0.0008  <S**2>=0.000
     243 -> 247        0.68137
     243 -> 249       -0.11554

 Excited State   4:      Singlet-A      2.7916 eV  444.14 nm  f=0.0066  <S**2>=0.000
     241 -> 247        0.20163
     242 -> 247        0.66153

 Excited State   5:      Singlet-A      2.8495 eV  435.11 nm  f=0.0015  <S**2>=0.000
     241 -> 247        0.65336
     241 -> 249        0.13772
     242 -> 247       -0.20273

 The electronic state is 1-A.
 Alpha  occ. eigenvalues --  -46.91876 -19.26474 -19.25193 -19.20896 -19.19678
 Alpha  occ. eigenvalues --  -19.18797 -19.17852 -14.42015 -14.41467 -14.39336
 Alpha  occ. eigenvalues --  -14.38714 -10.37339 -10.36418 -10.32156 -10.30669
 Alpha  occ. eigenvalues --  -10.30027 -10.29911 -10.29441 -10.28585 -10.28548
 Alpha  occ. eigenvalues --  -10.28520 -10.28304 -10.28019 -10.27294 -10.27186
 Alpha  occ. eigenvalues --  -10.26661 -10.26519 -10.26458 -10.26230 -10.25731
 Alpha  occ. eigenvalues --  -10.25678 -10.25384 -10.25354 -10.25337 -10.25047
 Alpha  occ. eigenvalues --  -10.24904 -10.24612 -10.24545 -10.24507 -10.24504
 Alpha  occ. eigenvalues --  -10.24329 -10.24088 -10.23687 -10.23646 -10.23609
 Alpha  occ. eigenvalues --  -10.23578 -10.23523 -10.23397 -10.23218 -10.23004
 Alpha  occ. eigenvalues --  -10.22949 -10.22908 -10.22893 -10.22757 -10.22729
 Alpha  occ. eigenvalues --  -10.22714 -10.22695 -10.22571 -10.22508 -10.22464
 Alpha  occ. eigenvalues --  -10.22353 -10.22322 -10.22054 -10.22019 -10.21791
 Alpha  occ. eigenvalues --  -10.21781  -3.13989  -1.86829  -1.86343  -1.86231
 Alpha  occ. eigenvalues --   -1.11211  -1.10919  -1.04842  -1.03088  -1.02124
 Alpha  occ. eigenvalues --   -1.02106  -0.98412  -0.97769  -0.97286  -0.96415
 Alpha  occ. eigenvalues --   -0.87514  -0.84370  -0.84013  -0.83677  -0.83093
 Alpha  occ. eigenvalues --   -0.82335  -0.81956  -0.81800  -0.81329  -0.80763
 Alpha  occ. eigenvalues --   -0.80022  -0.79603  -0.78126  -0.77772  -0.77420
 Alpha  occ. eigenvalues --   -0.76307  -0.75944  -0.75432  -0.74556  -0.74160
 Alpha  occ. eigenvalues --   -0.73532  -0.72873  -0.71848  -0.71791  -0.70686
 Alpha  occ. eigenvalues --   -0.69861  -0.69503  -0.69327  -0.68729  -0.68492
 Alpha  occ. eigenvalues --   -0.67536  -0.67047  -0.65860  -0.64766  -0.63655
 Alpha  occ. eigenvalues --   -0.63382  -0.62977  -0.62063  -0.61544  -0.60249
 Alpha  occ. eigenvalues --   -0.60126  -0.59673  -0.59227  -0.58690  -0.58041
 Alpha  occ. eigenvalues --   -0.56973  -0.56852  -0.56660  -0.55862  -0.55052
 Alpha  occ. eigenvalues --   -0.54414  -0.53776  -0.53605  -0.53251  -0.52776
 Alpha  occ. eigenvalues --   -0.52341  -0.51573  -0.50590  -0.50280  -0.49618
 Alpha  occ. eigenvalues --   -0.49382  -0.49231  -0.48975  -0.48614  -0.48361
 Alpha  occ. eigenvalues --   -0.48142  -0.47770  -0.47466  -0.47344  -0.47090
 Alpha  occ. eigenvalues --   -0.46880  -0.46789  -0.46638  -0.46532  -0.45899
 Alpha  occ. eigenvalues --   -0.45817  -0.45565  -0.45446  -0.45280  -0.44996
 Alpha  occ. eigenvalues --   -0.44689  -0.44430  -0.44339  -0.44167  -0.43901
 Alpha  occ. eigenvalues --   -0.43855  -0.43823  -0.43459  -0.43406  -0.43226
 Alpha  occ. eigenvalues --   -0.43089  -0.42917  -0.42786  -0.42710  -0.42489
 Alpha  occ. eigenvalues --   -0.42308  -0.42016  -0.41860  -0.41185  -0.41070
 Alpha  occ. eigenvalues --   -0.40859  -0.40750  -0.40706  -0.40662  -0.40526
 Alpha  occ. eigenvalues --   -0.40133  -0.39928  -0.39837  -0.39725  -0.39712
 Alpha  occ. eigenvalues --   -0.39412  -0.39224  -0.38990  -0.38864  -0.38794
 Alpha  occ. eigenvalues --   -0.38601  -0.38430  -0.38386  -0.37793  -0.37766
 Alpha  occ. eigenvalues --   -0.37668  -0.37366  -0.37089  -0.36968  -0.36839
 Alpha  occ. eigenvalues --   -0.36681  -0.36594  -0.36411  -0.36273  -0.36182
 Alpha  occ. eigenvalues --   -0.36057  -0.36015  -0.35783  -0.35116  -0.35046
 Alpha  occ. eigenvalues --   -0.34645  -0.34178  -0.34035  -0.33709  -0.33478
 Alpha  occ. eigenvalues --   -0.33467  -0.33051  -0.32864  -0.32361  -0.32234
 Alpha  occ. eigenvalues --   -0.32094  -0.31787  -0.31697  -0.31399  -0.31270
 Alpha  occ. eigenvalues --   -0.30648  -0.30191  -0.29742  -0.29506  -0.29384
 Alpha  occ. eigenvalues --   -0.29055  -0.28766  -0.28405  -0.26755  -0.25716
 Alpha  occ. eigenvalues --   -0.25330  -0.24718  -0.24591  -0.24354  -0.20886
 Alpha  occ. eigenvalues --   -0.19055
 Alpha virt. eigenvalues --   -0.11739  -0.05008  -0.03928  -0.02169  -0.00403
 Alpha virt. eigenvalues --   -0.00066   0.00522   0.01224   0.01370   0.03326
 Alpha virt. eigenvalues --    0.04041   0.04340   0.04748   0.05434   0.05572

 Mulliken charges:
               1
     1  Mg   0.985615
     2  C    0.048717
     3  C   -0.061961
     4  C   -0.052332
     5  C   -0.059556
     6  N   -0.395968
     7  C    0.058113
     8  C   -0.055637
     9  C   -0.143235
    10  C    0.091329
    11  C   -0.021639
    12  C    0.036068
    13  C   -0.090106
    14  C    0.233883
    15  O   -0.263288
    16  O   -0.384229
    17  N   -0.506728
    18  C    0.172018
    19  C   -0.149956
    20  C   -0.060987
    21  C    0.186603
    22  C    0.045029
    23  C   -0.020298
    24  O   -0.238265
    25  C   -0.022267
    26  N   -0.422093
    27  C    0.104947
    28  C   -0.138664
    29  C   -0.017873
    30  C    0.041206
    31  C   -0.024469
    32  C   -0.075036
    33  C   -0.062929
    34  N   -0.455824
    35  C    0.144907
    36  C   -0.181244
    37  C   -0.025099
    38  C    0.124593
    39  C    0.057565
    40  C    0.126326
    41  O   -0.229987
    42  C   -0.177337
    43  C    0.280809
    44  O   -0.258396
    45  O   -0.352495
    46  C    0.108404
    47  C    0.217989
    48  C   -0.117812
    49  C   -0.256024
    50  C    0.018614
    51  C    0.018556
    52  C   -0.023115
    53  C   -0.068544
    54  C   -0.226640
    55  C   -0.012880
    56  C    0.030185
    57  C   -0.040611
    58  C    0.027799
    59  C   -0.254126
    60  C   -0.024327
    61  C    0.048655
    62  C   -0.070878
    63  C   -0.028521
    64  C   -0.215691
    65  C   -0.024838
    66  C   -0.037496
    67  H   -0.006372
    68  H    0.026713
    69  H    0.011688
    70  H    0.054937
    71  H    0.062039
    72  H    0.035105
    73  H    0.058568
    74  H    0.043764
    75  H    0.049299
    76  H    0.052229
    77  H    0.074143
    78  H    0.064900
    79  H    0.066959
    80  H    0.040820
    81  H    0.075072
    82  H    0.045070
    83  H    0.049267
    84  H    0.063250
    85  H    0.058607
    86  H    0.052714
    87  H    0.047934
    88  H    0.042500
    89  H    0.048886
    90  H    0.038070
    91  H    0.040843
    92  H    0.051653
    93  H    0.050870
    94  H    0.055986
    95  H    0.040231
    96  H    0.067266
    97  H    0.053459
    98  H    0.072858
    99  H    0.077084
   100  H    0.077473
   101  H    0.063507
   102  H    0.068652
   103  H    0.052502
   104  H    0.036631
   105  H    0.051717
   106  H    0.057462
   107  H    0.055198
   108  H    0.034359
   109  H    0.018769
   110  H    0.040258
   111  H    0.047418
   112  H    0.027037
   113  H    0.025076
   114  H    0.036314
   115  H    0.041717
   116  H    0.038449
   117  H    0.038933
   118  H    0.028141
   119  H    0.026534
   120  H    0.013436
   121  H    0.025796
   122  H    0.010424
   123  H    0.028253
   124  H    0.025983
   125  H    0.037766
   126  H    0.043219
   127  H    0.028443
   128  H    0.018535
   129  H    0.023398
   130  H    0.033203
   131  H    0.027285
   132  H    0.036601
   133  H    0.022590
   134  H    0.043369
   135  H    0.039953
   136  H    0.035158
   137  H    0.019848
   138  H    0.024587
   139  H    0.032439
   140  H    0.038633
 Sum of Mulliken charges =  -0.00000

 Dipole moment (field-independent basis, Debye):
    X=              2.9649    Y=              1.7085    Z=             -0.7434  Tot=              3.5017
 Quadrupole moment (field-independent basis, Debye-Ang):
   XX=           -370.0773   YY=           -413.8756   ZZ=           -406.8816
   XY=              2.3652   XZ=             16.9618   YZ=             -3.2568

 Normal termination of Gaussian 16 at Wed Apr 27 06:04:47 2022.
