 Gaussian 16, Revision A.03,
 Gaussian 16:  ES64L-G16RevA.03 25-Dec-2016

 --------------------------------
 #p wB97XD/Def2SVP td=(nstates=5)
 --------------------------------

 -----------------------------------------------------
 step_1101_chromophore_13 TDDFT with wB97XD functional
 -----------------------------------------------------
 Symbolic Z-matrix:
 Charge =  0 Multiplicity = 1

                         Standard orientation:
 ---------------------------------------------------------------------
 Center     Atomic      Atomic             Coordinates (Angstroms)
 Number     Number       Type             X           Y           Z
 ---------------------------------------------------------------------
      1         12           0       -6.015244    0.438567   -0.375570
      2          6           0       -3.599457   -2.168600   -0.320649
      3          6           0       -3.516014    2.682637   -0.059703
      4          6           0       -8.283324    2.757554    0.660983
      5          6           0       -8.581780   -2.050240   -0.337680
      6          7           0       -3.822074    0.243110   -0.155100
      7          6           0       -3.086722   -0.910299   -0.187523
      8          6           0       -1.557591   -0.654995   -0.070463
      9          6           0       -1.555466    0.972927   -0.000752
     10          6           0       -2.999128    1.351339   -0.044241
     11          6           0       -0.983244    1.545012    1.340081
     12          6           0       -0.648736   -1.342912   -1.108649
     13          6           0        0.495097   -2.117967   -0.573089
     14          6           0        1.974024   -1.693208   -0.957678
     15          8           0        2.405943   -0.611565   -1.338171
     16          8           0        2.894567   -2.697090   -0.666787
     17          7           0       -5.962475    2.442482    0.016425
     18          6           0       -4.839548    3.244157   -0.071377
     19          6           0       -5.146972    4.648575    0.007902
     20          6           0       -6.581335    4.629345    0.313067
     21          6           0       -7.011431    3.250296    0.325435
     22          6           0       -4.081029    5.761706    0.131490
     23          6           0       -7.401776    5.782432    0.529131
     24          8           0       -8.588700    5.737344    0.757471
     25          6           0       -6.848736    7.214533    0.422187
     26          7           0       -8.108924    0.354931    0.069974
     27          6           0       -8.804979    1.472003    0.470693
     28          6           0      -10.280472    1.162049    0.550758
     29          6           0      -10.408089   -0.378738    0.264028
     30          6           0       -8.981283   -0.742792   -0.039442
     31          6           0      -10.951303    1.713697    1.832098
     32          6           0      -11.339007   -0.648663   -0.984949
     33          6           0      -10.810870   -0.479971   -2.438708
     34          7           0       -6.131662   -1.676387   -0.422780
     35          6           0       -7.230889   -2.488175   -0.440809
     36          6           0       -6.811141   -3.872730   -0.553697
     37          6           0       -5.338634   -3.816580   -0.530539
     38          6           0       -5.009229   -2.446451   -0.442823
     39          6           0       -7.693476   -5.100403   -0.451530
     40          6           0       -4.090201   -4.545023   -0.493349
     41          8           0       -3.825629   -5.752061   -0.582377
     42          6           0       -2.937414   -3.438276   -0.310017
     43          6           0       -2.219843   -3.669730    1.024709
     44          8           0       -2.617064   -3.296744    2.127718
     45          8           0       -1.221514   -4.517118    0.775421
     46          6           0       -0.302876   -4.978170    1.892092
     47          6           0        4.274963   -2.455934   -1.102382
     48          6           0        4.975356   -1.465823   -0.047539
     49          6           0        6.340396   -1.355664    0.034099
     50          6           0        7.346502   -2.206873   -0.704076
     51          6           0        6.924079   -0.436909    1.113111
     52          6           0        7.309049    0.965683    0.635040
     53          6           0        8.891759    1.130607    0.664089
     54          6           0        9.566918    2.114603   -0.371262
     55          6           0        8.594739    3.342143   -0.496773
     56          6           0       10.054966    1.558058   -1.749041
     57          6           0       11.308342    2.348537   -2.286971
     58          6           0       12.491427    1.490134   -2.779555
     59          6           0       13.640850    1.354941   -1.736364
     60          6           0       15.064131    1.701339   -2.380993
     61          6           0       13.740221    0.152906   -0.855668
     62          6           0       14.192968    0.511884    0.552707
     63          6           0       12.938402    0.540262    1.559764
     64          6           0       12.923679   -0.598948    2.600099
     65          6           0       11.662165   -1.547486    2.605514
     66          6           0       13.247592   -0.076014    4.073942
     67          1           0       -2.697004    3.401500   -0.128143
     68          1           0       -9.049219    3.481596    0.947614
     69          1           0       -9.348179   -2.790014   -0.575993
     70          1           0       -1.126805   -0.973917    0.879271
     71          1           0       -0.899550    1.459026   -0.723493
     72          1           0       -0.165236    0.928294    1.711991
     73          1           0       -1.719869    1.586835    2.142156
     74          1           0       -0.484129    2.507968    1.227912
     75          1           0       -0.100541   -0.568394   -1.644921
     76          1           0       -1.100468   -1.965373   -1.880676
     77          1           0        0.339279   -3.166545   -0.828492
     78          1           0        0.531587   -2.170373    0.515906
     79          1           0       -4.343368    6.616830   -0.491336
     80          1           0       -3.096046    5.362843   -0.109319
     81          1           0       -3.984694    6.024993    1.183968
     82          1           0       -5.948666    7.205039    1.035363
     83          1           0       -7.572889    7.950995    0.771253
     84          1           0       -6.665099    7.467174   -0.622326
     85          1           0      -10.872212    1.722545   -0.173140
     86          1           0      -10.705824   -0.841340    1.205371
     87          1           0      -10.158829    1.806304    2.575364
     88          1           0      -11.815345    1.133347    2.158024
     89          1           0      -11.362451    2.721661    1.788063
     90          1           0      -12.149659    0.058120   -0.813466
     91          1           0      -11.809821   -1.631982   -1.000053
     92          1           0      -11.272375    0.428866   -2.825602
     93          1           0      -10.928577   -1.377046   -3.045854
     94          1           0       -9.732896   -0.338252   -2.359890
     95          1           0       -8.673370   -4.975971    0.008046
     96          1           0       -7.195914   -5.917032    0.071770
     97          1           0       -7.886164   -5.404871   -1.479960
     98          1           0       -2.255905   -3.678559   -1.126160
     99          1           0       -0.458283   -6.052658    1.989044
    100          1           0       -0.428572   -4.441509    2.832950
    101          1           0        0.742825   -4.860909    1.605992
    102          1           0        4.216890   -2.000844   -2.091730
    103          1           0        4.833615   -3.390767   -1.095689
    104          1           0        4.320991   -0.944282    0.651007
    105          1           0        8.388520   -2.057724   -0.424098
    106          1           0        7.124582   -1.967110   -1.743798
    107          1           0        7.039956   -3.243509   -0.561208
    108          1           0        7.717948   -1.027092    1.570550
    109          1           0        6.100265   -0.283597    1.810869
    110          1           0        7.011892    1.683451    1.399189
    111          1           0        6.809501    1.164473   -0.313679
    112          1           0        9.407844    0.170791    0.709031
    113          1           0        9.094516    1.480874    1.676147
    114          1           0       10.499087    2.405147    0.112160
    115          1           0        8.027880    3.190483   -1.415697
    116          1           0        9.268038    4.195753   -0.433209
    117          1           0        7.877766    3.489367    0.310627
    118          1           0        9.218279    1.725550   -2.428095
    119          1           0       10.244647    0.485776   -1.698335
    120          1           0       11.625702    2.996048   -1.469058
    121          1           0       11.108111    3.151709   -2.995922
    122          1           0       13.043616    1.958318   -3.594529
    123          1           0       12.213953    0.485233   -3.097425
    124          1           0       13.463719    2.188939   -1.057739
    125          1           0       14.917163    2.507347   -3.099643
    126          1           0       15.530060    0.764379   -2.686988
    127          1           0       15.716057    2.150482   -1.631934
    128          1           0       14.498033   -0.551361   -1.198535
    129          1           0       12.774893   -0.352528   -0.837953
    130          1           0       14.653686    1.496363    0.630147
    131          1           0       14.909069   -0.202678    0.957580
    132          1           0       11.968677    0.571598    1.064232
    133          1           0       12.992262    1.542944    1.985117
    134          1           0       13.816413   -1.212716    2.476112
    135          1           0       10.925399   -1.398413    3.395285
    136          1           0       11.912386   -2.607374    2.568338
    137          1           0       11.076655   -1.427620    1.693978
    138          1           0       12.394800   -0.274240    4.722893
    139          1           0       13.395807    1.004115    4.049980
    140          1           0       14.079848   -0.561052    4.583429
 ---------------------------------------------------------------------

 SCF Done:  E(RwB97XD) =  -3007.85919053     A.U. after   19 cycles

 Excitation energies and oscillator strengths:

 Excited State   1:      Singlet-A      1.5900 eV  779.80 nm  f=0.3867  <S**2>=0.000
     245 -> 248       -0.17718
     246 -> 247        0.68596
     245 <- 248       -0.11708
 This state for optimization and/or second-order correction.
 Total Energy, E(TD-HF/TD-DFT) =  -3007.80076082
 Copying the excited state density for this state as the 1-particle RhoCI density.

 Excited State   2:      Singlet-A      2.0712 eV  598.62 nm  f=0.1736  <S**2>=0.000
     245 -> 247        0.65980
     246 -> 248        0.23668

 Excited State   3:      Singlet-A      3.1693 eV  391.21 nm  f=0.0065  <S**2>=0.000
     240 -> 247       -0.20260
     242 -> 247        0.15514
     244 -> 247        0.64032

 Excited State   4:      Singlet-A      3.2434 eV  382.27 nm  f=0.0001  <S**2>=0.000
     242 -> 247        0.57435
     242 -> 248       -0.12411
     242 -> 249        0.26008
     242 -> 250       -0.17942
     244 -> 247       -0.13903

 Excited State   5:      Singlet-A      3.3624 eV  368.74 nm  f=0.0052  <S**2>=0.000
     239 -> 247        0.14420
     240 -> 247        0.62392
     244 -> 247        0.19142
     246 -> 248       -0.14833

 The electronic state is 1-A.
 Alpha  occ. eigenvalues --  -46.94801 -19.31015 -19.29735 -19.25541 -19.24352
 Alpha  occ. eigenvalues --  -19.23421 -19.22823 -14.47198 -14.46478 -14.44383
 Alpha  occ. eigenvalues --  -14.43491 -10.44095 -10.43224 -10.38869 -10.37678
 Alpha  occ. eigenvalues --  -10.36487 -10.36426 -10.35933 -10.34990 -10.34915
 Alpha  occ. eigenvalues --  -10.34765 -10.34614 -10.34578 -10.33986 -10.33306
 Alpha  occ. eigenvalues --  -10.32919 -10.32754 -10.32597 -10.32332 -10.32181
 Alpha  occ. eigenvalues --  -10.32062 -10.31931 -10.31816 -10.31724 -10.31260
 Alpha  occ. eigenvalues --  -10.31238 -10.31215 -10.30875 -10.30826 -10.30780
 Alpha  occ. eigenvalues --  -10.30542 -10.30364 -10.30122 -10.30051 -10.29990
 Alpha  occ. eigenvalues --  -10.29931 -10.29886 -10.29634 -10.29386 -10.29323
 Alpha  occ. eigenvalues --  -10.29294 -10.29272 -10.29251 -10.29223 -10.29121
 Alpha  occ. eigenvalues --  -10.29099 -10.29085 -10.28965 -10.28924 -10.28822
 Alpha  occ. eigenvalues --  -10.28778 -10.28688 -10.28477 -10.28457 -10.28197
 Alpha  occ. eigenvalues --  -10.28167  -3.20778  -1.94366  -1.93880  -1.93767
 Alpha  occ. eigenvalues --   -1.18589  -1.18278  -1.12476  -1.10415  -1.09469
 Alpha  occ. eigenvalues --   -1.09435  -1.05889  -1.05174  -1.04615  -1.03738
 Alpha  occ. eigenvalues --   -0.95042  -0.92025  -0.91690  -0.91349  -0.90744
 Alpha  occ. eigenvalues --   -0.89920  -0.89634  -0.89412  -0.89170  -0.88441
 Alpha  occ. eigenvalues --   -0.87650  -0.87092  -0.85801  -0.85327  -0.85054
 Alpha  occ. eigenvalues --   -0.83963  -0.83579  -0.83093  -0.82255  -0.81919
 Alpha  occ. eigenvalues --   -0.81206  -0.80719  -0.79464  -0.79349  -0.78273
 Alpha  occ. eigenvalues --   -0.77533  -0.77204  -0.76913  -0.76413  -0.76176
 Alpha  occ. eigenvalues --   -0.75106  -0.74572  -0.73436  -0.72410  -0.71234
 Alpha  occ. eigenvalues --   -0.70963  -0.70593  -0.69562  -0.69188  -0.67820
 Alpha  occ. eigenvalues --   -0.67745  -0.67090  -0.66672  -0.66107  -0.65703
 Alpha  occ. eigenvalues --   -0.64626  -0.64211  -0.64114  -0.63477  -0.62614
 Alpha  occ. eigenvalues --   -0.61854  -0.61183  -0.61095  -0.60605  -0.60254
 Alpha  occ. eigenvalues --   -0.59811  -0.58910  -0.57930  -0.57640  -0.57021
 Alpha  occ. eigenvalues --   -0.56817  -0.56729  -0.56341  -0.55988  -0.55719
 Alpha  occ. eigenvalues --   -0.55571  -0.55225  -0.54880  -0.54740  -0.54576
 Alpha  occ. eigenvalues --   -0.54335  -0.54113  -0.54034  -0.54002  -0.53264
 Alpha  occ. eigenvalues --   -0.53172  -0.52878  -0.52797  -0.52658  -0.52256
 Alpha  occ. eigenvalues --   -0.52211  -0.51747  -0.51645  -0.51501  -0.51266
 Alpha  occ. eigenvalues --   -0.51171  -0.51096  -0.50800  -0.50716  -0.50555
 Alpha  occ. eigenvalues --   -0.50375  -0.50253  -0.50143  -0.49986  -0.49847
 Alpha  occ. eigenvalues --   -0.49631  -0.49294  -0.49099  -0.48380  -0.48296
 Alpha  occ. eigenvalues --   -0.48055  -0.47935  -0.47898  -0.47801  -0.47731
 Alpha  occ. eigenvalues --   -0.47235  -0.47140  -0.47002  -0.46953  -0.46891
 Alpha  occ. eigenvalues --   -0.46467  -0.46437  -0.46129  -0.46014  -0.45974
 Alpha  occ. eigenvalues --   -0.45753  -0.45527  -0.45447  -0.45013  -0.44937
 Alpha  occ. eigenvalues --   -0.44833  -0.44531  -0.44250  -0.44169  -0.44066
 Alpha  occ. eigenvalues --   -0.43846  -0.43615  -0.43425  -0.43366  -0.43198
 Alpha  occ. eigenvalues --   -0.43105  -0.43064  -0.42834  -0.42160  -0.42013
 Alpha  occ. eigenvalues --   -0.41701  -0.41207  -0.41090  -0.40697  -0.40482
 Alpha  occ. eigenvalues --   -0.40374  -0.40129  -0.39779  -0.39405  -0.39179
 Alpha  occ. eigenvalues --   -0.39109  -0.38841  -0.38726  -0.38394  -0.38246
 Alpha  occ. eigenvalues --   -0.37593  -0.37160  -0.36723  -0.36431  -0.36234
 Alpha  occ. eigenvalues --   -0.36057  -0.35684  -0.35055  -0.33327  -0.32418
 Alpha  occ. eigenvalues --   -0.32240  -0.31922  -0.31114  -0.31002  -0.25818
 Alpha  occ. eigenvalues --   -0.23258
 Alpha virt. eigenvalues --   -0.07763   0.00503   0.02284   0.04325   0.05549
 Alpha virt. eigenvalues --    0.06758   0.07276   0.07921   0.08150   0.09783
 Alpha virt. eigenvalues --    0.10569   0.11041   0.11313   0.12061   0.12319

 Mulliken charges:
               1
     1  Mg   0.975773
     2  C    0.058420
     3  C   -0.077361
     4  C   -0.075610
     5  C   -0.082817
     6  N   -0.359078
     7  C    0.018878
     8  C   -0.031811
     9  C   -0.117961
    10  C    0.080750
    11  C   -0.012110
    12  C    0.048679
    13  C   -0.074667
    14  C    0.226503
    15  O   -0.261288
    16  O   -0.385098
    17  N   -0.475392
    18  C    0.167745
    19  C   -0.148689
    20  C   -0.048675
    21  C    0.179713
    22  C    0.061260
    23  C   -0.025315
    24  O   -0.231710
    25  C   -0.007399
    26  N   -0.390733
    27  C    0.098221
    28  C   -0.118674
    29  C    0.006130
    30  C    0.033461
    31  C   -0.013616
    32  C   -0.060906
    33  C   -0.043716
    34  N   -0.416795
    35  C    0.137272
    36  C   -0.181243
    37  C   -0.022912
    38  C    0.100528
    39  C    0.068133
    40  C    0.109664
    41  O   -0.222055
    42  C   -0.134969
    43  C    0.252528
    44  O   -0.251813
    45  O   -0.349478
    46  C    0.123495
    47  C    0.239344
    48  C   -0.132993
    49  C   -0.243480
    50  C    0.033319
    51  C    0.041248
    52  C   -0.010013
    53  C   -0.039284
    54  C   -0.193276
    55  C    0.001094
    56  C    0.041724
    57  C   -0.020369
    58  C    0.040901
    59  C   -0.222272
    60  C   -0.009061
    61  C    0.065199
    62  C   -0.052094
    63  C    0.001827
    64  C   -0.191011
    65  C   -0.005943
    66  C   -0.023607
    67  H   -0.015490
    68  H    0.021155
    69  H    0.006096
    70  H    0.038585
    71  H    0.055174
    72  H    0.029286
    73  H    0.052777
    74  H    0.038614
    75  H    0.039198
    76  H    0.045326
    77  H    0.066721
    78  H    0.055715
    79  H    0.062347
    80  H    0.037403
    81  H    0.071183
    82  H    0.037412
    83  H    0.048813
    84  H    0.059001
    85  H    0.047376
    86  H    0.044675
    87  H    0.040383
    88  H    0.037817
    89  H    0.043649
    90  H    0.027660
    91  H    0.033946
    92  H    0.046232
    93  H    0.046454
    94  H    0.043618
    95  H    0.034234
    96  H    0.062712
    97  H    0.046845
    98  H    0.063568
    99  H    0.074006
   100  H    0.074425
   101  H    0.059949
   102  H    0.062509
   103  H    0.046999
   104  H    0.033570
   105  H    0.047488
   106  H    0.051021
   107  H    0.048653
   108  H    0.025127
   109  H    0.011425
   110  H    0.032013
   111  H    0.037967
   112  H    0.003383
   113  H    0.016221
   114  H    0.019303
   115  H    0.034468
   116  H    0.033210
   117  H    0.031613
   118  H    0.018596
   119  H    0.017410
   120  H    0.001122
   121  H    0.020045
   122  H    0.001923
   123  H    0.020533
   124  H    0.005685
   125  H    0.031321
   126  H    0.036486
   127  H    0.021962
   128  H    0.010361
   129  H    0.011044
   130  H    0.024129
   131  H    0.019119
   132  H    0.007393
   133  H    0.013880
   134  H    0.031030
   135  H    0.033624
   136  H    0.030237
   137  H    0.009314
   138  H    0.017232
   139  H    0.025504
   140  H    0.033697
 Sum of Mulliken charges =  -0.00000

 Dipole moment (field-independent basis, Debye):
    X=              3.1547    Y=              2.3270    Z=             -0.7263  Tot=              3.9868
 Quadrupole moment (field-independent basis, Debye-Ang):
   XX=           -372.3385   YY=           -411.6176   ZZ=           -406.3647
   XY=             -1.7736   XZ=             16.8594   YZ=             -3.4033

 Normal termination of Gaussian 16 at Wed Apr 27 06:42:47 2022.
