 Gaussian 16, Revision A.03,
 Gaussian 16:  ES64L-G16RevA.03 25-Dec-2016

 --------------------
 #p ZINDO=(nstates=5)
 --------------------

 ------------------------------
 step_1101_chromophore_13 ZINDO
 ------------------------------
 Symbolic Z-matrix:
 Charge =  0 Multiplicity = 1

                         Standard orientation:
 ---------------------------------------------------------------------
 Center     Atomic      Atomic             Coordinates (Angstroms)
 Number     Number       Type             X           Y           Z
 ---------------------------------------------------------------------
      1         12           0       -6.015244    0.438567   -0.375570
      2          6           0       -3.599457   -2.168600   -0.320649
      3          6           0       -3.516014    2.682637   -0.059703
      4          6           0       -8.283324    2.757554    0.660983
      5          6           0       -8.581780   -2.050240   -0.337680
      6          7           0       -3.822074    0.243110   -0.155100
      7          6           0       -3.086722   -0.910299   -0.187523
      8          6           0       -1.557591   -0.654995   -0.070463
      9          6           0       -1.555466    0.972927   -0.000752
     10          6           0       -2.999128    1.351339   -0.044241
     11          6           0       -0.983244    1.545012    1.340081
     12          6           0       -0.648736   -1.342912   -1.108649
     13          6           0        0.495097   -2.117967   -0.573089
     14          6           0        1.974024   -1.693208   -0.957678
     15          8           0        2.405943   -0.611565   -1.338171
     16          8           0        2.894567   -2.697090   -0.666787
     17          7           0       -5.962475    2.442482    0.016425
     18          6           0       -4.839548    3.244157   -0.071377
     19          6           0       -5.146972    4.648575    0.007902
     20          6           0       -6.581335    4.629345    0.313067
     21          6           0       -7.011431    3.250296    0.325435
     22          6           0       -4.081029    5.761706    0.131490
     23          6           0       -7.401776    5.782432    0.529131
     24          8           0       -8.588700    5.737344    0.757471
     25          6           0       -6.848736    7.214533    0.422187
     26          7           0       -8.108924    0.354931    0.069974
     27          6           0       -8.804979    1.472003    0.470693
     28          6           0      -10.280472    1.162049    0.550758
     29          6           0      -10.408089   -0.378738    0.264028
     30          6           0       -8.981283   -0.742792   -0.039442
     31          6           0      -10.951303    1.713697    1.832098
     32          6           0      -11.339007   -0.648663   -0.984949
     33          6           0      -10.810870   -0.479971   -2.438708
     34          7           0       -6.131662   -1.676387   -0.422780
     35          6           0       -7.230889   -2.488175   -0.440809
     36          6           0       -6.811141   -3.872730   -0.553697
     37          6           0       -5.338634   -3.816580   -0.530539
     38          6           0       -5.009229   -2.446451   -0.442823
     39          6           0       -7.693476   -5.100403   -0.451530
     40          6           0       -4.090201   -4.545023   -0.493349
     41          8           0       -3.825629   -5.752061   -0.582377
     42          6           0       -2.937414   -3.438276   -0.310017
     43          6           0       -2.219843   -3.669730    1.024709
     44          8           0       -2.617064   -3.296744    2.127718
     45          8           0       -1.221514   -4.517118    0.775421
     46          6           0       -0.302876   -4.978170    1.892092
     47          6           0        4.274963   -2.455934   -1.102382
     48          6           0        4.975356   -1.465823   -0.047539
     49          6           0        6.340396   -1.355664    0.034099
     50          6           0        7.346502   -2.206873   -0.704076
     51          6           0        6.924079   -0.436909    1.113111
     52          6           0        7.309049    0.965683    0.635040
     53          6           0        8.891759    1.130607    0.664089
     54          6           0        9.566918    2.114603   -0.371262
     55          6           0        8.594739    3.342143   -0.496773
     56          6           0       10.054966    1.558058   -1.749041
     57          6           0       11.308342    2.348537   -2.286971
     58          6           0       12.491427    1.490134   -2.779555
     59          6           0       13.640850    1.354941   -1.736364
     60          6           0       15.064131    1.701339   -2.380993
     61          6           0       13.740221    0.152906   -0.855668
     62          6           0       14.192968    0.511884    0.552707
     63          6           0       12.938402    0.540262    1.559764
     64          6           0       12.923679   -0.598948    2.600099
     65          6           0       11.662165   -1.547486    2.605514
     66          6           0       13.247592   -0.076014    4.073942
     67          1           0       -2.697004    3.401500   -0.128143
     68          1           0       -9.049219    3.481596    0.947614
     69          1           0       -9.348179   -2.790014   -0.575993
     70          1           0       -1.126805   -0.973917    0.879271
     71          1           0       -0.899550    1.459026   -0.723493
     72          1           0       -0.165236    0.928294    1.711991
     73          1           0       -1.719869    1.586835    2.142156
     74          1           0       -0.484129    2.507968    1.227912
     75          1           0       -0.100541   -0.568394   -1.644921
     76          1           0       -1.100468   -1.965373   -1.880676
     77          1           0        0.339279   -3.166545   -0.828492
     78          1           0        0.531587   -2.170373    0.515906
     79          1           0       -4.343368    6.616830   -0.491336
     80          1           0       -3.096046    5.362843   -0.109319
     81          1           0       -3.984694    6.024993    1.183968
     82          1           0       -5.948666    7.205039    1.035363
     83          1           0       -7.572889    7.950995    0.771253
     84          1           0       -6.665099    7.467174   -0.622326
     85          1           0      -10.872212    1.722545   -0.173140
     86          1           0      -10.705824   -0.841340    1.205371
     87          1           0      -10.158829    1.806304    2.575364
     88          1           0      -11.815345    1.133347    2.158024
     89          1           0      -11.362451    2.721661    1.788063
     90          1           0      -12.149659    0.058120   -0.813466
     91          1           0      -11.809821   -1.631982   -1.000053
     92          1           0      -11.272375    0.428866   -2.825602
     93          1           0      -10.928577   -1.377046   -3.045854
     94          1           0       -9.732896   -0.338252   -2.359890
     95          1           0       -8.673370   -4.975971    0.008046
     96          1           0       -7.195914   -5.917032    0.071770
     97          1           0       -7.886164   -5.404871   -1.479960
     98          1           0       -2.255905   -3.678559   -1.126160
     99          1           0       -0.458283   -6.052658    1.989044
    100          1           0       -0.428572   -4.441509    2.832950
    101          1           0        0.742825   -4.860909    1.605992
    102          1           0        4.216890   -2.000844   -2.091730
    103          1           0        4.833615   -3.390767   -1.095689
    104          1           0        4.320991   -0.944282    0.651007
    105          1           0        8.388520   -2.057724   -0.424098
    106          1           0        7.124582   -1.967110   -1.743798
    107          1           0        7.039956   -3.243509   -0.561208
    108          1           0        7.717948   -1.027092    1.570550
    109          1           0        6.100265   -0.283597    1.810869
    110          1           0        7.011892    1.683451    1.399189
    111          1           0        6.809501    1.164473   -0.313679
    112          1           0        9.407844    0.170791    0.709031
    113          1           0        9.094516    1.480874    1.676147
    114          1           0       10.499087    2.405147    0.112160
    115          1           0        8.027880    3.190483   -1.415697
    116          1           0        9.268038    4.195753   -0.433209
    117          1           0        7.877766    3.489367    0.310627
    118          1           0        9.218279    1.725550   -2.428095
    119          1           0       10.244647    0.485776   -1.698335
    120          1           0       11.625702    2.996048   -1.469058
    121          1           0       11.108111    3.151709   -2.995922
    122          1           0       13.043616    1.958318   -3.594529
    123          1           0       12.213953    0.485233   -3.097425
    124          1           0       13.463719    2.188939   -1.057739
    125          1           0       14.917163    2.507347   -3.099643
    126          1           0       15.530060    0.764379   -2.686988
    127          1           0       15.716057    2.150482   -1.631934
    128          1           0       14.498033   -0.551361   -1.198535
    129          1           0       12.774893   -0.352528   -0.837953
    130          1           0       14.653686    1.496363    0.630147
    131          1           0       14.909069   -0.202678    0.957580
    132          1           0       11.968677    0.571598    1.064232
    133          1           0       12.992262    1.542944    1.985117
    134          1           0       13.816413   -1.212716    2.476112
    135          1           0       10.925399   -1.398413    3.395285
    136          1           0       11.912386   -2.607374    2.568338
    137          1           0       11.076655   -1.427620    1.693978
    138          1           0       12.394800   -0.274240    4.722893
    139          1           0       13.395807    1.004115    4.049980
    140          1           0       14.079848   -0.561052    4.583429
 ---------------------------------------------------------------------

 SCF Done:  E(RZINDO/S) =  -473.938714709     A.U. after   20 cycles

 Excitation energies and oscillator strengths:

 Excited State   1:      Singlet-A      1.2031 eV 1030.52 nm  f=0.6236  <S**2>=0.000
     175 ->178         0.17584
     176 ->177         0.66728
 This state for optimization and/or second-order correction.
 Total Energy, E(CIS/TDA) =  -473.894500801
 Copying the excited state density for this state as the 1-particle RhoCI density.

 Excited State   2:      Singlet-A      1.8790 eV  659.85 nm  f=0.1372  <S**2>=0.000
     175 ->177         0.59312
     176 ->178        -0.35090

 Excited State   3:      Singlet-A      2.7164 eV  456.42 nm  f=0.0010  <S**2>=0.000
     168 ->177         0.33941
     168 ->179        -0.33398
     168 ->180         0.19509
     168 ->186        -0.19343
     168 ->187         0.11141
     170 ->177         0.20574
     170 ->179        -0.18946
     170 ->180         0.11258
     170 ->186        -0.10696

 Excited State   4:      Singlet-A      3.0117 eV  411.67 nm  f=0.6679  <S**2>=0.000
     175 ->177         0.26857
     176 ->178         0.50124
     176 ->179        -0.29935
     176 ->180        -0.14269

 Excited State   5:      Singlet-A      3.0273 eV  409.56 nm  f=0.1081  <S**2>=0.000
     171 ->177         0.28258
     172 ->177        -0.32230
     174 ->177         0.43529
     175 ->177        -0.10100
     176 ->178        -0.14822
     176 ->179        -0.24174

 The electronic state is 1-A.
 Alpha  occ. eigenvalues --   -1.82358  -1.81175  -1.78586  -1.72430  -1.71225
 Alpha  occ. eigenvalues --   -1.69721  -1.64886  -1.61192  -1.58859  -1.57019
 Alpha  occ. eigenvalues --   -1.52944  -1.51006  -1.49035  -1.48413  -1.45435
 Alpha  occ. eigenvalues --   -1.43382  -1.42453  -1.40078  -1.39185  -1.38239
 Alpha  occ. eigenvalues --   -1.36631  -1.32351  -1.31995  -1.31672  -1.27884
 Alpha  occ. eigenvalues --   -1.25613  -1.24982  -1.21153  -1.19705  -1.17459
 Alpha  occ. eigenvalues --   -1.16709  -1.15754  -1.14943  -1.13858  -1.12776
 Alpha  occ. eigenvalues --   -1.12016  -1.10853  -1.10769  -1.05016  -1.04090
 Alpha  occ. eigenvalues --   -1.03198  -1.00496  -0.99958  -0.97805  -0.97456
 Alpha  occ. eigenvalues --   -0.97133  -0.95211  -0.93627  -0.92748  -0.91756
 Alpha  occ. eigenvalues --   -0.91199  -0.90106  -0.88527  -0.88144  -0.85675
 Alpha  occ. eigenvalues --   -0.84618  -0.84429  -0.81585  -0.81155  -0.80707
 Alpha  occ. eigenvalues --   -0.79648  -0.78620  -0.77742  -0.76707  -0.76567
 Alpha  occ. eigenvalues --   -0.75676  -0.75552  -0.74881  -0.74372  -0.73657
 Alpha  occ. eigenvalues --   -0.72924  -0.72508  -0.71862  -0.70851  -0.70276
 Alpha  occ. eigenvalues --   -0.70094  -0.68821  -0.68501  -0.67872  -0.67487
 Alpha  occ. eigenvalues --   -0.67169  -0.66897  -0.66513  -0.65767  -0.65258
 Alpha  occ. eigenvalues --   -0.65132  -0.64857  -0.64546  -0.63913  -0.63466
 Alpha  occ. eigenvalues --   -0.62770  -0.62351  -0.62290  -0.61629  -0.61503
 Alpha  occ. eigenvalues --   -0.61150  -0.60631  -0.60512  -0.60126  -0.60023
 Alpha  occ. eigenvalues --   -0.59730  -0.58978  -0.58946  -0.58608  -0.58474
 Alpha  occ. eigenvalues --   -0.57975  -0.57387  -0.57261  -0.56840  -0.56411
 Alpha  occ. eigenvalues --   -0.56153  -0.56017  -0.55465  -0.55305  -0.54810
 Alpha  occ. eigenvalues --   -0.54538  -0.53879  -0.53157  -0.52781  -0.52656
 Alpha  occ. eigenvalues --   -0.52371  -0.52111  -0.51720  -0.51520  -0.51358
 Alpha  occ. eigenvalues --   -0.51200  -0.50898  -0.50664  -0.50504  -0.50242
 Alpha  occ. eigenvalues --   -0.50123  -0.49877  -0.49748  -0.49435  -0.49176
 Alpha  occ. eigenvalues --   -0.49008  -0.48850  -0.48453  -0.48314  -0.47928
 Alpha  occ. eigenvalues --   -0.47355  -0.46969  -0.46904  -0.46352  -0.46284
 Alpha  occ. eigenvalues --   -0.46010  -0.45730  -0.45542  -0.45377  -0.45306
 Alpha  occ. eigenvalues --   -0.45146  -0.44935  -0.44803  -0.44651  -0.44245
 Alpha  occ. eigenvalues --   -0.43821  -0.43157  -0.42794  -0.42744  -0.42506
 Alpha  occ. eigenvalues --   -0.41573  -0.41381  -0.41059  -0.39154  -0.38694
 Alpha  occ. eigenvalues --   -0.38361  -0.36891  -0.34809  -0.34599  -0.34337
 Alpha  occ. eigenvalues --   -0.33689  -0.32326  -0.31342  -0.31287  -0.26625
 Alpha  occ. eigenvalues --   -0.22073
 Alpha virt. eigenvalues --   -0.09315  -0.01761  -0.00776   0.00938   0.01746
 Alpha virt. eigenvalues --    0.01924   0.02491   0.02903   0.04953   0.05117
 Alpha virt. eigenvalues --    0.06374   0.06752   0.07180   0.07712   0.08070

 Mulliken charges:
               1
     1  Mg   0.424018
     2  C   -0.012211
     3  C   -0.082947
     4  C   -0.071359
     5  C   -0.069672
     6  N   -0.281070
     7  C    0.103850
     8  C   -0.004995
     9  C    0.007141
    10  C    0.162874
    11  C   -0.051751
    12  C   -0.023779
    13  C    0.013685
    14  C    0.456191
    15  O   -0.512923
    16  O   -0.284984
    17  N   -0.329445
    18  C    0.127974
    19  C    0.007225
    20  C   -0.034562
    21  C    0.168770
    22  C   -0.035871
    23  C    0.322509
    24  O   -0.529264
    25  C   -0.035816
    26  N   -0.289925
    27  C    0.169316
    28  C    0.001898
    29  C    0.008246
    30  C    0.113821
    31  C   -0.056551
    32  C   -0.031131
    33  C   -0.057392
    34  N   -0.317363
    35  C    0.092962
    36  C    0.003052
    37  C   -0.069135
    38  C    0.096413
    39  C   -0.036220
    40  C    0.329151
    41  O   -0.536782
    42  C    0.059899
    43  C    0.488930
    44  O   -0.530423
    45  O   -0.261841
    46  C    0.071472
    47  C    0.098188
    48  C   -0.104688
    49  C   -0.010311
    50  C   -0.042995
    51  C   -0.026564
    52  C   -0.028162
    53  C   -0.044347
    54  C   -0.019321
    55  C   -0.060770
    56  C   -0.028206
    57  C   -0.037918
    58  C   -0.033776
    59  C   -0.021477
    60  C   -0.067731
    61  C   -0.019005
    62  C   -0.038164
    63  C   -0.038688
    64  C   -0.010511
    65  C   -0.058026
    66  C   -0.066152
    67  H    0.018663
    68  H    0.046350
    69  H    0.032926
    70  H    0.041040
    71  H    0.043098
    72  H    0.014643
    73  H    0.027838
    74  H    0.020082
    75  H    0.026064
    76  H    0.031844
    77  H    0.037139
    78  H    0.044968
    79  H    0.037337
    80  H    0.026984
    81  H    0.036746
    82  H    0.030503
    83  H    0.038033
    84  H    0.037173
    85  H    0.034545
    86  H    0.041174
    87  H    0.021211
    88  H    0.019763
    89  H    0.021785
    90  H    0.011304
    91  H    0.017413
    92  H    0.025263
    93  H    0.028501
    94  H    0.022961
    95  H    0.023106
    96  H    0.033660
    97  H    0.027903
    98  H    0.054704
    99  H    0.046111
   100  H    0.054725
   101  H    0.032264
   102  H    0.054965
   103  H    0.040005
   104  H    0.050775
   105  H    0.031703
   106  H    0.028992
   107  H    0.027806
   108  H    0.027546
   109  H    0.014664
   110  H    0.020297
   111  H    0.035343
   112  H    0.013326
   113  H    0.011271
   114  H    0.015885
   115  H    0.027612
   116  H    0.017812
   117  H    0.021814
   118  H    0.017919
   119  H    0.025146
   120  H    0.016530
   121  H    0.020464
   122  H    0.019209
   123  H    0.021322
   124  H    0.011932
   125  H    0.023914
   126  H    0.028702
   127  H    0.011149
   128  H    0.013720
   129  H    0.018033
   130  H    0.022010
   131  H    0.018049
   132  H    0.021225
   133  H    0.013573
   134  H    0.020439
   135  H    0.024433
   136  H    0.018306
   137  H    0.009492
   138  H    0.012974
   139  H    0.019199
   140  H    0.021265
 Sum of Mulliken charges =  -0.00000

 Dipole moment (field-independent basis, Debye):
    X=              4.0948    Y=              5.6417    Z=             -1.2195  Tot=              7.0769
 N-N= 4.285007995420D+03 E-N= 0.000000000000D+00  KE=-9.244329371150D+03
 Leave Link  601 at Wed Apr 27 07:02:04 2022, MaxMem=  6710886400 cpu:               0.8 elap:               0.0
 (Enter /sw/apps/gaussian-16.0/g16/l9999.exe)
 1\1\GINC-BP1-COMPUTE190\SP\RZINDO CIS\STO-3G\C55H74Mg1N4O6\OF15641\27-
 Apr-2022\0\\#p ZINDO=(nstates=5)\\step_1101_chromophore_13 ZINDO\\0,1\
 Mg,0,46.864,24.8,28.538\C,0,47.246,27.031,31.279\C,0,45.322,22.621,30.
 601\C,0,47.472,22.31,26.296\C,0,48.831,27.031,26.554\N,0,46.407,24.827
 ,30.703\C,0,46.639,25.847,31.585\C,0,46.119,25.537,33.017\C,0,45.467,2
 4.066,32.76\C,0,45.744,23.78,31.321\C,0,46.15,22.922,33.583\C,0,45.249
 ,26.613,33.697\C,0,45.656,27.025,35.061\C,0,44.659,26.801,36.274\O,0,4

 Normal termination of Gaussian 16 at Wed Apr 27 07:02:04 2022.
