 Gaussian 16, Revision A.03,
 Gaussian 16:  ES64L-G16RevA.03 25-Dec-2016

 ------------------------------
 #p blyp/Def2SVP td=(nstates=5)
 ------------------------------

 --------------------------------------------------
 step_951_chromophore_13 TDDFT with blyp functional
 --------------------------------------------------
 Symbolic Z-matrix:
 Charge =  0 Multiplicity = 1

                         Standard orientation:
 ---------------------------------------------------------------------
 Center     Atomic      Atomic             Coordinates (Angstroms)
 Number     Number       Type             X           Y           Z
 ---------------------------------------------------------------------
      1         12           0       -5.879991    0.397160   -0.091852
      2          6           0       -3.647546   -2.233574    0.012467
      3          6           0       -3.443969    2.543148    1.062473
      4          6           0       -8.186664    2.751067    0.151100
      5          6           0       -8.376590   -1.950814   -1.105434
      6          7           0       -3.847020    0.191409    0.431814
      7          6           0       -3.093421   -1.009436    0.411949
      8          6           0       -1.612214   -0.790294    0.821663
      9          6           0       -1.697232    0.716749    1.346453
     10          6           0       -3.167368    1.161891    1.038446
     11          6           0       -1.370690    0.853369    2.882439
     12          6           0       -0.730517   -0.949350   -0.386013
     13          6           0        0.468460   -1.907357   -0.270642
     14          6           0        1.743720   -1.544293   -1.105800
     15          8           0        1.733826   -0.758479   -2.088796
     16          8           0        2.898876   -2.173115   -0.573259
     17          7           0       -5.761966    2.388304    0.483469
     18          6           0       -4.717744    3.139265    0.879261
     19          6           0       -5.091490    4.541247    1.093781
     20          6           0       -6.484872    4.568563    0.835417
     21          6           0       -6.887734    3.205498    0.487437
     22          6           0       -4.116791    5.536688    1.672890
     23          6           0       -7.343357    5.769947    0.718944
     24          8           0       -8.540344    5.682911    0.425611
     25          6           0       -6.777896    7.103500    1.001989
     26          7           0       -7.961531    0.267703   -0.300093
     27          6           0       -8.702378    1.456936   -0.127459
     28          6           0      -10.152838    1.173870   -0.342673
     29          6           0      -10.207604   -0.218497   -0.885542
     30          6           0       -8.744704   -0.727196   -0.800771
     31          6           0      -11.035088    1.565614    0.931043
     32          6           0      -10.774032   -0.310043   -2.368361
     33          6           0       -9.861403    0.174756   -3.529305
     34          7           0       -6.087183   -1.736938   -0.458667
     35          6           0       -7.141872   -2.502875   -0.816314
     36          6           0       -6.634913   -3.912392   -0.999808
     37          6           0       -5.340396   -3.788314   -0.588125
     38          6           0       -5.005480   -2.490345   -0.353317
     39          6           0       -7.565722   -4.964393   -1.479868
     40          6           0       -4.095022   -4.561744   -0.400452
     41          8           0       -3.887207   -5.735486   -0.581614
     42          6           0       -3.059215   -3.586101    0.040140
     43          6           0       -2.526905   -3.898896    1.402715
     44          8           0       -3.065884   -3.597073    2.487954
     45          8           0       -1.498301   -4.791787    1.296385
     46          6           0       -1.178660   -5.431829    2.599343
     47          6           0        4.164297   -1.987687   -1.264560
     48          6           0        4.942069   -0.962106   -0.443773
     49          6           0        6.223519   -0.645775   -0.342852
     50          6           0        7.198830   -1.132592   -1.331554
     51          6           0        6.715882    0.304207    0.675080
     52          6           0        7.391649    1.606066    0.058060
     53          6           0        8.883327    1.937776    0.356164
     54          6           0        9.665162    2.680046   -0.798933
     55          6           0        8.904772    3.875262   -1.456760
     56          6           0       10.068463    1.669744   -1.960664
     57          6           0       11.510493    1.903245   -2.512383
     58          6           0       12.618952    0.861487   -2.218089
     59          6           0       13.840131    1.435007   -1.442187
     60          6           0       14.865118    2.350721   -2.282450
     61          6           0       14.549925    0.347152   -0.576048
     62          6           0       14.097390    0.293106    0.928945
     63          6           0       13.232625   -0.968723    1.144701
     64          6           0       12.580338   -1.126221    2.557255
     65          6           0       13.277488   -2.175566    3.416903
     66          6           0       11.031707   -1.414973    2.389707
     67          1           0       -2.585939    3.176705    1.296383
     68          1           0       -8.919106    3.538904   -0.039360
     69          1           0       -9.186662   -2.646664   -1.333995
     70          1           0       -1.337262   -1.462317    1.634646
     71          1           0       -0.943386    1.364513    0.900879
     72          1           0       -1.557858   -0.102462    3.372071
     73          1           0       -1.880596    1.753734    3.223713
     74          1           0       -0.305882    1.062759    2.983379
     75          1           0       -0.231288   -0.029123   -0.688467
     76          1           0       -1.340336   -1.245386   -1.239983
     77          1           0        0.228479   -2.896867   -0.661941
     78          1           0        0.748229   -1.958946    0.781539
     79          1           0       -3.926133    6.285401    0.904084
     80          1           0       -3.208370    5.030952    2.000976
     81          1           0       -4.426202    6.059898    2.577366
     82          1           0       -6.009515    7.379995    0.280784
     83          1           0       -6.442349    7.153581    2.038140
     84          1           0       -7.547087    7.876610    0.998488
     85          1           0      -10.454178    1.707573   -1.244230
     86          1           0      -10.805690   -0.816368   -0.198435
     87          1           0      -10.440095    2.100733    1.671384
     88          1           0      -11.541535    0.788185    1.502228
     89          1           0      -11.846009    2.173135    0.530523
     90          1           0      -11.745965    0.179136   -2.432929
     91          1           0      -11.026887   -1.359243   -2.521464
     92          1           0       -9.301207   -0.666737   -3.936481
     93          1           0       -9.198505    0.965520   -3.177796
     94          1           0      -10.372085    0.651647   -4.364724
     95          1           0       -7.921509   -5.545964   -0.629172
     96          1           0       -7.033135   -5.572786   -2.210926
     97          1           0       -8.357800   -4.583883   -2.126013
     98          1           0       -2.126298   -3.558454   -0.521854
     99          1           0       -2.133261   -5.743717    3.021639
    100          1           0       -0.745456   -4.681298    3.260377
    101          1           0       -0.510192   -6.291779    2.622482
    102          1           0        4.100475   -1.790368   -2.335173
    103          1           0        4.722573   -2.912996   -1.125663
    104          1           0        4.326993   -0.366171    0.229717
    105          1           0        7.254911   -0.425961   -2.159498
    106          1           0        6.830535   -2.082060   -1.718931
    107          1           0        8.161352   -1.312980   -0.853126
    108          1           0        7.430744   -0.325159    1.204613
    109          1           0        6.113636    0.533722    1.554108
    110          1           0        6.831068    2.435524    0.488559
    111          1           0        7.343284    1.646048   -1.031102
    112          1           0        9.261689    0.968252    0.681675
    113          1           0        8.741014    2.691710    1.129711
    114          1           0       10.615114    3.007454   -0.374755
    115          1           0        9.194547    3.938700   -2.504695
    116          1           0        9.340517    4.782951   -1.039149
    117          1           0        7.826491    3.818374   -1.305330
    118          1           0        9.357174    1.672433   -2.787401
    119          1           0       10.093606    0.688370   -1.486794
    120          1           0       11.713508    2.874581   -2.062601
    121          1           0       11.456443    2.013280   -3.595289
    122          1           0       12.917650    0.430055   -3.173438
    123          1           0       12.199196    0.032526   -1.648696
    124          1           0       13.428208    2.094940   -0.678467
    125          1           0       14.456899    2.403016   -3.291584
    126          1           0       15.855389    1.905255   -2.189920
    127          1           0       14.848683    3.341433   -1.828653
    128          1           0       15.638606    0.395300   -0.554015
    129          1           0       14.319805   -0.620424   -1.021121
    130          1           0       13.598053    1.212327    1.237635
    131          1           0       15.027737    0.180158    1.485159
    132          1           0       13.977428   -1.755698    1.027798
    133          1           0       12.518111   -1.081490    0.330235
    134          1           0       12.649041   -0.254494    3.207536
    135          1           0       12.769059   -3.134346    3.310438
    136          1           0       13.187123   -1.909186    4.469868
    137          1           0       14.311666   -2.344197    3.117590
    138          1           0       10.775546   -2.460316    2.562800
    139          1           0       10.670764   -1.177483    1.388423
    140          1           0       10.390568   -0.762339    2.982779
 ---------------------------------------------------------------------

 SCF Done:  E(RB-LYP) =  -3007.36283095     A.U. after   23 cycles

 Excitation energies and oscillator strengths:

 Excited State   1:      Singlet-A      1.7926 eV  691.63 nm  f=0.3247  <S**2>=0.000
     245 -> 248       -0.16906
     246 -> 247        0.69466
     246 <- 247       -0.15956
 This state for optimization and/or second-order correction.
 Total Energy, E(TD-HF/TD-DFT) =  -3007.29695309
 Copying the excited state density for this state as the 1-particle RhoCI density.

 Excited State   2:      Singlet-A      1.9382 eV  639.68 nm  f=0.0068  <S**2>=0.000
     244 -> 247        0.67521
     245 -> 247        0.19156

 Excited State   3:      Singlet-A      1.9957 eV  621.25 nm  f=0.0321  <S**2>=0.000
     243 -> 247        0.46378
     244 -> 247        0.18700
     245 -> 247       -0.46288
     246 -> 248       -0.16280

 Excited State   4:      Singlet-A      2.0537 eV  603.70 nm  f=0.0335  <S**2>=0.000
     243 -> 247        0.52844
     245 -> 247        0.41120
     246 -> 248        0.17559

 Excited State   5:      Singlet-A      2.3489 eV  527.84 nm  f=0.0000  <S**2>=0.000
     242 -> 247        0.70710

 The electronic state is 1-A.
 Alpha  occ. eigenvalues --  -46.26455 -18.82858 -18.82442 -18.77624 -18.76792
 Alpha  occ. eigenvalues --  -18.75564 -18.75133 -14.03589 -14.02532 -14.00993
 Alpha  occ. eigenvalues --  -13.99660 -10.05099 -10.04132  -9.99345  -9.99345
 Alpha  occ. eigenvalues --   -9.98400  -9.97707  -9.96764  -9.96399  -9.96384
 Alpha  occ. eigenvalues --   -9.95873  -9.95421  -9.95132  -9.94461  -9.94221
 Alpha  occ. eigenvalues --   -9.94188  -9.94109  -9.93868  -9.93653  -9.93430
 Alpha  occ. eigenvalues --   -9.93382  -9.93325  -9.93072  -9.92961  -9.92941
 Alpha  occ. eigenvalues --   -9.92855  -9.92703  -9.92678  -9.92569  -9.92547
 Alpha  occ. eigenvalues --   -9.92238  -9.92228  -9.92210  -9.92132  -9.92132
 Alpha  occ. eigenvalues --   -9.92001  -9.91973  -9.91925  -9.91917  -9.91888
 Alpha  occ. eigenvalues --   -9.91789  -9.91770  -9.91590  -9.91442  -9.91408
 Alpha  occ. eigenvalues --   -9.91256  -9.91217  -9.91206  -9.91158  -9.91134
 Alpha  occ. eigenvalues --   -9.91134  -9.91022  -9.90865  -9.90786  -9.90764
 Alpha  occ. eigenvalues --   -9.90137  -2.91131  -1.71574  -1.71017  -1.70826
 Alpha  occ. eigenvalues --   -0.97791  -0.96230  -0.92195  -0.90838  -0.89154
 Alpha  occ. eigenvalues --   -0.88874  -0.86826  -0.85782  -0.85052  -0.84491
 Alpha  occ. eigenvalues --   -0.76703  -0.74078  -0.72958  -0.72539  -0.71967
 Alpha  occ. eigenvalues --   -0.71722  -0.71614  -0.70733  -0.70610  -0.70369
 Alpha  occ. eigenvalues --   -0.69681  -0.68881  -0.67940  -0.67535  -0.66993
 Alpha  occ. eigenvalues --   -0.66236  -0.65864  -0.65665  -0.65038  -0.64541
 Alpha  occ. eigenvalues --   -0.63831  -0.62823  -0.62313  -0.61666  -0.61169
 Alpha  occ. eigenvalues --   -0.60875  -0.60204  -0.59746  -0.59429  -0.58686
 Alpha  occ. eigenvalues --   -0.58364  -0.57752  -0.56439  -0.55417  -0.55040
 Alpha  occ. eigenvalues --   -0.54344  -0.53945  -0.53200  -0.52638  -0.51389
 Alpha  occ. eigenvalues --   -0.50602  -0.50591  -0.50399  -0.50109  -0.49728
 Alpha  occ. eigenvalues --   -0.49247  -0.48815  -0.48331  -0.47858  -0.46732
 Alpha  occ. eigenvalues --   -0.46254  -0.45995  -0.45819  -0.45301  -0.44572
 Alpha  occ. eigenvalues --   -0.44066  -0.43437  -0.43059  -0.42982  -0.42817
 Alpha  occ. eigenvalues --   -0.42146  -0.41917  -0.41516  -0.41379  -0.41243
 Alpha  occ. eigenvalues --   -0.40958  -0.40702  -0.40458  -0.40327  -0.40201
 Alpha  occ. eigenvalues --   -0.39849  -0.39741  -0.39662  -0.39422  -0.39142
 Alpha  occ. eigenvalues --   -0.39119  -0.38883  -0.38788  -0.38478  -0.38193
 Alpha  occ. eigenvalues --   -0.38116  -0.37991  -0.37604  -0.37331  -0.37284
 Alpha  occ. eigenvalues --   -0.37177  -0.37029  -0.36810  -0.36644  -0.36449
 Alpha  occ. eigenvalues --   -0.36126  -0.36037  -0.35946  -0.35783  -0.35402
 Alpha  occ. eigenvalues --   -0.35298  -0.35083  -0.34992  -0.34785  -0.34724
 Alpha  occ. eigenvalues --   -0.34443  -0.34185  -0.33741  -0.33725  -0.33410
 Alpha  occ. eigenvalues --   -0.33389  -0.33334  -0.33218  -0.33011  -0.32891
 Alpha  occ. eigenvalues --   -0.32809  -0.32543  -0.32406  -0.32378  -0.32115
 Alpha  occ. eigenvalues --   -0.32053  -0.31809  -0.31685  -0.31604  -0.31324
 Alpha  occ. eigenvalues --   -0.31204  -0.30968  -0.30856  -0.30594  -0.30573
 Alpha  occ. eigenvalues --   -0.30224  -0.30168  -0.30096  -0.29897  -0.29850
 Alpha  occ. eigenvalues --   -0.29696  -0.29607  -0.29455  -0.29371  -0.29132
 Alpha  occ. eigenvalues --   -0.29052  -0.28663  -0.28371  -0.28175  -0.27621
 Alpha  occ. eigenvalues --   -0.27424  -0.26964  -0.26730  -0.26442  -0.26374
 Alpha  occ. eigenvalues --   -0.26064  -0.25987  -0.25595  -0.25497  -0.25479
 Alpha  occ. eigenvalues --   -0.25218  -0.24963  -0.24602  -0.24168  -0.23500
 Alpha  occ. eigenvalues --   -0.22481  -0.22165  -0.22100  -0.21667  -0.20969
 Alpha  occ. eigenvalues --   -0.20343  -0.20010  -0.18738  -0.18420  -0.17130
 Alpha  occ. eigenvalues --   -0.15504
 Alpha virt. eigenvalues --   -0.11377  -0.06790  -0.05955  -0.04845  -0.03766
 Alpha virt. eigenvalues --   -0.02950  -0.02108  -0.00795  -0.00736   0.00099
 Alpha virt. eigenvalues --    0.01262   0.01503   0.01752   0.02577   0.02623

 Mulliken charges:
               1
     1  Mg   0.695025
     2  C    0.064642
     3  C   -0.114375
     4  C   -0.047236
     5  C   -0.077519
     6  N   -0.247413
     7  C   -0.109256
     8  C    0.053699
     9  C   -0.067245
    10  C    0.114468
    11  C    0.111174
    12  C    0.141828
    13  C    0.075235
    14  C    0.107805
    15  O   -0.214783
    16  O   -0.289969
    17  N   -0.280863
    18  C    0.122561
    19  C   -0.126723
    20  C    0.053645
    21  C    0.106043
    22  C    0.167948
    23  C   -0.096560
    24  O   -0.174617
    25  C    0.149891
    26  N   -0.256246
    27  C   -0.005150
    28  C    0.083589
    29  C    0.037845
    30  C    0.035892
    31  C    0.126853
    32  C    0.061759
    33  C    0.069099
    34  N   -0.191165
    35  C    0.056012
    36  C   -0.198918
    37  C    0.094170
    38  C    0.025458
    39  C    0.178577
    40  C   -0.024216
    41  O   -0.097238
    42  C    0.110355
    43  C    0.081548
    44  O   -0.216335
    45  O   -0.261646
    46  C    0.229413
    47  C    0.343579
    48  C   -0.125600
    49  C   -0.172641
    50  C    0.160547
    51  C    0.171136
    52  C    0.004658
    53  C    0.100054
    54  C   -0.085924
    55  C    0.110372
    56  C    0.065709
    57  C    0.059882
    58  C    0.123079
    59  C   -0.079487
    60  C    0.118452
    61  C    0.084060
    62  C    0.058781
    63  C    0.078514
    64  C   -0.052294
    65  C    0.097296
    66  C    0.066055
    67  H   -0.049544
    68  H   -0.029809
    69  H   -0.057715
    70  H   -0.008088
    71  H   -0.018057
    72  H    0.009718
    73  H   -0.011743
    74  H   -0.020576
    75  H   -0.013524
    76  H   -0.010597
    77  H    0.026515
    78  H    0.000835
    79  H    0.002536
    80  H   -0.014452
    81  H    0.002742
    82  H    0.010750
    83  H    0.002786
    84  H   -0.017730
    85  H   -0.029855
    86  H   -0.038259
    87  H    0.006539
    88  H   -0.013050
    89  H   -0.003204
    90  H   -0.020390
    91  H   -0.026592
    92  H    0.000371
    93  H   -0.000200
    94  H   -0.010570
    95  H    0.019897
    96  H   -0.005903
    97  H   -0.014292
    98  H   -0.022668
    99  H    0.018167
   100  H    0.005192
   101  H    0.019397
   102  H    0.015147
   103  H   -0.003006
   104  H   -0.045666
   105  H    0.016160
   106  H   -0.024715
   107  H   -0.012223
   108  H   -0.032358
   109  H   -0.043093
   110  H   -0.020864
   111  H   -0.005161
   112  H   -0.016598
   113  H   -0.036356
   114  H   -0.030989
   115  H   -0.016225
   116  H   -0.021122
   117  H    0.006681
   118  H   -0.021228
   119  H   -0.042015
   120  H   -0.030084
   121  H   -0.035898
   122  H   -0.034109
   123  H   -0.041010
   124  H   -0.038193
   125  H   -0.013501
   126  H   -0.006825
   127  H   -0.011941
   128  H   -0.044354
   129  H   -0.038752
   130  H   -0.020882
   131  H   -0.035364
   132  H   -0.035926
   133  H   -0.025325
   134  H   -0.030835
   135  H   -0.025528
   136  H   -0.015583
   137  H   -0.012773
   138  H   -0.015143
   139  H   -0.012410
   140  H   -0.013845
 Sum of Mulliken charges =  -0.00000

 Dipole moment (field-independent basis, Debye):
    X=              3.0529    Y=              1.9708    Z=              0.9248  Tot=              3.7496
 Quadrupole moment (field-independent basis, Debye-Ang):
   XX=           -381.3209   YY=           -414.7139   ZZ=           -404.0438
   XY=              5.6076   XZ=             12.5996   YZ=              3.3808

 Normal termination of Gaussian 16 at Sat Apr 30 23:31:20 2022.
