 Gaussian 16, Revision A.03,
 Gaussian 16:  ES64L-G16RevA.03 25-Dec-2016

 -----------------------------------
 #p cam-b3lyp/Def2SVP td=(nstates=5)
 -----------------------------------

 -------------------------------------------------------
 step_951_chromophore_13 TDDFT with cam-b3lyp functional
 -------------------------------------------------------
 Symbolic Z-matrix:
 Charge =  0 Multiplicity = 1

                         Standard orientation:
 ---------------------------------------------------------------------
 Center     Atomic      Atomic             Coordinates (Angstroms)
 Number     Number       Type             X           Y           Z
 ---------------------------------------------------------------------
      1         12           0       -5.879991    0.397160   -0.091852
      2          6           0       -3.647546   -2.233574    0.012467
      3          6           0       -3.443969    2.543148    1.062473
      4          6           0       -8.186664    2.751067    0.151100
      5          6           0       -8.376590   -1.950814   -1.105434
      6          7           0       -3.847020    0.191409    0.431814
      7          6           0       -3.093421   -1.009436    0.411949
      8          6           0       -1.612214   -0.790294    0.821663
      9          6           0       -1.697232    0.716749    1.346453
     10          6           0       -3.167368    1.161891    1.038446
     11          6           0       -1.370690    0.853369    2.882439
     12          6           0       -0.730517   -0.949350   -0.386013
     13          6           0        0.468460   -1.907357   -0.270642
     14          6           0        1.743720   -1.544293   -1.105800
     15          8           0        1.733826   -0.758479   -2.088796
     16          8           0        2.898876   -2.173115   -0.573259
     17          7           0       -5.761966    2.388304    0.483469
     18          6           0       -4.717744    3.139265    0.879261
     19          6           0       -5.091490    4.541247    1.093781
     20          6           0       -6.484872    4.568563    0.835417
     21          6           0       -6.887734    3.205498    0.487437
     22          6           0       -4.116791    5.536688    1.672890
     23          6           0       -7.343357    5.769947    0.718944
     24          8           0       -8.540344    5.682911    0.425611
     25          6           0       -6.777896    7.103500    1.001989
     26          7           0       -7.961531    0.267703   -0.300093
     27          6           0       -8.702378    1.456936   -0.127459
     28          6           0      -10.152838    1.173870   -0.342673
     29          6           0      -10.207604   -0.218497   -0.885542
     30          6           0       -8.744704   -0.727196   -0.800771
     31          6           0      -11.035088    1.565614    0.931043
     32          6           0      -10.774032   -0.310043   -2.368361
     33          6           0       -9.861403    0.174756   -3.529305
     34          7           0       -6.087183   -1.736938   -0.458667
     35          6           0       -7.141872   -2.502875   -0.816314
     36          6           0       -6.634913   -3.912392   -0.999808
     37          6           0       -5.340396   -3.788314   -0.588125
     38          6           0       -5.005480   -2.490345   -0.353317
     39          6           0       -7.565722   -4.964393   -1.479868
     40          6           0       -4.095022   -4.561744   -0.400452
     41          8           0       -3.887207   -5.735486   -0.581614
     42          6           0       -3.059215   -3.586101    0.040140
     43          6           0       -2.526905   -3.898896    1.402715
     44          8           0       -3.065884   -3.597073    2.487954
     45          8           0       -1.498301   -4.791787    1.296385
     46          6           0       -1.178660   -5.431829    2.599343
     47          6           0        4.164297   -1.987687   -1.264560
     48          6           0        4.942069   -0.962106   -0.443773
     49          6           0        6.223519   -0.645775   -0.342852
     50          6           0        7.198830   -1.132592   -1.331554
     51          6           0        6.715882    0.304207    0.675080
     52          6           0        7.391649    1.606066    0.058060
     53          6           0        8.883327    1.937776    0.356164
     54          6           0        9.665162    2.680046   -0.798933
     55          6           0        8.904772    3.875262   -1.456760
     56          6           0       10.068463    1.669744   -1.960664
     57          6           0       11.510493    1.903245   -2.512383
     58          6           0       12.618952    0.861487   -2.218089
     59          6           0       13.840131    1.435007   -1.442187
     60          6           0       14.865118    2.350721   -2.282450
     61          6           0       14.549925    0.347152   -0.576048
     62          6           0       14.097390    0.293106    0.928945
     63          6           0       13.232625   -0.968723    1.144701
     64          6           0       12.580338   -1.126221    2.557255
     65          6           0       13.277488   -2.175566    3.416903
     66          6           0       11.031707   -1.414973    2.389707
     67          1           0       -2.585939    3.176705    1.296383
     68          1           0       -8.919106    3.538904   -0.039360
     69          1           0       -9.186662   -2.646664   -1.333995
     70          1           0       -1.337262   -1.462317    1.634646
     71          1           0       -0.943386    1.364513    0.900879
     72          1           0       -1.557858   -0.102462    3.372071
     73          1           0       -1.880596    1.753734    3.223713
     74          1           0       -0.305882    1.062759    2.983379
     75          1           0       -0.231288   -0.029123   -0.688467
     76          1           0       -1.340336   -1.245386   -1.239983
     77          1           0        0.228479   -2.896867   -0.661941
     78          1           0        0.748229   -1.958946    0.781539
     79          1           0       -3.926133    6.285401    0.904084
     80          1           0       -3.208370    5.030952    2.000976
     81          1           0       -4.426202    6.059898    2.577366
     82          1           0       -6.009515    7.379995    0.280784
     83          1           0       -6.442349    7.153581    2.038140
     84          1           0       -7.547087    7.876610    0.998488
     85          1           0      -10.454178    1.707573   -1.244230
     86          1           0      -10.805690   -0.816368   -0.198435
     87          1           0      -10.440095    2.100733    1.671384
     88          1           0      -11.541535    0.788185    1.502228
     89          1           0      -11.846009    2.173135    0.530523
     90          1           0      -11.745965    0.179136   -2.432929
     91          1           0      -11.026887   -1.359243   -2.521464
     92          1           0       -9.301207   -0.666737   -3.936481
     93          1           0       -9.198505    0.965520   -3.177796
     94          1           0      -10.372085    0.651647   -4.364724
     95          1           0       -7.921509   -5.545964   -0.629172
     96          1           0       -7.033135   -5.572786   -2.210926
     97          1           0       -8.357800   -4.583883   -2.126013
     98          1           0       -2.126298   -3.558454   -0.521854
     99          1           0       -2.133261   -5.743717    3.021639
    100          1           0       -0.745456   -4.681298    3.260377
    101          1           0       -0.510192   -6.291779    2.622482
    102          1           0        4.100475   -1.790368   -2.335173
    103          1           0        4.722573   -2.912996   -1.125663
    104          1           0        4.326993   -0.366171    0.229717
    105          1           0        7.254911   -0.425961   -2.159498
    106          1           0        6.830535   -2.082060   -1.718931
    107          1           0        8.161352   -1.312980   -0.853126
    108          1           0        7.430744   -0.325159    1.204613
    109          1           0        6.113636    0.533722    1.554108
    110          1           0        6.831068    2.435524    0.488559
    111          1           0        7.343284    1.646048   -1.031102
    112          1           0        9.261689    0.968252    0.681675
    113          1           0        8.741014    2.691710    1.129711
    114          1           0       10.615114    3.007454   -0.374755
    115          1           0        9.194547    3.938700   -2.504695
    116          1           0        9.340517    4.782951   -1.039149
    117          1           0        7.826491    3.818374   -1.305330
    118          1           0        9.357174    1.672433   -2.787401
    119          1           0       10.093606    0.688370   -1.486794
    120          1           0       11.713508    2.874581   -2.062601
    121          1           0       11.456443    2.013280   -3.595289
    122          1           0       12.917650    0.430055   -3.173438
    123          1           0       12.199196    0.032526   -1.648696
    124          1           0       13.428208    2.094940   -0.678467
    125          1           0       14.456899    2.403016   -3.291584
    126          1           0       15.855389    1.905255   -2.189920
    127          1           0       14.848683    3.341433   -1.828653
    128          1           0       15.638606    0.395300   -0.554015
    129          1           0       14.319805   -0.620424   -1.021121
    130          1           0       13.598053    1.212327    1.237635
    131          1           0       15.027737    0.180158    1.485159
    132          1           0       13.977428   -1.755698    1.027798
    133          1           0       12.518111   -1.081490    0.330235
    134          1           0       12.649041   -0.254494    3.207536
    135          1           0       12.769059   -3.134346    3.310438
    136          1           0       13.187123   -1.909186    4.469868
    137          1           0       14.311666   -2.344197    3.117590
    138          1           0       10.775546   -2.460316    2.562800
    139          1           0       10.670764   -1.177483    1.388423
    140          1           0       10.390568   -0.762339    2.982779
 ---------------------------------------------------------------------

 SCF Done:  E(RCAM-B3LYP) =  -3007.15745367     A.U. after   18 cycles

 Excitation energies and oscillator strengths:

 Excited State   1:      Singlet-A      1.6859 eV  735.41 nm  f=0.4005  <S**2>=0.000
     245 -> 248       -0.16449
     246 -> 247        0.68882
     245 <- 248       -0.10154
 This state for optimization and/or second-order correction.
 Total Energy, E(TD-HF/TD-DFT) =  -3007.09549745
 Copying the excited state density for this state as the 1-particle RhoCI density.

 Excited State   2:      Singlet-A      2.2304 eV  555.90 nm  f=0.1008  <S**2>=0.000
     245 -> 247        0.63635
     246 -> 248        0.29142

 Excited State   3:      Singlet-A      3.4380 eV  360.63 nm  f=0.1320  <S**2>=0.000
     242 -> 247       -0.32188
     244 -> 247        0.52295
     245 -> 247       -0.12832
     246 -> 248        0.29376

 Excited State   4:      Singlet-A      3.4864 eV  355.62 nm  f=0.3287  <S**2>=0.000
     242 -> 247       -0.13134
     244 -> 247       -0.40855
     245 -> 247       -0.20978
     246 -> 248        0.50735

 Excited State   5:      Singlet-A      3.5789 eV  346.43 nm  f=0.0171  <S**2>=0.000
     239 -> 247        0.13048
     240 -> 247        0.51112
     240 -> 248       -0.20574
     240 -> 249        0.28202
     240 -> 250        0.18155
     242 -> 247        0.10849

 The electronic state is 1-A.
 Alpha  occ. eigenvalues --  -46.87943 -19.25786 -19.25328 -19.20649 -19.19898
 Alpha  occ. eigenvalues --  -19.18629 -19.18622 -14.42524 -14.41347 -14.39594
 Alpha  occ. eigenvalues --  -14.37855 -10.40639 -10.39644 -10.34776 -10.34420
 Alpha  occ. eigenvalues --  -10.32410 -10.31706 -10.31107 -10.31098 -10.31054
 Alpha  occ. eigenvalues --  -10.30625 -10.30063 -10.29178 -10.29156 -10.28287
 Alpha  occ. eigenvalues --  -10.28286 -10.28253 -10.27999 -10.27831 -10.27624
 Alpha  occ. eigenvalues --  -10.27534 -10.27248 -10.27210 -10.26942 -10.26903
 Alpha  occ. eigenvalues --  -10.26867 -10.26823 -10.26522 -10.26518 -10.26409
 Alpha  occ. eigenvalues --  -10.26119 -10.26048 -10.25951 -10.25938 -10.25937
 Alpha  occ. eigenvalues --  -10.25931 -10.25831 -10.25794 -10.25667 -10.25551
 Alpha  occ. eigenvalues --  -10.25509 -10.25403 -10.25317 -10.25135 -10.25027
 Alpha  occ. eigenvalues --  -10.24973 -10.24933 -10.24881 -10.24836 -10.24833
 Alpha  occ. eigenvalues --  -10.24814 -10.24697 -10.24673 -10.24568 -10.24348
 Alpha  occ. eigenvalues --  -10.23906  -3.16526  -1.91445  -1.90994  -1.90813
 Alpha  occ. eigenvalues --   -1.16288  -1.14594  -1.10510  -1.09488  -1.07016
 Alpha  occ. eigenvalues --   -1.06777  -1.04328  -1.03549  -1.02704  -1.02018
 Alpha  occ. eigenvalues --   -0.93807  -0.90991  -0.89770  -0.89328  -0.88647
 Alpha  occ. eigenvalues --   -0.88413  -0.88221  -0.87721  -0.87194  -0.86922
 Alpha  occ. eigenvalues --   -0.85991  -0.85262  -0.84177  -0.83697  -0.83179
 Alpha  occ. eigenvalues --   -0.82340  -0.82109  -0.81552  -0.80853  -0.80409
 Alpha  occ. eigenvalues --   -0.79587  -0.78748  -0.77918  -0.77093  -0.76577
 Alpha  occ. eigenvalues --   -0.76240  -0.75575  -0.74983  -0.74704  -0.73910
 Alpha  occ. eigenvalues --   -0.73427  -0.72700  -0.71350  -0.70265  -0.69569
 Alpha  occ. eigenvalues --   -0.69013  -0.68486  -0.67937  -0.67098  -0.65512
 Alpha  occ. eigenvalues --   -0.64797  -0.64689  -0.64293  -0.64075  -0.63766
 Alpha  occ. eigenvalues --   -0.62907  -0.62709  -0.62025  -0.61634  -0.60544
 Alpha  occ. eigenvalues --   -0.59768  -0.59597  -0.59418  -0.58609  -0.58191
 Alpha  occ. eigenvalues --   -0.57504  -0.56916  -0.56231  -0.56060  -0.55945
 Alpha  occ. eigenvalues --   -0.55187  -0.55016  -0.54600  -0.54296  -0.54166
 Alpha  occ. eigenvalues --   -0.54076  -0.53397  -0.53270  -0.53166  -0.53010
 Alpha  occ. eigenvalues --   -0.52755  -0.52413  -0.52235  -0.52029  -0.51773
 Alpha  occ. eigenvalues --   -0.51501  -0.51458  -0.51274  -0.50979  -0.50612
 Alpha  occ. eigenvalues --   -0.50423  -0.50335  -0.49970  -0.49890  -0.49781
 Alpha  occ. eigenvalues --   -0.49458  -0.49366  -0.49108  -0.48874  -0.48719
 Alpha  occ. eigenvalues --   -0.48681  -0.48386  -0.48114  -0.48054  -0.47701
 Alpha  occ. eigenvalues --   -0.47512  -0.47229  -0.46983  -0.46883  -0.46652
 Alpha  occ. eigenvalues --   -0.46224  -0.46057  -0.45444  -0.45342  -0.45289
 Alpha  occ. eigenvalues --   -0.45175  -0.45027  -0.44827  -0.44693  -0.44528
 Alpha  occ. eigenvalues --   -0.44364  -0.44228  -0.44137  -0.43922  -0.43869
 Alpha  occ. eigenvalues --   -0.43767  -0.43416  -0.43365  -0.43040  -0.42929
 Alpha  occ. eigenvalues --   -0.42754  -0.42620  -0.42500  -0.42109  -0.42015
 Alpha  occ. eigenvalues --   -0.41926  -0.41844  -0.41757  -0.41364  -0.40917
 Alpha  occ. eigenvalues --   -0.40903  -0.40777  -0.40755  -0.40654  -0.40233
 Alpha  occ. eigenvalues --   -0.40148  -0.39730  -0.39325  -0.39111  -0.38580
 Alpha  occ. eigenvalues --   -0.38396  -0.37738  -0.37649  -0.37498  -0.37211
 Alpha  occ. eigenvalues --   -0.37010  -0.36783  -0.36595  -0.36459  -0.36195
 Alpha  occ. eigenvalues --   -0.36098  -0.35756  -0.35259  -0.34552  -0.34304
 Alpha  occ. eigenvalues --   -0.34267  -0.33371  -0.32848  -0.31306  -0.31083
 Alpha  occ. eigenvalues --   -0.30690  -0.30424  -0.29603  -0.29437  -0.23989
 Alpha  occ. eigenvalues --   -0.20711
 Alpha virt. eigenvalues --   -0.08495  -0.01431   0.00577   0.02032   0.03317
 Alpha virt. eigenvalues --    0.04194   0.04767   0.05964   0.06285   0.06817
 Alpha virt. eigenvalues --    0.07506   0.07854   0.08741   0.08838   0.08912

 Mulliken charges:
               1
     1  Mg   0.830176
     2  C    0.039622
     3  C   -0.124095
     4  C   -0.070039
     5  C   -0.083402
     6  N   -0.317805
     7  C   -0.067889
     8  C   -0.000895
     9  C   -0.116937
    10  C    0.130813
    11  C    0.059643
    12  C    0.085379
    13  C    0.008648
    14  C    0.193608
    15  O   -0.255972
    16  O   -0.355437
    17  N   -0.370026
    18  C    0.128969
    19  C   -0.125799
    20  C   -0.012669
    21  C    0.132337
    22  C    0.110757
    23  C   -0.015563
    24  O   -0.215191
    25  C    0.062743
    26  N   -0.328966
    27  C    0.020089
    28  C    0.016486
    29  C   -0.010354
    30  C    0.050568
    31  C    0.069092
    32  C    0.006491
    33  C    0.008172
    34  N   -0.278509
    35  C    0.059717
    36  C   -0.195422
    37  C    0.013177
    38  C    0.060296
    39  C    0.126359
    40  C    0.074475
    41  O   -0.136319
    42  C    0.029284
    43  C    0.169710
    44  O   -0.251811
    45  O   -0.323751
    46  C    0.186555
    47  C    0.308576
    48  C   -0.141630
    49  C   -0.194563
    50  C    0.099962
    51  C    0.113347
    52  C   -0.054299
    53  C    0.058109
    54  C   -0.139856
    55  C    0.050090
    56  C    0.016038
    57  C    0.009149
    58  C    0.070238
    59  C   -0.132812
    60  C    0.062974
    61  C    0.029251
    62  C    0.007515
    63  C    0.026639
    64  C   -0.115668
    65  C    0.041587
    66  C    0.016507
    67  H   -0.015437
    68  H    0.011565
    69  H   -0.024300
    70  H    0.022880
    71  H    0.016217
    72  H    0.033527
    73  H    0.012485
    74  H    0.004578
    75  H    0.019840
    76  H    0.022330
    77  H    0.054625
    78  H    0.032682
    79  H    0.029436
    80  H    0.014536
    81  H    0.030842
    82  H    0.039120
    83  H    0.031152
    84  H    0.020364
    85  H    0.006619
    86  H   -0.001358
    87  H    0.031786
    88  H    0.012743
    89  H    0.020267
    90  H    0.007720
    91  H    0.001620
    92  H    0.023967
    93  H    0.018695
    94  H    0.014420
    95  H    0.044270
    96  H    0.020176
    97  H    0.010190
    98  H    0.020673
    99  H    0.043160
   100  H    0.027787
   101  H    0.044112
   102  H    0.046296
   103  H    0.025005
   104  H   -0.014121
   105  H    0.039328
   106  H    0.000237
   107  H    0.009997
   108  H   -0.004737
   109  H   -0.009211
   110  H    0.007345
   111  H    0.018263
   112  H    0.004649
   113  H   -0.006771
   114  H    0.000321
   115  H    0.008334
   116  H    0.004270
   117  H    0.029752
   118  H    0.005655
   119  H   -0.017838
   120  H   -0.004393
   121  H   -0.006300
   122  H   -0.004453
   123  H   -0.015327
   124  H   -0.009058
   125  H    0.009104
   126  H    0.016012
   127  H    0.011378
   128  H   -0.013441
   129  H   -0.009496
   130  H    0.004712
   131  H   -0.006764
   132  H   -0.007556
   133  H   -0.001356
   134  H    0.001073
   135  H   -0.002310
   136  H    0.008734
   137  H    0.010503
   138  H    0.008321
   139  H    0.004113
   140  H    0.008973
 Sum of Mulliken charges =  -0.00000

 Dipole moment (field-independent basis, Debye):
    X=              3.1384    Y=              2.9991    Z=              1.2927  Tot=              4.5294
 Quadrupole moment (field-independent basis, Debye-Ang):
   XX=           -381.3607   YY=           -409.4673   ZZ=           -403.7647
   XY=             -0.7432   XZ=             12.1847   YZ=              4.6629

 Normal termination of Gaussian 16 at Sat Apr 30 22:26:07 2022.
