 Gaussian 16, Revision A.03,
 Gaussian 16:  ES64L-G16RevA.03 25-Dec-2016

 ---------------------------------
 #p PBE1PBE/Def2SVP td=(nstates=5)
 ---------------------------------

 -----------------------------------------------------
 step_951_chromophore_13 TDDFT with PBE1PBE functional
 -----------------------------------------------------
 Symbolic Z-matrix:
 Charge =  0 Multiplicity = 1

                         Standard orientation:
 ---------------------------------------------------------------------
 Center     Atomic      Atomic             Coordinates (Angstroms)
 Number     Number       Type             X           Y           Z
 ---------------------------------------------------------------------
      1         12           0       -5.879991    0.397160   -0.091852
      2          6           0       -3.647546   -2.233574    0.012467
      3          6           0       -3.443969    2.543148    1.062473
      4          6           0       -8.186664    2.751067    0.151100
      5          6           0       -8.376590   -1.950814   -1.105434
      6          7           0       -3.847020    0.191409    0.431814
      7          6           0       -3.093421   -1.009436    0.411949
      8          6           0       -1.612214   -0.790294    0.821663
      9          6           0       -1.697232    0.716749    1.346453
     10          6           0       -3.167368    1.161891    1.038446
     11          6           0       -1.370690    0.853369    2.882439
     12          6           0       -0.730517   -0.949350   -0.386013
     13          6           0        0.468460   -1.907357   -0.270642
     14          6           0        1.743720   -1.544293   -1.105800
     15          8           0        1.733826   -0.758479   -2.088796
     16          8           0        2.898876   -2.173115   -0.573259
     17          7           0       -5.761966    2.388304    0.483469
     18          6           0       -4.717744    3.139265    0.879261
     19          6           0       -5.091490    4.541247    1.093781
     20          6           0       -6.484872    4.568563    0.835417
     21          6           0       -6.887734    3.205498    0.487437
     22          6           0       -4.116791    5.536688    1.672890
     23          6           0       -7.343357    5.769947    0.718944
     24          8           0       -8.540344    5.682911    0.425611
     25          6           0       -6.777896    7.103500    1.001989
     26          7           0       -7.961531    0.267703   -0.300093
     27          6           0       -8.702378    1.456936   -0.127459
     28          6           0      -10.152838    1.173870   -0.342673
     29          6           0      -10.207604   -0.218497   -0.885542
     30          6           0       -8.744704   -0.727196   -0.800771
     31          6           0      -11.035088    1.565614    0.931043
     32          6           0      -10.774032   -0.310043   -2.368361
     33          6           0       -9.861403    0.174756   -3.529305
     34          7           0       -6.087183   -1.736938   -0.458667
     35          6           0       -7.141872   -2.502875   -0.816314
     36          6           0       -6.634913   -3.912392   -0.999808
     37          6           0       -5.340396   -3.788314   -0.588125
     38          6           0       -5.005480   -2.490345   -0.353317
     39          6           0       -7.565722   -4.964393   -1.479868
     40          6           0       -4.095022   -4.561744   -0.400452
     41          8           0       -3.887207   -5.735486   -0.581614
     42          6           0       -3.059215   -3.586101    0.040140
     43          6           0       -2.526905   -3.898896    1.402715
     44          8           0       -3.065884   -3.597073    2.487954
     45          8           0       -1.498301   -4.791787    1.296385
     46          6           0       -1.178660   -5.431829    2.599343
     47          6           0        4.164297   -1.987687   -1.264560
     48          6           0        4.942069   -0.962106   -0.443773
     49          6           0        6.223519   -0.645775   -0.342852
     50          6           0        7.198830   -1.132592   -1.331554
     51          6           0        6.715882    0.304207    0.675080
     52          6           0        7.391649    1.606066    0.058060
     53          6           0        8.883327    1.937776    0.356164
     54          6           0        9.665162    2.680046   -0.798933
     55          6           0        8.904772    3.875262   -1.456760
     56          6           0       10.068463    1.669744   -1.960664
     57          6           0       11.510493    1.903245   -2.512383
     58          6           0       12.618952    0.861487   -2.218089
     59          6           0       13.840131    1.435007   -1.442187
     60          6           0       14.865118    2.350721   -2.282450
     61          6           0       14.549925    0.347152   -0.576048
     62          6           0       14.097390    0.293106    0.928945
     63          6           0       13.232625   -0.968723    1.144701
     64          6           0       12.580338   -1.126221    2.557255
     65          6           0       13.277488   -2.175566    3.416903
     66          6           0       11.031707   -1.414973    2.389707
     67          1           0       -2.585939    3.176705    1.296383
     68          1           0       -8.919106    3.538904   -0.039360
     69          1           0       -9.186662   -2.646664   -1.333995
     70          1           0       -1.337262   -1.462317    1.634646
     71          1           0       -0.943386    1.364513    0.900879
     72          1           0       -1.557858   -0.102462    3.372071
     73          1           0       -1.880596    1.753734    3.223713
     74          1           0       -0.305882    1.062759    2.983379
     75          1           0       -0.231288   -0.029123   -0.688467
     76          1           0       -1.340336   -1.245386   -1.239983
     77          1           0        0.228479   -2.896867   -0.661941
     78          1           0        0.748229   -1.958946    0.781539
     79          1           0       -3.926133    6.285401    0.904084
     80          1           0       -3.208370    5.030952    2.000976
     81          1           0       -4.426202    6.059898    2.577366
     82          1           0       -6.009515    7.379995    0.280784
     83          1           0       -6.442349    7.153581    2.038140
     84          1           0       -7.547087    7.876610    0.998488
     85          1           0      -10.454178    1.707573   -1.244230
     86          1           0      -10.805690   -0.816368   -0.198435
     87          1           0      -10.440095    2.100733    1.671384
     88          1           0      -11.541535    0.788185    1.502228
     89          1           0      -11.846009    2.173135    0.530523
     90          1           0      -11.745965    0.179136   -2.432929
     91          1           0      -11.026887   -1.359243   -2.521464
     92          1           0       -9.301207   -0.666737   -3.936481
     93          1           0       -9.198505    0.965520   -3.177796
     94          1           0      -10.372085    0.651647   -4.364724
     95          1           0       -7.921509   -5.545964   -0.629172
     96          1           0       -7.033135   -5.572786   -2.210926
     97          1           0       -8.357800   -4.583883   -2.126013
     98          1           0       -2.126298   -3.558454   -0.521854
     99          1           0       -2.133261   -5.743717    3.021639
    100          1           0       -0.745456   -4.681298    3.260377
    101          1           0       -0.510192   -6.291779    2.622482
    102          1           0        4.100475   -1.790368   -2.335173
    103          1           0        4.722573   -2.912996   -1.125663
    104          1           0        4.326993   -0.366171    0.229717
    105          1           0        7.254911   -0.425961   -2.159498
    106          1           0        6.830535   -2.082060   -1.718931
    107          1           0        8.161352   -1.312980   -0.853126
    108          1           0        7.430744   -0.325159    1.204613
    109          1           0        6.113636    0.533722    1.554108
    110          1           0        6.831068    2.435524    0.488559
    111          1           0        7.343284    1.646048   -1.031102
    112          1           0        9.261689    0.968252    0.681675
    113          1           0        8.741014    2.691710    1.129711
    114          1           0       10.615114    3.007454   -0.374755
    115          1           0        9.194547    3.938700   -2.504695
    116          1           0        9.340517    4.782951   -1.039149
    117          1           0        7.826491    3.818374   -1.305330
    118          1           0        9.357174    1.672433   -2.787401
    119          1           0       10.093606    0.688370   -1.486794
    120          1           0       11.713508    2.874581   -2.062601
    121          1           0       11.456443    2.013280   -3.595289
    122          1           0       12.917650    0.430055   -3.173438
    123          1           0       12.199196    0.032526   -1.648696
    124          1           0       13.428208    2.094940   -0.678467
    125          1           0       14.456899    2.403016   -3.291584
    126          1           0       15.855389    1.905255   -2.189920
    127          1           0       14.848683    3.341433   -1.828653
    128          1           0       15.638606    0.395300   -0.554015
    129          1           0       14.319805   -0.620424   -1.021121
    130          1           0       13.598053    1.212327    1.237635
    131          1           0       15.027737    0.180158    1.485159
    132          1           0       13.977428   -1.755698    1.027798
    133          1           0       12.518111   -1.081490    0.330235
    134          1           0       12.649041   -0.254494    3.207536
    135          1           0       12.769059   -3.134346    3.310438
    136          1           0       13.187123   -1.909186    4.469868
    137          1           0       14.311666   -2.344197    3.117590
    138          1           0       10.775546   -2.460316    2.562800
    139          1           0       10.670764   -1.177483    1.388423
    140          1           0       10.390568   -0.762339    2.982779
 ---------------------------------------------------------------------

 SCF Done:  E(RPBE1PBE) =  -3005.34578840     A.U. after   16 cycles

 Excitation energies and oscillator strengths:

 Excited State   1:      Singlet-A      1.8346 eV  675.82 nm  f=0.3890  <S**2>=0.000
     245 -> 248       -0.15676
     246 -> 247        0.69685
     246 <- 247       -0.11676
 This state for optimization and/or second-order correction.
 Total Energy, E(TD-HF/TD-DFT) =  -3005.27836891
 Copying the excited state density for this state as the 1-particle RhoCI density.

 Excited State   2:      Singlet-A      2.2342 eV  554.94 nm  f=0.0972  <S**2>=0.000
     245 -> 247        0.64754
     246 -> 248        0.26525

 Excited State   3:      Singlet-A      3.0606 eV  405.09 nm  f=0.0008  <S**2>=0.000
     241 -> 247        0.23910
     242 -> 247        0.47252
     242 -> 249       -0.11653
     243 -> 247       -0.42634

 Excited State   4:      Singlet-A      3.0770 eV  402.93 nm  f=0.0007  <S**2>=0.000
     241 -> 249       -0.10206
     242 -> 247        0.45103
     243 -> 247        0.49333

 Excited State   5:      Singlet-A      3.1561 eV  392.83 nm  f=0.0039  <S**2>=0.000
     241 -> 247        0.62418
     241 -> 249        0.10056
     242 -> 247       -0.12601
     243 -> 247        0.24042

 The electronic state is 1-A.
 Alpha  occ. eigenvalues --  -46.91342 -19.26476 -19.26085 -19.20983 -19.20197
 Alpha  occ. eigenvalues --  -19.18952 -19.18676 -14.42029 -14.40913 -14.39166
 Alpha  occ. eigenvalues --  -14.37604 -10.37751 -10.36725 -10.31704 -10.31665
 Alpha  occ. eigenvalues --  -10.29834 -10.29064 -10.28966 -10.28719 -10.28648
 Alpha  occ. eigenvalues --  -10.28118 -10.27524 -10.27052 -10.26553 -10.26281
 Alpha  occ. eigenvalues --  -10.26147 -10.25806 -10.25778 -10.25496 -10.25386
 Alpha  occ. eigenvalues --  -10.25122 -10.24911 -10.24875 -10.24739 -10.24713
 Alpha  occ. eigenvalues --  -10.24604 -10.24489 -10.24261 -10.24228 -10.24062
 Alpha  occ. eigenvalues --  -10.23752 -10.23621 -10.23556 -10.23532 -10.23525
 Alpha  occ. eigenvalues --  -10.23385 -10.23316 -10.23261 -10.23169 -10.23097
 Alpha  occ. eigenvalues --  -10.22919 -10.22895 -10.22860 -10.22698 -10.22666
 Alpha  occ. eigenvalues --  -10.22479 -10.22476 -10.22429 -10.22406 -10.22370
 Alpha  occ. eigenvalues --  -10.22254 -10.22235 -10.22165 -10.22096 -10.21785
 Alpha  occ. eigenvalues --  -10.21730  -3.13505  -1.86365  -1.85894  -1.85713
 Alpha  occ. eigenvalues --   -1.11089  -1.09428  -1.05371  -1.04033  -1.01901
 Alpha  occ. eigenvalues --   -1.01618  -0.99158  -0.98121  -0.97283  -0.96647
 Alpha  occ. eigenvalues --   -0.88280  -0.85148  -0.84033  -0.83404  -0.82994
 Alpha  occ. eigenvalues --   -0.82511  -0.82504  -0.81829  -0.81533  -0.81025
 Alpha  occ. eigenvalues --   -0.80472  -0.79509  -0.78411  -0.77978  -0.77413
 Alpha  occ. eigenvalues --   -0.76489  -0.76211  -0.75878  -0.75111  -0.74719
 Alpha  occ. eigenvalues --   -0.73756  -0.72939  -0.72225  -0.71446  -0.70747
 Alpha  occ. eigenvalues --   -0.70559  -0.69669  -0.69358  -0.68845  -0.68086
 Alpha  occ. eigenvalues --   -0.67786  -0.67153  -0.65766  -0.64563  -0.63987
 Alpha  occ. eigenvalues --   -0.63292  -0.62962  -0.62281  -0.61296  -0.59978
 Alpha  occ. eigenvalues --   -0.59206  -0.59008  -0.58885  -0.58596  -0.57887
 Alpha  occ. eigenvalues --   -0.57480  -0.56912  -0.56663  -0.55884  -0.54972
 Alpha  occ. eigenvalues --   -0.54218  -0.54074  -0.54008  -0.53290  -0.52637
 Alpha  occ. eigenvalues --   -0.52083  -0.51385  -0.50814  -0.50573  -0.50503
 Alpha  occ. eigenvalues --   -0.49714  -0.49533  -0.49160  -0.48916  -0.48756
 Alpha  occ. eigenvalues --   -0.48432  -0.47874  -0.47710  -0.47466  -0.47428
 Alpha  occ. eigenvalues --   -0.47252  -0.46992  -0.46747  -0.46607  -0.46314
 Alpha  occ. eigenvalues --   -0.46097  -0.46059  -0.45824  -0.45470  -0.45144
 Alpha  occ. eigenvalues --   -0.45016  -0.44899  -0.44549  -0.44459  -0.44424
 Alpha  occ. eigenvalues --   -0.44026  -0.43921  -0.43735  -0.43475  -0.43315
 Alpha  occ. eigenvalues --   -0.43275  -0.42970  -0.42770  -0.42604  -0.42281
 Alpha  occ. eigenvalues --   -0.42162  -0.41872  -0.41726  -0.41546  -0.41371
 Alpha  occ. eigenvalues --   -0.40907  -0.40839  -0.40149  -0.40108  -0.40032
 Alpha  occ. eigenvalues --   -0.39969  -0.39623  -0.39500  -0.39477  -0.39256
 Alpha  occ. eigenvalues --   -0.39100  -0.39010  -0.38897  -0.38701  -0.38586
 Alpha  occ. eigenvalues --   -0.38515  -0.38244  -0.38161  -0.37744  -0.37628
 Alpha  occ. eigenvalues --   -0.37501  -0.37443  -0.37379  -0.36927  -0.36757
 Alpha  occ. eigenvalues --   -0.36733  -0.36603  -0.36535  -0.36098  -0.35813
 Alpha  occ. eigenvalues --   -0.35671  -0.35623  -0.35551  -0.35498  -0.35175
 Alpha  occ. eigenvalues --   -0.34971  -0.34583  -0.34129  -0.34082  -0.33520
 Alpha  occ. eigenvalues --   -0.33396  -0.32662  -0.32575  -0.32282  -0.32071
 Alpha  occ. eigenvalues --   -0.31969  -0.31616  -0.31576  -0.31509  -0.31250
 Alpha  occ. eigenvalues --   -0.30981  -0.30720  -0.30169  -0.29532  -0.29143
 Alpha  occ. eigenvalues --   -0.29108  -0.28608  -0.28463  -0.26894  -0.26032
 Alpha  occ. eigenvalues --   -0.25675  -0.25606  -0.25170  -0.24916  -0.20860
 Alpha  occ. eigenvalues --   -0.18386
 Alpha virt. eigenvalues --   -0.10968  -0.05019  -0.03648  -0.02324  -0.00535
 Alpha virt. eigenvalues --    0.00062   0.00346   0.01870   0.02184   0.03061
 Alpha virt. eigenvalues --    0.03982   0.04258   0.04634   0.05433   0.05528

 Mulliken charges:
               1
     1  Mg   0.981115
     2  C    0.023469
     3  C   -0.110295
     4  C   -0.056936
     5  C   -0.077320
     6  N   -0.425302
     7  C    0.001894
     8  C   -0.074496
     9  C   -0.190044
    10  C    0.167223
    11  C    0.003799
    12  C    0.042981
    13  C   -0.068169
    14  C    0.256763
    15  O   -0.285643
    16  O   -0.384495
    17  N   -0.484497
    18  C    0.146515
    19  C   -0.148132
    20  C   -0.064061
    21  C    0.159228
    22  C    0.052078
    23  C    0.033614
    24  O   -0.254303
    25  C   -0.009237
    26  N   -0.433738
    27  C    0.044952
    28  C   -0.061271
    29  C   -0.080812
    30  C    0.089023
    31  C    0.011550
    32  C   -0.059219
    33  C   -0.065267
    34  N   -0.408450
    35  C    0.094741
    36  C   -0.212053
    37  C   -0.048960
    38  C    0.126533
    39  C    0.073962
    40  C    0.182045
    41  O   -0.184891
    42  C   -0.086913
    43  C    0.256217
    44  O   -0.282988
    45  O   -0.355081
    46  C    0.129448
    47  C    0.263905
    48  C   -0.138975
    49  C   -0.251119
    50  C    0.037698
    51  C    0.054003
    52  C   -0.117997
    53  C   -0.005362
    54  C   -0.227152
    55  C   -0.009473
    56  C   -0.040357
    57  C   -0.049842
    58  C    0.009452
    59  C   -0.216144
    60  C    0.001169
    61  C   -0.023712
    62  C   -0.055579
    63  C   -0.035959
    64  C   -0.206132
    65  C   -0.017536
    66  C   -0.043694
    67  H    0.015173
    68  H    0.042964
    69  H    0.005976
    70  H    0.061044
    71  H    0.050922
    72  H    0.059692
    73  H    0.041073
    74  H    0.033015
    75  H    0.052277
    76  H    0.055399
    77  H    0.086804
    78  H    0.063753
    79  H    0.056719
    80  H    0.040335
    81  H    0.056674
    82  H    0.065212
    83  H    0.057485
    84  H    0.047502
    85  H    0.046048
    86  H    0.036953
    87  H    0.059591
    88  H    0.039007
    89  H    0.047190
    90  H    0.041499
    91  H    0.034554
    92  H    0.051554
    93  H    0.048367
    94  H    0.043012
    95  H    0.072767
    96  H    0.049644
    97  H    0.036512
    98  H    0.063620
    99  H    0.065231
   100  H    0.050559
   101  H    0.066157
   102  H    0.071446
   103  H    0.052613
   104  H    0.016871
   105  H    0.066606
   106  H    0.028984
   107  H    0.037094
   108  H    0.028999
   109  H    0.020842
   110  H    0.040578
   111  H    0.052137
   112  H    0.042952
   113  H    0.027889
   114  H    0.038807
   115  H    0.036327
   116  H    0.032704
   117  H    0.055998
   118  H    0.036443
   119  H    0.018524
   120  H    0.028309
   121  H    0.026206
   122  H    0.028349
   123  H    0.020597
   124  H    0.032122
   125  H    0.036975
   126  H    0.042669
   127  H    0.038435
   128  H    0.018530
   129  H    0.023740
   130  H    0.035726
   131  H    0.027092
   132  H    0.026244
   133  H    0.032793
   134  H    0.038282
   135  H    0.025202
   136  H    0.036319
   137  H    0.037689
   138  H    0.034955
   139  H    0.031683
   140  H    0.036214
 Sum of Mulliken charges =  -0.00000

 Dipole moment (field-independent basis, Debye):
    X=              3.0797    Y=              2.5527    Z=              1.1650  Tot=              4.1663
 Quadrupole moment (field-independent basis, Debye-Ang):
   XX=           -374.7556   YY=           -407.4357   ZZ=           -401.0101
   XY=              2.5950   XZ=             13.7143   YZ=              4.7660

 Normal termination of Gaussian 16 at Sat Apr 30 22:46:09 2022.
