 Gaussian 16, Revision A.03,
 Gaussian 16:  ES64L-G16RevA.03 25-Dec-2016

 --------------------------------
 #p wB97XD/Def2SVP td=(nstates=5)
 --------------------------------

 ----------------------------------------------------
 step_951_chromophore_13 TDDFT with wB97XD functional
 ----------------------------------------------------
 Symbolic Z-matrix:
 Charge =  0 Multiplicity = 1

                         Standard orientation:
 ---------------------------------------------------------------------
 Center     Atomic      Atomic             Coordinates (Angstroms)
 Number     Number       Type             X           Y           Z
 ---------------------------------------------------------------------
      1         12           0       -5.879991    0.397160   -0.091852
      2          6           0       -3.647546   -2.233574    0.012467
      3          6           0       -3.443969    2.543148    1.062473
      4          6           0       -8.186664    2.751067    0.151100
      5          6           0       -8.376590   -1.950814   -1.105434
      6          7           0       -3.847020    0.191409    0.431814
      7          6           0       -3.093421   -1.009436    0.411949
      8          6           0       -1.612214   -0.790294    0.821663
      9          6           0       -1.697232    0.716749    1.346453
     10          6           0       -3.167368    1.161891    1.038446
     11          6           0       -1.370690    0.853369    2.882439
     12          6           0       -0.730517   -0.949350   -0.386013
     13          6           0        0.468460   -1.907357   -0.270642
     14          6           0        1.743720   -1.544293   -1.105800
     15          8           0        1.733826   -0.758479   -2.088796
     16          8           0        2.898876   -2.173115   -0.573259
     17          7           0       -5.761966    2.388304    0.483469
     18          6           0       -4.717744    3.139265    0.879261
     19          6           0       -5.091490    4.541247    1.093781
     20          6           0       -6.484872    4.568563    0.835417
     21          6           0       -6.887734    3.205498    0.487437
     22          6           0       -4.116791    5.536688    1.672890
     23          6           0       -7.343357    5.769947    0.718944
     24          8           0       -8.540344    5.682911    0.425611
     25          6           0       -6.777896    7.103500    1.001989
     26          7           0       -7.961531    0.267703   -0.300093
     27          6           0       -8.702378    1.456936   -0.127459
     28          6           0      -10.152838    1.173870   -0.342673
     29          6           0      -10.207604   -0.218497   -0.885542
     30          6           0       -8.744704   -0.727196   -0.800771
     31          6           0      -11.035088    1.565614    0.931043
     32          6           0      -10.774032   -0.310043   -2.368361
     33          6           0       -9.861403    0.174756   -3.529305
     34          7           0       -6.087183   -1.736938   -0.458667
     35          6           0       -7.141872   -2.502875   -0.816314
     36          6           0       -6.634913   -3.912392   -0.999808
     37          6           0       -5.340396   -3.788314   -0.588125
     38          6           0       -5.005480   -2.490345   -0.353317
     39          6           0       -7.565722   -4.964393   -1.479868
     40          6           0       -4.095022   -4.561744   -0.400452
     41          8           0       -3.887207   -5.735486   -0.581614
     42          6           0       -3.059215   -3.586101    0.040140
     43          6           0       -2.526905   -3.898896    1.402715
     44          8           0       -3.065884   -3.597073    2.487954
     45          8           0       -1.498301   -4.791787    1.296385
     46          6           0       -1.178660   -5.431829    2.599343
     47          6           0        4.164297   -1.987687   -1.264560
     48          6           0        4.942069   -0.962106   -0.443773
     49          6           0        6.223519   -0.645775   -0.342852
     50          6           0        7.198830   -1.132592   -1.331554
     51          6           0        6.715882    0.304207    0.675080
     52          6           0        7.391649    1.606066    0.058060
     53          6           0        8.883327    1.937776    0.356164
     54          6           0        9.665162    2.680046   -0.798933
     55          6           0        8.904772    3.875262   -1.456760
     56          6           0       10.068463    1.669744   -1.960664
     57          6           0       11.510493    1.903245   -2.512383
     58          6           0       12.618952    0.861487   -2.218089
     59          6           0       13.840131    1.435007   -1.442187
     60          6           0       14.865118    2.350721   -2.282450
     61          6           0       14.549925    0.347152   -0.576048
     62          6           0       14.097390    0.293106    0.928945
     63          6           0       13.232625   -0.968723    1.144701
     64          6           0       12.580338   -1.126221    2.557255
     65          6           0       13.277488   -2.175566    3.416903
     66          6           0       11.031707   -1.414973    2.389707
     67          1           0       -2.585939    3.176705    1.296383
     68          1           0       -8.919106    3.538904   -0.039360
     69          1           0       -9.186662   -2.646664   -1.333995
     70          1           0       -1.337262   -1.462317    1.634646
     71          1           0       -0.943386    1.364513    0.900879
     72          1           0       -1.557858   -0.102462    3.372071
     73          1           0       -1.880596    1.753734    3.223713
     74          1           0       -0.305882    1.062759    2.983379
     75          1           0       -0.231288   -0.029123   -0.688467
     76          1           0       -1.340336   -1.245386   -1.239983
     77          1           0        0.228479   -2.896867   -0.661941
     78          1           0        0.748229   -1.958946    0.781539
     79          1           0       -3.926133    6.285401    0.904084
     80          1           0       -3.208370    5.030952    2.000976
     81          1           0       -4.426202    6.059898    2.577366
     82          1           0       -6.009515    7.379995    0.280784
     83          1           0       -6.442349    7.153581    2.038140
     84          1           0       -7.547087    7.876610    0.998488
     85          1           0      -10.454178    1.707573   -1.244230
     86          1           0      -10.805690   -0.816368   -0.198435
     87          1           0      -10.440095    2.100733    1.671384
     88          1           0      -11.541535    0.788185    1.502228
     89          1           0      -11.846009    2.173135    0.530523
     90          1           0      -11.745965    0.179136   -2.432929
     91          1           0      -11.026887   -1.359243   -2.521464
     92          1           0       -9.301207   -0.666737   -3.936481
     93          1           0       -9.198505    0.965520   -3.177796
     94          1           0      -10.372085    0.651647   -4.364724
     95          1           0       -7.921509   -5.545964   -0.629172
     96          1           0       -7.033135   -5.572786   -2.210926
     97          1           0       -8.357800   -4.583883   -2.126013
     98          1           0       -2.126298   -3.558454   -0.521854
     99          1           0       -2.133261   -5.743717    3.021639
    100          1           0       -0.745456   -4.681298    3.260377
    101          1           0       -0.510192   -6.291779    2.622482
    102          1           0        4.100475   -1.790368   -2.335173
    103          1           0        4.722573   -2.912996   -1.125663
    104          1           0        4.326993   -0.366171    0.229717
    105          1           0        7.254911   -0.425961   -2.159498
    106          1           0        6.830535   -2.082060   -1.718931
    107          1           0        8.161352   -1.312980   -0.853126
    108          1           0        7.430744   -0.325159    1.204613
    109          1           0        6.113636    0.533722    1.554108
    110          1           0        6.831068    2.435524    0.488559
    111          1           0        7.343284    1.646048   -1.031102
    112          1           0        9.261689    0.968252    0.681675
    113          1           0        8.741014    2.691710    1.129711
    114          1           0       10.615114    3.007454   -0.374755
    115          1           0        9.194547    3.938700   -2.504695
    116          1           0        9.340517    4.782951   -1.039149
    117          1           0        7.826491    3.818374   -1.305330
    118          1           0        9.357174    1.672433   -2.787401
    119          1           0       10.093606    0.688370   -1.486794
    120          1           0       11.713508    2.874581   -2.062601
    121          1           0       11.456443    2.013280   -3.595289
    122          1           0       12.917650    0.430055   -3.173438
    123          1           0       12.199196    0.032526   -1.648696
    124          1           0       13.428208    2.094940   -0.678467
    125          1           0       14.456899    2.403016   -3.291584
    126          1           0       15.855389    1.905255   -2.189920
    127          1           0       14.848683    3.341433   -1.828653
    128          1           0       15.638606    0.395300   -0.554015
    129          1           0       14.319805   -0.620424   -1.021121
    130          1           0       13.598053    1.212327    1.237635
    131          1           0       15.027737    0.180158    1.485159
    132          1           0       13.977428   -1.755698    1.027798
    133          1           0       12.518111   -1.081490    0.330235
    134          1           0       12.649041   -0.254494    3.207536
    135          1           0       12.769059   -3.134346    3.310438
    136          1           0       13.187123   -1.909186    4.469868
    137          1           0       14.311666   -2.344197    3.117590
    138          1           0       10.775546   -2.460316    2.562800
    139          1           0       10.670764   -1.177483    1.388423
    140          1           0       10.390568   -0.762339    2.982779
 ---------------------------------------------------------------------

 SCF Done:  E(RwB97XD) =  -3007.85668089     A.U. after   20 cycles

 Excitation energies and oscillator strengths:

 Excited State   1:      Singlet-A      1.6339 eV  758.84 nm  f=0.3990  <S**2>=0.000
     245 -> 248       -0.16947
     246 -> 247        0.68628
     245 <- 248       -0.10987
 This state for optimization and/or second-order correction.
 Total Energy, E(TD-HF/TD-DFT) =  -3007.79663744
 Copying the excited state density for this state as the 1-particle RhoCI density.

 Excited State   2:      Singlet-A      2.1749 eV  570.07 nm  f=0.0988  <S**2>=0.000
     245 -> 247        0.63505
     246 -> 248        0.29258

 Excited State   3:      Singlet-A      3.4569 eV  358.66 nm  f=0.2158  <S**2>=0.000
     241 -> 247       -0.28778
     242 -> 247        0.25467
     244 -> 247        0.39722
     245 -> 247       -0.16001
     246 -> 248        0.38162

 Excited State   4:      Singlet-A      3.5164 eV  352.59 nm  f=0.2627  <S**2>=0.000
     244 -> 247        0.50102
     245 -> 247        0.18523
     246 -> 248       -0.44108

 Excited State   5:      Singlet-A      3.5816 eV  346.17 nm  f=0.0134  <S**2>=0.000
     240 -> 247        0.50846
     240 -> 248       -0.20820
     240 -> 249        0.30599
     240 -> 250       -0.19245
     241 -> 247        0.10604

 The electronic state is 1-A.
 Alpha  occ. eigenvalues --  -46.94288 -19.30997 -19.30609 -19.25630 -19.24837
 Alpha  occ. eigenvalues --  -19.23701 -19.23636 -14.47142 -14.45953 -14.44237
 Alpha  occ. eigenvalues --  -14.42395 -10.44510 -10.43494 -10.38769 -10.38377
 Alpha  occ. eigenvalues --  -10.36306 -10.35440 -10.35197 -10.35126 -10.35111
 Alpha  occ. eigenvalues --  -10.34752 -10.34163 -10.33395 -10.33108 -10.32370
 Alpha  occ. eigenvalues --  -10.32215 -10.32182 -10.32074 -10.31837 -10.31639
 Alpha  occ. eigenvalues --  -10.31619 -10.31405 -10.31118 -10.31001 -10.30978
 Alpha  occ. eigenvalues --  -10.30883 -10.30852 -10.30526 -10.30456 -10.30382
 Alpha  occ. eigenvalues --  -10.30214 -10.29941 -10.29904 -10.29895 -10.29884
 Alpha  occ. eigenvalues --  -10.29819 -10.29792 -10.29713 -10.29486 -10.29466
 Alpha  occ. eigenvalues --  -10.29375 -10.29256 -10.29219 -10.29076 -10.28915
 Alpha  occ. eigenvalues --  -10.28864 -10.28838 -10.28827 -10.28769 -10.28744
 Alpha  occ. eigenvalues --  -10.28662 -10.28626 -10.28500 -10.28499 -10.28153
 Alpha  occ. eigenvalues --  -10.27876  -3.20295  -1.93906  -1.93437  -1.93254
 Alpha  occ. eigenvalues --   -1.18446  -1.16801  -1.12709  -1.11740  -1.09238
 Alpha  occ. eigenvalues --   -1.08951  -1.06310  -1.05611  -1.04721  -1.04033
 Alpha  occ. eigenvalues --   -0.95767  -0.92803  -0.91635  -0.91082  -0.90587
 Alpha  occ. eigenvalues --   -0.90179  -0.90096  -0.89713  -0.89137  -0.88695
 Alpha  occ. eigenvalues --   -0.87891  -0.87157  -0.86045  -0.85587  -0.85085
 Alpha  occ. eigenvalues --   -0.84230  -0.84002  -0.83443  -0.82751  -0.82353
 Alpha  occ. eigenvalues --   -0.81420  -0.80744  -0.79827  -0.79005  -0.78413
 Alpha  occ. eigenvalues --   -0.78145  -0.77359  -0.76927  -0.76532  -0.75750
 Alpha  occ. eigenvalues --   -0.75359  -0.74655  -0.73325  -0.72199  -0.71468
 Alpha  occ. eigenvalues --   -0.70924  -0.70464  -0.69960  -0.68954  -0.67468
 Alpha  occ. eigenvalues --   -0.66688  -0.66654  -0.66269  -0.66039  -0.65565
 Alpha  occ. eigenvalues --   -0.64912  -0.64546  -0.64014  -0.63500  -0.62574
 Alpha  occ. eigenvalues --   -0.61666  -0.61534  -0.61390  -0.60592  -0.60117
 Alpha  occ. eigenvalues --   -0.59481  -0.58857  -0.58180  -0.57974  -0.57873
 Alpha  occ. eigenvalues --   -0.57174  -0.56924  -0.56562  -0.56245  -0.56097
 Alpha  occ. eigenvalues --   -0.55927  -0.55309  -0.55177  -0.55063  -0.54866
 Alpha  occ. eigenvalues --   -0.54728  -0.54342  -0.54107  -0.53949  -0.53678
 Alpha  occ. eigenvalues --   -0.53376  -0.53365  -0.53181  -0.52848  -0.52605
 Alpha  occ. eigenvalues --   -0.52311  -0.52219  -0.51936  -0.51833  -0.51674
 Alpha  occ. eigenvalues --   -0.51331  -0.51245  -0.51016  -0.50762  -0.50633
 Alpha  occ. eigenvalues --   -0.50578  -0.50349  -0.50024  -0.49914  -0.49666
 Alpha  occ. eigenvalues --   -0.49448  -0.49162  -0.48929  -0.48810  -0.48582
 Alpha  occ. eigenvalues --   -0.48092  -0.47982  -0.47342  -0.47246  -0.47210
 Alpha  occ. eigenvalues --   -0.47091  -0.46864  -0.46689  -0.46596  -0.46449
 Alpha  occ. eigenvalues --   -0.46248  -0.46114  -0.46025  -0.45885  -0.45755
 Alpha  occ. eigenvalues --   -0.45677  -0.45336  -0.45281  -0.44916  -0.44879
 Alpha  occ. eigenvalues --   -0.44617  -0.44586  -0.44448  -0.44077  -0.44031
 Alpha  occ. eigenvalues --   -0.43842  -0.43736  -0.43684  -0.43219  -0.42822
 Alpha  occ. eigenvalues --   -0.42773  -0.42673  -0.42630  -0.42572  -0.42129
 Alpha  occ. eigenvalues --   -0.42001  -0.41627  -0.41175  -0.41000  -0.40449
 Alpha  occ. eigenvalues --   -0.40317  -0.39585  -0.39557  -0.39334  -0.39084
 Alpha  occ. eigenvalues --   -0.39009  -0.38641  -0.38622  -0.38528  -0.38141
 Alpha  occ. eigenvalues --   -0.37940  -0.37638  -0.37123  -0.36389  -0.36230
 Alpha  occ. eigenvalues --   -0.36180  -0.35333  -0.35104  -0.33535  -0.33066
 Alpha  occ. eigenvalues --   -0.32683  -0.32580  -0.31634  -0.31569  -0.25930
 Alpha  occ. eigenvalues --   -0.22516
 Alpha virt. eigenvalues --   -0.06844   0.00496   0.02610   0.04173   0.06291
 Alpha virt. eigenvalues --    0.06444   0.06918   0.08414   0.08835   0.09533
 Alpha virt. eigenvalues --    0.10514   0.10568   0.11546   0.12146   0.12187

 Mulliken charges:
               1
     1  Mg   0.969897
     2  C    0.027039
     3  C   -0.131885
     4  C   -0.079514
     5  C   -0.094237
     6  N   -0.391605
     7  C   -0.026593
     8  C   -0.048408
     9  C   -0.165346
    10  C    0.154845
    11  C    0.015012
    12  C    0.051382
    13  C   -0.051393
    14  C    0.247344
    15  O   -0.283589
    16  O   -0.384175
    17  N   -0.452726
    18  C    0.143815
    19  C   -0.139561
    20  C   -0.056141
    21  C    0.154165
    22  C    0.064126
    23  C    0.031125
    24  O   -0.246960
    25  C    0.000209
    26  N   -0.401959
    27  C    0.042287
    28  C   -0.037763
    29  C   -0.057954
    30  C    0.076244
    31  C    0.022803
    32  C   -0.042669
    33  C   -0.046678
    34  N   -0.366026
    35  C    0.079002
    36  C   -0.209725
    37  C   -0.038284
    38  C    0.098515
    39  C    0.084762
    40  C    0.157138
    41  O   -0.175506
    42  C   -0.041057
    43  C    0.232703
    44  O   -0.278266
    45  O   -0.354221
    46  C    0.146757
    47  C    0.278123
    48  C   -0.153751
    49  C   -0.228588
    50  C    0.051019
    51  C    0.070205
    52  C   -0.099803
    53  C    0.018823
    54  C   -0.194162
    55  C    0.000700
    56  C   -0.021246
    57  C   -0.032311
    58  C    0.029171
    59  C   -0.186032
    60  C    0.014946
    61  C   -0.007193
    62  C   -0.040348
    63  C   -0.010071
    64  C   -0.181838
    65  C   -0.005125
    66  C   -0.025639
    67  H    0.008773
    68  H    0.038881
    69  H   -0.000873
    70  H    0.044869
    71  H    0.041843
    72  H    0.055342
    73  H    0.033297
    74  H    0.027525
    75  H    0.043082
    76  H    0.047121
    77  H    0.080570
    78  H    0.057987
    79  H    0.052250
    80  H    0.037021
    81  H    0.053344
    82  H    0.060990
    83  H    0.052094
    84  H    0.047217
    85  H    0.032671
    86  H    0.027168
    87  H    0.052722
    88  H    0.034780
    89  H    0.041799
    90  H    0.032945
    91  H    0.026532
    92  H    0.045635
    93  H    0.037235
    94  H    0.038065
    95  H    0.067425
    96  H    0.043616
    97  H    0.030333
    98  H    0.049507
    99  H    0.060083
   100  H    0.045317
   101  H    0.063340
   102  H    0.068786
   103  H    0.046998
   104  H    0.011485
   105  H    0.060677
   106  H    0.022923
   107  H    0.030540
   108  H    0.018018
   109  H    0.016836
   110  H    0.032875
   111  H    0.035595
   112  H    0.024695
   113  H    0.019722
   114  H    0.025964
   115  H    0.029708
   116  H    0.027434
   117  H    0.049990
   118  H    0.028579
   119  H    0.001129
   120  H    0.014567
   121  H    0.019899
   122  H    0.021267
   123  H    0.004598
   124  H    0.013005
   125  H    0.030386
   126  H    0.036704
   127  H    0.033271
   128  H    0.011427
   129  H    0.012206
   130  H    0.026971
   131  H    0.018911
   132  H    0.015222
   133  H    0.016817
   134  H    0.028171
   135  H    0.017797
   136  H    0.031270
   137  H    0.031243
   138  H    0.028780
   139  H    0.020863
   140  H    0.030358
 Sum of Mulliken charges =  -0.00000

 Dipole moment (field-independent basis, Debye):
    X=              3.1726    Y=              3.2136    Z=              1.3491  Tot=              4.7130
 Quadrupole moment (field-independent basis, Debye-Ang):
   XX=           -376.3686   YY=           -404.8865   ZZ=           -400.6290
   XY=             -1.6668   XZ=             12.5271   YZ=              5.0497

 Normal termination of Gaussian 16 at Sat Apr 30 23:18:40 2022.
