 Gaussian 16, Revision A.03,
 Gaussian 16:  ES64L-G16RevA.03 25-Dec-2016

 --------------------
 #p ZINDO=(nstates=5)
 --------------------

 -----------------------------
 step_951_chromophore_13 ZINDO
 -----------------------------
 Symbolic Z-matrix:
 Charge =  0 Multiplicity = 1

                         Standard orientation:
 ---------------------------------------------------------------------
 Center     Atomic      Atomic             Coordinates (Angstroms)
 Number     Number       Type             X           Y           Z
 ---------------------------------------------------------------------
      1         12           0       -5.879991    0.397160   -0.091852
      2          6           0       -3.647546   -2.233574    0.012467
      3          6           0       -3.443969    2.543148    1.062473
      4          6           0       -8.186664    2.751067    0.151100
      5          6           0       -8.376590   -1.950814   -1.105434
      6          7           0       -3.847020    0.191409    0.431814
      7          6           0       -3.093421   -1.009436    0.411949
      8          6           0       -1.612214   -0.790294    0.821663
      9          6           0       -1.697232    0.716749    1.346453
     10          6           0       -3.167368    1.161891    1.038446
     11          6           0       -1.370690    0.853369    2.882439
     12          6           0       -0.730517   -0.949350   -0.386013
     13          6           0        0.468460   -1.907357   -0.270642
     14          6           0        1.743720   -1.544293   -1.105800
     15          8           0        1.733826   -0.758479   -2.088796
     16          8           0        2.898876   -2.173115   -0.573259
     17          7           0       -5.761966    2.388304    0.483469
     18          6           0       -4.717744    3.139265    0.879261
     19          6           0       -5.091490    4.541247    1.093781
     20          6           0       -6.484872    4.568563    0.835417
     21          6           0       -6.887734    3.205498    0.487437
     22          6           0       -4.116791    5.536688    1.672890
     23          6           0       -7.343357    5.769947    0.718944
     24          8           0       -8.540344    5.682911    0.425611
     25          6           0       -6.777896    7.103500    1.001989
     26          7           0       -7.961531    0.267703   -0.300093
     27          6           0       -8.702378    1.456936   -0.127459
     28          6           0      -10.152838    1.173870   -0.342673
     29          6           0      -10.207604   -0.218497   -0.885542
     30          6           0       -8.744704   -0.727196   -0.800771
     31          6           0      -11.035088    1.565614    0.931043
     32          6           0      -10.774032   -0.310043   -2.368361
     33          6           0       -9.861403    0.174756   -3.529305
     34          7           0       -6.087183   -1.736938   -0.458667
     35          6           0       -7.141872   -2.502875   -0.816314
     36          6           0       -6.634913   -3.912392   -0.999808
     37          6           0       -5.340396   -3.788314   -0.588125
     38          6           0       -5.005480   -2.490345   -0.353317
     39          6           0       -7.565722   -4.964393   -1.479868
     40          6           0       -4.095022   -4.561744   -0.400452
     41          8           0       -3.887207   -5.735486   -0.581614
     42          6           0       -3.059215   -3.586101    0.040140
     43          6           0       -2.526905   -3.898896    1.402715
     44          8           0       -3.065884   -3.597073    2.487954
     45          8           0       -1.498301   -4.791787    1.296385
     46          6           0       -1.178660   -5.431829    2.599343
     47          6           0        4.164297   -1.987687   -1.264560
     48          6           0        4.942069   -0.962106   -0.443773
     49          6           0        6.223519   -0.645775   -0.342852
     50          6           0        7.198830   -1.132592   -1.331554
     51          6           0        6.715882    0.304207    0.675080
     52          6           0        7.391649    1.606066    0.058060
     53          6           0        8.883327    1.937776    0.356164
     54          6           0        9.665162    2.680046   -0.798933
     55          6           0        8.904772    3.875262   -1.456760
     56          6           0       10.068463    1.669744   -1.960664
     57          6           0       11.510493    1.903245   -2.512383
     58          6           0       12.618952    0.861487   -2.218089
     59          6           0       13.840131    1.435007   -1.442187
     60          6           0       14.865118    2.350721   -2.282450
     61          6           0       14.549925    0.347152   -0.576048
     62          6           0       14.097390    0.293106    0.928945
     63          6           0       13.232625   -0.968723    1.144701
     64          6           0       12.580338   -1.126221    2.557255
     65          6           0       13.277488   -2.175566    3.416903
     66          6           0       11.031707   -1.414973    2.389707
     67          1           0       -2.585939    3.176705    1.296383
     68          1           0       -8.919106    3.538904   -0.039360
     69          1           0       -9.186662   -2.646664   -1.333995
     70          1           0       -1.337262   -1.462317    1.634646
     71          1           0       -0.943386    1.364513    0.900879
     72          1           0       -1.557858   -0.102462    3.372071
     73          1           0       -1.880596    1.753734    3.223713
     74          1           0       -0.305882    1.062759    2.983379
     75          1           0       -0.231288   -0.029123   -0.688467
     76          1           0       -1.340336   -1.245386   -1.239983
     77          1           0        0.228479   -2.896867   -0.661941
     78          1           0        0.748229   -1.958946    0.781539
     79          1           0       -3.926133    6.285401    0.904084
     80          1           0       -3.208370    5.030952    2.000976
     81          1           0       -4.426202    6.059898    2.577366
     82          1           0       -6.009515    7.379995    0.280784
     83          1           0       -6.442349    7.153581    2.038140
     84          1           0       -7.547087    7.876610    0.998488
     85          1           0      -10.454178    1.707573   -1.244230
     86          1           0      -10.805690   -0.816368   -0.198435
     87          1           0      -10.440095    2.100733    1.671384
     88          1           0      -11.541535    0.788185    1.502228
     89          1           0      -11.846009    2.173135    0.530523
     90          1           0      -11.745965    0.179136   -2.432929
     91          1           0      -11.026887   -1.359243   -2.521464
     92          1           0       -9.301207   -0.666737   -3.936481
     93          1           0       -9.198505    0.965520   -3.177796
     94          1           0      -10.372085    0.651647   -4.364724
     95          1           0       -7.921509   -5.545964   -0.629172
     96          1           0       -7.033135   -5.572786   -2.210926
     97          1           0       -8.357800   -4.583883   -2.126013
     98          1           0       -2.126298   -3.558454   -0.521854
     99          1           0       -2.133261   -5.743717    3.021639
    100          1           0       -0.745456   -4.681298    3.260377
    101          1           0       -0.510192   -6.291779    2.622482
    102          1           0        4.100475   -1.790368   -2.335173
    103          1           0        4.722573   -2.912996   -1.125663
    104          1           0        4.326993   -0.366171    0.229717
    105          1           0        7.254911   -0.425961   -2.159498
    106          1           0        6.830535   -2.082060   -1.718931
    107          1           0        8.161352   -1.312980   -0.853126
    108          1           0        7.430744   -0.325159    1.204613
    109          1           0        6.113636    0.533722    1.554108
    110          1           0        6.831068    2.435524    0.488559
    111          1           0        7.343284    1.646048   -1.031102
    112          1           0        9.261689    0.968252    0.681675
    113          1           0        8.741014    2.691710    1.129711
    114          1           0       10.615114    3.007454   -0.374755
    115          1           0        9.194547    3.938700   -2.504695
    116          1           0        9.340517    4.782951   -1.039149
    117          1           0        7.826491    3.818374   -1.305330
    118          1           0        9.357174    1.672433   -2.787401
    119          1           0       10.093606    0.688370   -1.486794
    120          1           0       11.713508    2.874581   -2.062601
    121          1           0       11.456443    2.013280   -3.595289
    122          1           0       12.917650    0.430055   -3.173438
    123          1           0       12.199196    0.032526   -1.648696
    124          1           0       13.428208    2.094940   -0.678467
    125          1           0       14.456899    2.403016   -3.291584
    126          1           0       15.855389    1.905255   -2.189920
    127          1           0       14.848683    3.341433   -1.828653
    128          1           0       15.638606    0.395300   -0.554015
    129          1           0       14.319805   -0.620424   -1.021121
    130          1           0       13.598053    1.212327    1.237635
    131          1           0       15.027737    0.180158    1.485159
    132          1           0       13.977428   -1.755698    1.027798
    133          1           0       12.518111   -1.081490    0.330235
    134          1           0       12.649041   -0.254494    3.207536
    135          1           0       12.769059   -3.134346    3.310438
    136          1           0       13.187123   -1.909186    4.469868
    137          1           0       14.311666   -2.344197    3.117590
    138          1           0       10.775546   -2.460316    2.562800
    139          1           0       10.670764   -1.177483    1.388423
    140          1           0       10.390568   -0.762339    2.982779
 ---------------------------------------------------------------------

 SCF Done:  E(RZINDO/S) =  -474.324358883     A.U. after   20 cycles

 Excitation energies and oscillator strengths:

 Excited State   1:      Singlet-A      1.2356 eV 1003.42 nm  f=0.6220  <S**2>=0.000
     175 ->178         0.17934
     176 ->177         0.66626
 This state for optimization and/or second-order correction.
 Total Energy, E(CIS/TDA) =  -474.278950858
 Copying the excited state density for this state as the 1-particle RhoCI density.

 Excited State   2:      Singlet-A      1.9180 eV  646.43 nm  f=0.0292  <S**2>=0.000
     175 ->177         0.53448
     176 ->178        -0.43587

 Excited State   3:      Singlet-A      2.8979 eV  427.84 nm  f=0.0044  <S**2>=0.000
     168 ->177         0.30574
     168 ->178        -0.15396
     168 ->179        -0.37248
     168 ->180        -0.27630
     168 ->182         0.10625
     168 ->185        -0.23700
     168 ->187         0.10011
     168 ->193        -0.11661

 Excited State   4:      Singlet-A      2.9366 eV  422.20 nm  f=0.1589  <S**2>=0.000
     175 ->177        -0.15898
     176 ->178        -0.20381
     176 ->179         0.60884
     176 ->180        -0.11629
     176 ->182         0.13195

 Excited State   5:      Singlet-A      2.9925 eV  414.31 nm  f=0.8648  <S**2>=0.000
     171 ->177        -0.11922
     175 ->177         0.36153
     176 ->178         0.48113
     176 ->179         0.27613

 The electronic state is 1-A.
 Alpha  occ. eigenvalues --   -1.86613  -1.81061  -1.80768  -1.73465  -1.71520
 Alpha  occ. eigenvalues --   -1.68892  -1.64053  -1.60461  -1.60096  -1.59543
 Alpha  occ. eigenvalues --   -1.54849  -1.51339  -1.50074  -1.49098  -1.44694
 Alpha  occ. eigenvalues --   -1.43142  -1.42267  -1.40544  -1.38902  -1.38852
 Alpha  occ. eigenvalues --   -1.36386  -1.33660  -1.32486  -1.31945  -1.28095
 Alpha  occ. eigenvalues --   -1.26307  -1.25393  -1.22753  -1.20730  -1.18547
 Alpha  occ. eigenvalues --   -1.16997  -1.16350  -1.15564  -1.14838  -1.12975
 Alpha  occ. eigenvalues --   -1.12051  -1.11409  -1.10070  -1.04971  -1.03785
 Alpha  occ. eigenvalues --   -1.03680  -1.01710  -0.99412  -0.97855  -0.97130
 Alpha  occ. eigenvalues --   -0.96322  -0.95570  -0.94130  -0.93140  -0.92326
 Alpha  occ. eigenvalues --   -0.89978  -0.89711  -0.87865  -0.87385  -0.85312
 Alpha  occ. eigenvalues --   -0.84329  -0.83733  -0.82421  -0.82080  -0.80320
 Alpha  occ. eigenvalues --   -0.80133  -0.78461  -0.76555  -0.76365  -0.75929
 Alpha  occ. eigenvalues --   -0.75493  -0.75220  -0.75058  -0.74919  -0.73649
 Alpha  occ. eigenvalues --   -0.73160  -0.72540  -0.72171  -0.72073  -0.71052
 Alpha  occ. eigenvalues --   -0.70256  -0.69016  -0.68555  -0.68538  -0.68033
 Alpha  occ. eigenvalues --   -0.67502  -0.67211  -0.66852  -0.66402  -0.65602
 Alpha  occ. eigenvalues --   -0.65520  -0.65080  -0.64582  -0.64451  -0.63662
 Alpha  occ. eigenvalues --   -0.63378  -0.63189  -0.62868  -0.62386  -0.61946
 Alpha  occ. eigenvalues --   -0.61652  -0.61313  -0.60893  -0.59690  -0.59329
 Alpha  occ. eigenvalues --   -0.59165  -0.58793  -0.58560  -0.58235  -0.57936
 Alpha  occ. eigenvalues --   -0.57543  -0.57485  -0.57173  -0.56906  -0.56371
 Alpha  occ. eigenvalues --   -0.56189  -0.55482  -0.55291  -0.54913  -0.54509
 Alpha  occ. eigenvalues --   -0.53961  -0.53780  -0.53009  -0.52612  -0.52578
 Alpha  occ. eigenvalues --   -0.52379  -0.52150  -0.51658  -0.51477  -0.51157
 Alpha  occ. eigenvalues --   -0.50976  -0.50734  -0.50328  -0.50225  -0.50130
 Alpha  occ. eigenvalues --   -0.50059  -0.49974  -0.49774  -0.49240  -0.48996
 Alpha  occ. eigenvalues --   -0.48469  -0.48265  -0.48091  -0.47770  -0.47311
 Alpha  occ. eigenvalues --   -0.47163  -0.46927  -0.46663  -0.46602  -0.46257
 Alpha  occ. eigenvalues --   -0.46215  -0.45896  -0.45643  -0.45556  -0.45321
 Alpha  occ. eigenvalues --   -0.45133  -0.44688  -0.44485  -0.44414  -0.44127
 Alpha  occ. eigenvalues --   -0.43678  -0.43553  -0.43425  -0.42636  -0.42557
 Alpha  occ. eigenvalues --   -0.41992  -0.41625  -0.41422  -0.39387  -0.38600
 Alpha  occ. eigenvalues --   -0.38335  -0.36138  -0.35378  -0.34744  -0.34315
 Alpha  occ. eigenvalues --   -0.33713  -0.32326  -0.32182  -0.31855  -0.26671
 Alpha  occ. eigenvalues --   -0.21325
 Alpha virt. eigenvalues --   -0.08299  -0.01802  -0.00609   0.00653   0.01068
 Alpha virt. eigenvalues --    0.02561   0.02887   0.03269   0.04860   0.05706
 Alpha virt. eigenvalues --    0.06511   0.07316   0.07449   0.07915   0.08306

 Mulliken charges:
               1
     1  Mg   0.425821
     2  C   -0.032914
     3  C   -0.085089
     4  C   -0.075306
     5  C   -0.055428
     6  N   -0.260544
     7  C    0.085273
     8  C    0.006186
     9  C   -0.013764
    10  C    0.148407
    11  C   -0.059428
    12  C   -0.021322
    13  C    0.006915
    14  C    0.455542
    15  O   -0.519125
    16  O   -0.272987
    17  N   -0.325125
    18  C    0.122764
    19  C    0.015073
    20  C   -0.036874
    21  C    0.143149
    22  C   -0.037405
    23  C    0.334029
    24  O   -0.532695
    25  C   -0.028057
    26  N   -0.290385
    27  C    0.156407
    28  C    0.008515
    29  C    0.001540
    30  C    0.124213
    31  C   -0.052279
    32  C   -0.028131
    33  C   -0.052947
    34  N   -0.312094
    35  C    0.077945
    36  C    0.011383
    37  C   -0.036260
    38  C    0.093829
    39  C   -0.034516
    40  C    0.341989
    41  O   -0.514925
    42  C    0.069957
    43  C    0.484699
    44  O   -0.536562
    45  O   -0.261049
    46  C    0.071957
    47  C    0.113086
    48  C   -0.096713
    49  C    0.007391
    50  C   -0.040994
    51  C   -0.022140
    52  C   -0.043216
    53  C   -0.044808
    54  C   -0.015641
    55  C   -0.057202
    56  C   -0.043241
    57  C   -0.044951
    58  C   -0.025785
    59  C   -0.021587
    60  C   -0.062395
    61  C   -0.042529
    62  C   -0.038442
    63  C   -0.032663
    64  C   -0.012557
    65  C   -0.054654
    66  C   -0.064495
    67  H    0.027684
    68  H    0.048537
    69  H    0.019214
    70  H    0.042265
    71  H    0.034279
    72  H    0.035719
    73  H    0.027046
    74  H    0.011118
    75  H    0.032301
    76  H    0.026759
    77  H    0.046923
    78  H    0.040399
    79  H    0.034216
    80  H    0.026064
    81  H    0.030849
    82  H    0.040498
    83  H    0.035387
    84  H    0.030470
    85  H    0.035123
    86  H    0.025586
    87  H    0.029873
    88  H    0.025250
    89  H    0.019966
    90  H    0.016012
    91  H    0.011506
    92  H    0.023941
    93  H    0.021373
    94  H    0.018425
    95  H    0.042330
    96  H    0.024900
    97  H    0.024226
    98  H    0.050974
    99  H    0.047275
   100  H    0.035601
   101  H    0.040202
   102  H    0.063512
   103  H    0.034784
   104  H    0.018167
   105  H    0.037300
   106  H    0.017333
   107  H    0.021768
   108  H    0.016036
   109  H    0.026843
   110  H    0.014672
   111  H    0.025903
   112  H    0.033014
   113  H    0.016791
   114  H    0.022299
   115  H    0.020514
   116  H    0.012881
   117  H    0.033739
   118  H    0.024758
   119  H    0.010965
   120  H    0.021210
   121  H    0.014573
   122  H    0.018071
   123  H    0.019151
   124  H    0.014152
   125  H    0.025636
   126  H    0.029192
   127  H    0.021258
   128  H    0.016529
   129  H    0.014194
   130  H    0.024846
   131  H    0.016014
   132  H    0.015260
   133  H    0.026585
   134  H    0.022151
   135  H    0.013309
   136  H    0.016560
   137  H    0.020930
   138  H    0.022207
   139  H    0.011770
   140  H    0.015987
 Sum of Mulliken charges =  -0.00000

 Dipole moment (field-independent basis, Debye):
    X=              4.7287    Y=              4.7815    Z=              1.8318  Tot=              6.9698
 N-N= 4.276911761426D+03 E-N= 0.000000000000D+00  KE=-9.228447615484D+03
 Leave Link  601 at Sat Apr 30 23:31:27 2022, MaxMem=  6710886400 cpu:               0.8 elap:               0.0
 (Enter /sw/apps/gaussian-16.0/g16/l9999.exe)
 1\1\GINC-BP1-COMPUTE192\SP\RZINDO CIS\STO-3G\C55H74Mg1N4O6\OF15641\30-
 Apr-2022\0\\#p ZINDO=(nstates=5)\\step_951_chromophore_13 ZINDO\\0,1\M
 g,0,46.612,24.798,28.691\C,0,47.119,27.046,31.261\C,0,45.889,22.317,30
 .97\C,0,46.541,22.638,26.191\C,0,47.56,27.395,26.426\N,0,46.495,24.703
 ,30.795\C,0,46.754,25.765,31.698\C,0,46.534,25.355,33.179\C,0,46.357,2
 3.777,32.999\C,0,46.374,23.55,31.449\C,0,47.492,22.945,33.709\C,0,45.3
 01,26.034,33.708\C,0,45.428,26.81,35.031\C,0,44.16,26.847,35.951\O,0,4

 Normal termination of Gaussian 16 at Sat Apr 30 23:31:27 2022.
