 Gaussian 16, Revision A.03,
 Gaussian 16:  ES64L-G16RevA.03 25-Dec-2016

 ------------------------------
 #p blyp/Def2SVP td=(nstates=5)
 ------------------------------

 --------------------------------------------------
 step_1351_chromophore_5 TDDFT with blyp functional
 --------------------------------------------------
 Symbolic Z-matrix:
 Charge =  0 Multiplicity = 1

                         Standard orientation:
 ---------------------------------------------------------------------
 Center     Atomic      Atomic             Coordinates (Angstroms)
 Number     Number       Type             X           Y           Z
 ---------------------------------------------------------------------
      1         12           0       -5.629405   -0.251722   -0.468181
      2          6           0       -3.695924    2.784708   -0.084661
      3          6           0       -3.820154   -0.949579   -3.317717
      4          6           0       -7.016626   -3.250269   -0.296406
      5          6           0       -6.741361    0.269031    2.944008
      6          7           0       -4.001131    0.827046   -1.569486
      7          6           0       -3.401795    2.053839   -1.244315
      8          6           0       -2.175707    2.283531   -2.116486
      9          6           0       -2.572664    1.379765   -3.353391
     10          6           0       -3.485882    0.310092   -2.744789
     11          6           0       -3.182155    2.185679   -4.533842
     12          6           0       -0.916932    1.686167   -1.377472
     13          6           0        0.252313    2.651609   -1.212835
     14          6           0        1.646721    2.365055   -1.751517
     15          8           0        1.973367    1.896393   -2.819067
     16          8           0        2.600509    2.401616   -0.705067
     17          7           0       -5.526869   -1.844039   -1.693590
     18          6           0       -4.727870   -1.967382   -2.786240
     19          6           0       -4.905139   -3.302603   -3.330955
     20          6           0       -5.940949   -3.990042   -2.506935
     21          6           0       -6.195656   -3.031482   -1.458513
     22          6           0       -4.173324   -3.759362   -4.604751
     23          6           0       -6.403215   -5.401055   -2.770018
     24          8           0       -6.010658   -6.015819   -3.777609
     25          6           0       -7.230067   -6.200503   -1.739195
     26          7           0       -6.515879   -1.395956    1.209204
     27          6           0       -7.184516   -2.543959    0.886737
     28          6           0       -8.127296   -3.020138    2.040494
     29          6           0       -7.748880   -1.973360    3.204971
     30          6           0       -6.961112   -0.948556    2.408693
     31          6           0       -9.681425   -3.081152    1.749612
     32          6           0       -6.785075   -2.646569    4.302913
     33          6           0       -6.907428   -2.146304    5.686847
     34          7           0       -5.498167    1.271026    1.075303
     35          6           0       -6.011994    1.300993    2.306239
     36          6           0       -5.573136    2.558175    2.929453
     37          6           0       -4.679064    3.233485    2.080268
     38          6           0       -4.600898    2.345851    0.905450
     39          6           0       -6.000522    2.853512    4.341490
     40          6           0       -3.862136    4.408721    1.833103
     41          8           0       -3.655389    5.425510    2.430034
     42          6           0       -3.112654    4.087435    0.448904
     43          6           0       -3.108882    5.170105   -0.564260
     44          8           0       -2.112383    5.855497   -0.864071
     45          8           0       -4.422893    5.265925   -1.001659
     46          6           0       -4.589083    6.197137   -2.143175
     47          6           0        3.758424    1.645346   -0.945871
     48          6           0        4.512984    1.442023    0.389180
     49          6           0        5.411131    0.465562    0.676801
     50          6           0        5.906952   -0.481467   -0.403368
     51          6           0        6.088272    0.400100    2.084175
     52          6           0        5.928037   -0.919625    2.890859
     53          6           0        7.218178   -1.508286    3.432090
     54          6           0        7.695548   -2.750442    2.604606
     55          6           0        7.439171   -4.037439    3.489134
     56          6           0        9.199103   -2.703115    2.062394
     57          6           0        9.481142   -1.933264    0.758906
     58          6           0       10.227966   -0.539145    0.985167
     59          6           0       11.110816    0.059388   -0.203147
     60          6           0       10.322248    0.679641   -1.344821
     61          6           0       12.180723    1.038045    0.302146
     62          6           0       13.350721    0.245601    0.926565
     63          6           0       14.519136    0.095345   -0.052306
     64          6           0       14.318270   -1.142414   -0.947252
     65          6           0       15.674975   -2.005484   -1.030482
     66          6           0       13.930288   -0.758151   -2.409408
     67          1           0       -3.227484   -1.169824   -4.207427
     68          1           0       -7.588019   -4.173077   -0.419575
     69          1           0       -7.017433    0.492776    3.976049
     70          1           0       -1.950683    3.300651   -2.437642
     71          1           0       -1.630777    0.979598   -3.729771
     72          1           0       -3.220795    3.271000   -4.449471
     73          1           0       -4.172257    1.775756   -4.734962
     74          1           0       -2.536317    1.923131   -5.372282
     75          1           0       -0.559320    0.798579   -1.899975
     76          1           0       -1.214211    1.284821   -0.407722
     77          1           0        0.272167    2.832276   -0.137378
     78          1           0        0.009610    3.639224   -1.607410
     79          1           0       -4.895541   -4.286820   -5.227809
     80          1           0       -3.325553   -4.368306   -4.292314
     81          1           0       -3.776769   -2.895873   -5.139149
     82          1           0       -8.238843   -5.791789   -1.679608
     83          1           0       -6.601360   -6.213422   -0.849177
     84          1           0       -7.261108   -7.246374   -2.045142
     85          1           0       -8.042018   -4.033258    2.433099
     86          1           0       -8.686909   -1.532940    3.542805
     87          1           0      -10.055170   -2.103554    1.443693
     88          1           0      -10.199791   -3.534782    2.593965
     89          1           0       -9.939027   -3.777508    0.951787
     90          1           0       -5.749871   -2.523239    3.981420
     91          1           0       -6.915918   -3.727849    4.351992
     92          1           0       -5.947171   -1.878328    6.127423
     93          1           0       -7.354885   -2.775420    6.456058
     94          1           0       -7.414791   -1.182768    5.634511
     95          1           0       -5.726173    3.879842    4.585846
     96          1           0       -5.458882    2.130968    4.950855
     97          1           0       -7.080959    2.782132    4.468555
     98          1           0       -2.113495    3.972608    0.869215
     99          1           0       -5.111834    5.633307   -2.915554
    100          1           0       -3.658903    6.586332   -2.557808
    101          1           0       -5.208902    6.969239   -1.686938
    102          1           0        4.379452    2.108373   -1.713217
    103          1           0        3.405422    0.654688   -1.231776
    104          1           0        4.093667    2.077805    1.169192
    105          1           0        5.600639   -0.166082   -1.400557
    106          1           0        5.521865   -1.494655   -0.296068
    107          1           0        6.992775   -0.405748   -0.475916
    108          1           0        5.614895    1.202828    2.651209
    109          1           0        7.160995    0.443723    1.897385
    110          1           0        5.324941   -1.686046    2.402457
    111          1           0        5.426306   -0.652332    3.820228
    112          1           0        6.986555   -1.805717    4.454952
    113          1           0        8.024197   -0.774902    3.440616
    114          1           0        7.086244   -2.920466    1.716370
    115          1           0        6.500235   -3.964968    4.037710
    116          1           0        8.226824   -4.283407    4.200326
    117          1           0        7.316339   -4.865713    2.792091
    118          1           0        9.638110   -3.700653    2.057386
    119          1           0        9.716844   -2.162981    2.855056
    120          1           0        8.465073   -1.772503    0.398830
    121          1           0        9.986543   -2.619924    0.079944
    122          1           0       10.738191   -0.507196    1.947593
    123          1           0        9.317030    0.051089    1.078202
    124          1           0       11.526205   -0.778743   -0.763248
    125          1           0       10.289628    0.102506   -2.269743
    126          1           0       10.586764    1.712766   -1.570671
    127          1           0        9.295169    0.659308   -0.980123
    128          1           0       11.744020    1.760202    0.991820
    129          1           0       12.459873    1.611099   -0.581966
    130          1           0       12.984456   -0.765424    1.104838
    131          1           0       13.682548    0.687844    1.866594
    132          1           0       15.484724    0.005163    0.443281
    133          1           0       14.463028    1.042998   -0.587748
    134          1           0       13.522529   -1.774889   -0.555561
    135          1           0       15.442563   -3.061868   -0.894328
    136          1           0       16.461697   -1.752136   -0.319971
    137          1           0       16.085668   -2.026549   -2.040629
    138          1           0       13.317908    0.136358   -2.513597
    139          1           0       13.347005   -1.598237   -2.788326
    140          1           0       14.827652   -0.600338   -3.007604
 ---------------------------------------------------------------------

 SCF Done:  E(RB-LYP) =  -3007.37392905     A.U. after   21 cycles

 Excitation energies and oscillator strengths:

 Excited State   1:      Singlet-A      1.6807 eV  737.70 nm  f=0.0034  <S**2>=0.000
     244 -> 247        0.70248
 This state for optimization and/or second-order correction.
 Total Energy, E(TD-HF/TD-DFT) =  -3007.31216516
 Copying the excited state density for this state as the 1-particle RhoCI density.

 Excited State   2:      Singlet-A      1.7819 eV  695.78 nm  f=0.2965  <S**2>=0.000
     245 -> 248       -0.18545
     246 -> 247        0.69131
     246 <- 247       -0.15963

 Excited State   3:      Singlet-A      1.9832 eV  625.18 nm  f=0.0694  <S**2>=0.000
     242 -> 247        0.24985
     245 -> 247        0.61509
     246 -> 248        0.21912

 Excited State   4:      Singlet-A      2.0230 eV  612.87 nm  f=0.0002  <S**2>=0.000
     243 -> 247        0.70657

 Excited State   5:      Singlet-A      2.0965 eV  591.39 nm  f=0.0131  <S**2>=0.000
     242 -> 247        0.65897
     245 -> 247       -0.21740
     246 -> 248       -0.11475

 The electronic state is 1-A.
 Alpha  occ. eigenvalues --  -46.28360 -18.83039 -18.80720 -18.77737 -18.77468
 Alpha  occ. eigenvalues --  -18.77023 -18.75365 -14.04044 -14.03540 -14.01848
 Alpha  occ. eigenvalues --  -14.01819 -10.04651 -10.04324 -10.00926 -10.00137
 Alpha  occ. eigenvalues --   -9.98202  -9.97386  -9.97304  -9.97298  -9.96917
 Alpha  occ. eigenvalues --   -9.96755  -9.96408  -9.96301  -9.95883  -9.95826
 Alpha  occ. eigenvalues --   -9.94793  -9.94599  -9.94451  -9.94439  -9.94319
 Alpha  occ. eigenvalues --   -9.94240  -9.94178  -9.94129  -9.94104  -9.93612
 Alpha  occ. eigenvalues --   -9.93604  -9.93324  -9.93201  -9.93169  -9.93147
 Alpha  occ. eigenvalues --   -9.92717  -9.92706  -9.92639  -9.92594  -9.92478
 Alpha  occ. eigenvalues --   -9.92360  -9.92184  -9.92140  -9.92094  -9.91962
 Alpha  occ. eigenvalues --   -9.91885  -9.91801  -9.91694  -9.91670  -9.91435
 Alpha  occ. eigenvalues --   -9.91331  -9.91120  -9.90982  -9.90971  -9.90897
 Alpha  occ. eigenvalues --   -9.90863  -9.90753  -9.90683  -9.90581  -9.90388
 Alpha  occ. eigenvalues --   -9.90345  -2.92864  -1.73277  -1.72767  -1.72567
 Alpha  occ. eigenvalues --   -0.97871  -0.97310  -0.93659  -0.90331  -0.90234
 Alpha  occ. eigenvalues --   -0.89906  -0.86785  -0.85709  -0.85623  -0.84794
 Alpha  occ. eigenvalues --   -0.75953  -0.73048  -0.72840  -0.72692  -0.72548
 Alpha  occ. eigenvalues --   -0.71631  -0.71104  -0.70754  -0.70185  -0.70152
 Alpha  occ. eigenvalues --   -0.69297  -0.68770  -0.68286  -0.68026  -0.67632
 Alpha  occ. eigenvalues --   -0.66484  -0.65807  -0.65211  -0.65033  -0.64704
 Alpha  occ. eigenvalues --   -0.64023  -0.62531  -0.62330  -0.61845  -0.61172
 Alpha  occ. eigenvalues --   -0.60211  -0.59697  -0.59480  -0.59188  -0.58702
 Alpha  occ. eigenvalues --   -0.58031  -0.57418  -0.56910  -0.55249  -0.54918
 Alpha  occ. eigenvalues --   -0.54376  -0.53268  -0.52997  -0.52163  -0.52021
 Alpha  occ. eigenvalues --   -0.51430  -0.51250  -0.50810  -0.50648  -0.49665
 Alpha  occ. eigenvalues --   -0.49628  -0.49129  -0.49003  -0.48557  -0.46857
 Alpha  occ. eigenvalues --   -0.46431  -0.46351  -0.45914  -0.45546  -0.44485
 Alpha  occ. eigenvalues --   -0.43980  -0.43790  -0.42790  -0.42750  -0.42595
 Alpha  occ. eigenvalues --   -0.42347  -0.41868  -0.41553  -0.41484  -0.41254
 Alpha  occ. eigenvalues --   -0.40789  -0.40560  -0.40294  -0.40104  -0.39933
 Alpha  occ. eigenvalues --   -0.39869  -0.39697  -0.39613  -0.39521  -0.39324
 Alpha  occ. eigenvalues --   -0.39160  -0.38904  -0.38701  -0.38549  -0.38303
 Alpha  occ. eigenvalues --   -0.38107  -0.37918  -0.37774  -0.37534  -0.37464
 Alpha  occ. eigenvalues --   -0.37350  -0.37100  -0.36876  -0.36785  -0.36724
 Alpha  occ. eigenvalues --   -0.36601  -0.36313  -0.36145  -0.35976  -0.35640
 Alpha  occ. eigenvalues --   -0.35465  -0.35329  -0.35047  -0.34850  -0.34762
 Alpha  occ. eigenvalues --   -0.34668  -0.34582  -0.34426  -0.34239  -0.34048
 Alpha  occ. eigenvalues --   -0.33808  -0.33476  -0.33418  -0.33348  -0.33122
 Alpha  occ. eigenvalues --   -0.32989  -0.32651  -0.32609  -0.32552  -0.32383
 Alpha  occ. eigenvalues --   -0.32284  -0.31865  -0.31643  -0.31504  -0.31395
 Alpha  occ. eigenvalues --   -0.31336  -0.31229  -0.30961  -0.30744  -0.30664
 Alpha  occ. eigenvalues --   -0.30518  -0.30441  -0.30338  -0.30270  -0.30028
 Alpha  occ. eigenvalues --   -0.29774  -0.29613  -0.29144  -0.29070  -0.28872
 Alpha  occ. eigenvalues --   -0.28752  -0.28425  -0.28002  -0.27947  -0.27689
 Alpha  occ. eigenvalues --   -0.27400  -0.26911  -0.26735  -0.26722  -0.26546
 Alpha  occ. eigenvalues --   -0.26473  -0.26048  -0.26012  -0.25557  -0.25136
 Alpha  occ. eigenvalues --   -0.25061  -0.24599  -0.24497  -0.24242  -0.23965
 Alpha  occ. eigenvalues --   -0.23771  -0.23077  -0.22387  -0.22174  -0.21249
 Alpha  occ. eigenvalues --   -0.20374  -0.19855  -0.19740  -0.18433  -0.17896
 Alpha  occ. eigenvalues --   -0.16398
 Alpha virt. eigenvalues --   -0.12306  -0.07341  -0.06828  -0.05100  -0.04026
 Alpha virt. eigenvalues --   -0.03923  -0.03326  -0.02408  -0.01131  -0.00211
 Alpha virt. eigenvalues --    0.00834   0.01223   0.02193   0.02443   0.02704

 Mulliken charges:
               1
     1  Mg   0.699269
     2  C    0.054922
     3  C   -0.037732
     4  C   -0.053332
     5  C   -0.093391
     6  N   -0.228809
     7  C   -0.058156
     8  C   -0.053940
     9  C   -0.006769
    10  C    0.017053
    11  C    0.140211
    12  C    0.149035
    13  C    0.116551
    14  C    0.079705
    15  O   -0.171209
    16  O   -0.286367
    17  N   -0.319362
    18  C    0.141982
    19  C   -0.167321
    20  C    0.040058
    21  C    0.106546
    22  C    0.187738
    23  C   -0.096465
    24  O   -0.181481
    25  C    0.138298
    26  N   -0.197712
    27  C    0.083309
    28  C   -0.001269
    29  C    0.023994
    30  C    0.056989
    31  C    0.087230
    32  C    0.113053
    33  C    0.075833
    34  N   -0.231238
    35  C    0.098078
    36  C   -0.224573
    37  C    0.081226
    38  C    0.040451
    39  C    0.180845
    40  C   -0.034724
    41  O   -0.080380
    42  C    0.062671
    43  C    0.117244
    44  O   -0.185369
    45  O   -0.293197
    46  C    0.199229
    47  C    0.297879
    48  C   -0.123225
    49  C   -0.149637
    50  C    0.124836
    51  C    0.174499
    52  C    0.061596
    53  C    0.104400
    54  C   -0.086026
    55  C    0.080751
    56  C    0.068828
    57  C    0.087768
    58  C    0.079112
    59  C   -0.087544
    60  C    0.108369
    61  C    0.110545
    62  C    0.068972
    63  C    0.140243
    64  C   -0.100868
    65  C    0.084197
    66  C    0.091672
    67  H   -0.054324
    68  H   -0.088864
    69  H   -0.068336
    70  H   -0.015700
    71  H   -0.023276
    72  H    0.000205
    73  H   -0.010532
    74  H   -0.005428
    75  H   -0.014492
    76  H   -0.011737
    77  H   -0.005233
    78  H    0.011643
    79  H    0.019171
    80  H    0.006892
    81  H   -0.021023
    82  H    0.030961
    83  H    0.011870
    84  H   -0.015121
    85  H   -0.027351
    86  H   -0.026644
    87  H   -0.004776
    88  H   -0.004638
    89  H   -0.012463
    90  H   -0.013607
    91  H   -0.023828
    92  H   -0.020148
    93  H   -0.004499
    94  H   -0.017477
    95  H    0.002000
    96  H    0.011728
    97  H    0.002594
    98  H    0.001239
    99  H    0.019228
   100  H    0.032273
   101  H    0.028118
   102  H    0.005757
   103  H   -0.008894
   104  H   -0.030919
   105  H   -0.024564
   106  H    0.007810
   107  H    0.018492
   108  H   -0.026193
   109  H   -0.020058
   110  H   -0.021149
   111  H   -0.041152
   112  H   -0.033580
   113  H   -0.033319
   114  H   -0.028496
   115  H   -0.019339
   116  H   -0.008144
   117  H   -0.022922
   118  H   -0.037092
   119  H   -0.043403
   120  H   -0.042607
   121  H   -0.030959
   122  H   -0.015022
   123  H   -0.028384
   124  H   -0.028746
   125  H   -0.014185
   126  H   -0.016864
   127  H   -0.039382
   128  H   -0.034829
   129  H   -0.037282
   130  H   -0.024424
   131  H   -0.039401
   132  H   -0.040142
   133  H   -0.038621
   134  H   -0.017778
   135  H   -0.026095
   136  H   -0.006618
   137  H   -0.022223
   138  H   -0.014031
   139  H   -0.017748
   140  H   -0.011001
 Sum of Mulliken charges =  -0.00000

 Dipole moment (field-independent basis, Debye):
    X=             -3.7316    Y=             -2.0441    Z=              2.2465  Tot=              4.8114
 Quadrupole moment (field-independent basis, Debye-Ang):
   XX=           -361.0631   YY=           -442.4866   ZZ=           -405.3394
   XY=             -7.2000   XZ=            -14.3928   YZ=            -36.8324

 Normal termination of Gaussian 16 at Wed May  4 05:00:14 2022.
