 Gaussian 16, Revision A.03,
 Gaussian 16:  ES64L-G16RevA.03 25-Dec-2016

 -----------------------------------
 #p cam-b3lyp/Def2SVP td=(nstates=5)
 -----------------------------------

 -------------------------------------------------------
 step_1351_chromophore_5 TDDFT with cam-b3lyp functional
 -------------------------------------------------------
 Symbolic Z-matrix:
 Charge =  0 Multiplicity = 1

                         Standard orientation:
 ---------------------------------------------------------------------
 Center     Atomic      Atomic             Coordinates (Angstroms)
 Number     Number       Type             X           Y           Z
 ---------------------------------------------------------------------
      1         12           0       -5.629405   -0.251722   -0.468181
      2          6           0       -3.695924    2.784708   -0.084661
      3          6           0       -3.820154   -0.949579   -3.317717
      4          6           0       -7.016626   -3.250269   -0.296406
      5          6           0       -6.741361    0.269031    2.944008
      6          7           0       -4.001131    0.827046   -1.569486
      7          6           0       -3.401795    2.053839   -1.244315
      8          6           0       -2.175707    2.283531   -2.116486
      9          6           0       -2.572664    1.379765   -3.353391
     10          6           0       -3.485882    0.310092   -2.744789
     11          6           0       -3.182155    2.185679   -4.533842
     12          6           0       -0.916932    1.686167   -1.377472
     13          6           0        0.252313    2.651609   -1.212835
     14          6           0        1.646721    2.365055   -1.751517
     15          8           0        1.973367    1.896393   -2.819067
     16          8           0        2.600509    2.401616   -0.705067
     17          7           0       -5.526869   -1.844039   -1.693590
     18          6           0       -4.727870   -1.967382   -2.786240
     19          6           0       -4.905139   -3.302603   -3.330955
     20          6           0       -5.940949   -3.990042   -2.506935
     21          6           0       -6.195656   -3.031482   -1.458513
     22          6           0       -4.173324   -3.759362   -4.604751
     23          6           0       -6.403215   -5.401055   -2.770018
     24          8           0       -6.010658   -6.015819   -3.777609
     25          6           0       -7.230067   -6.200503   -1.739195
     26          7           0       -6.515879   -1.395956    1.209204
     27          6           0       -7.184516   -2.543959    0.886737
     28          6           0       -8.127296   -3.020138    2.040494
     29          6           0       -7.748880   -1.973360    3.204971
     30          6           0       -6.961112   -0.948556    2.408693
     31          6           0       -9.681425   -3.081152    1.749612
     32          6           0       -6.785075   -2.646569    4.302913
     33          6           0       -6.907428   -2.146304    5.686847
     34          7           0       -5.498167    1.271026    1.075303
     35          6           0       -6.011994    1.300993    2.306239
     36          6           0       -5.573136    2.558175    2.929453
     37          6           0       -4.679064    3.233485    2.080268
     38          6           0       -4.600898    2.345851    0.905450
     39          6           0       -6.000522    2.853512    4.341490
     40          6           0       -3.862136    4.408721    1.833103
     41          8           0       -3.655389    5.425510    2.430034
     42          6           0       -3.112654    4.087435    0.448904
     43          6           0       -3.108882    5.170105   -0.564260
     44          8           0       -2.112383    5.855497   -0.864071
     45          8           0       -4.422893    5.265925   -1.001659
     46          6           0       -4.589083    6.197137   -2.143175
     47          6           0        3.758424    1.645346   -0.945871
     48          6           0        4.512984    1.442023    0.389180
     49          6           0        5.411131    0.465562    0.676801
     50          6           0        5.906952   -0.481467   -0.403368
     51          6           0        6.088272    0.400100    2.084175
     52          6           0        5.928037   -0.919625    2.890859
     53          6           0        7.218178   -1.508286    3.432090
     54          6           0        7.695548   -2.750442    2.604606
     55          6           0        7.439171   -4.037439    3.489134
     56          6           0        9.199103   -2.703115    2.062394
     57          6           0        9.481142   -1.933264    0.758906
     58          6           0       10.227966   -0.539145    0.985167
     59          6           0       11.110816    0.059388   -0.203147
     60          6           0       10.322248    0.679641   -1.344821
     61          6           0       12.180723    1.038045    0.302146
     62          6           0       13.350721    0.245601    0.926565
     63          6           0       14.519136    0.095345   -0.052306
     64          6           0       14.318270   -1.142414   -0.947252
     65          6           0       15.674975   -2.005484   -1.030482
     66          6           0       13.930288   -0.758151   -2.409408
     67          1           0       -3.227484   -1.169824   -4.207427
     68          1           0       -7.588019   -4.173077   -0.419575
     69          1           0       -7.017433    0.492776    3.976049
     70          1           0       -1.950683    3.300651   -2.437642
     71          1           0       -1.630777    0.979598   -3.729771
     72          1           0       -3.220795    3.271000   -4.449471
     73          1           0       -4.172257    1.775756   -4.734962
     74          1           0       -2.536317    1.923131   -5.372282
     75          1           0       -0.559320    0.798579   -1.899975
     76          1           0       -1.214211    1.284821   -0.407722
     77          1           0        0.272167    2.832276   -0.137378
     78          1           0        0.009610    3.639224   -1.607410
     79          1           0       -4.895541   -4.286820   -5.227809
     80          1           0       -3.325553   -4.368306   -4.292314
     81          1           0       -3.776769   -2.895873   -5.139149
     82          1           0       -8.238843   -5.791789   -1.679608
     83          1           0       -6.601360   -6.213422   -0.849177
     84          1           0       -7.261108   -7.246374   -2.045142
     85          1           0       -8.042018   -4.033258    2.433099
     86          1           0       -8.686909   -1.532940    3.542805
     87          1           0      -10.055170   -2.103554    1.443693
     88          1           0      -10.199791   -3.534782    2.593965
     89          1           0       -9.939027   -3.777508    0.951787
     90          1           0       -5.749871   -2.523239    3.981420
     91          1           0       -6.915918   -3.727849    4.351992
     92          1           0       -5.947171   -1.878328    6.127423
     93          1           0       -7.354885   -2.775420    6.456058
     94          1           0       -7.414791   -1.182768    5.634511
     95          1           0       -5.726173    3.879842    4.585846
     96          1           0       -5.458882    2.130968    4.950855
     97          1           0       -7.080959    2.782132    4.468555
     98          1           0       -2.113495    3.972608    0.869215
     99          1           0       -5.111834    5.633307   -2.915554
    100          1           0       -3.658903    6.586332   -2.557808
    101          1           0       -5.208902    6.969239   -1.686938
    102          1           0        4.379452    2.108373   -1.713217
    103          1           0        3.405422    0.654688   -1.231776
    104          1           0        4.093667    2.077805    1.169192
    105          1           0        5.600639   -0.166082   -1.400557
    106          1           0        5.521865   -1.494655   -0.296068
    107          1           0        6.992775   -0.405748   -0.475916
    108          1           0        5.614895    1.202828    2.651209
    109          1           0        7.160995    0.443723    1.897385
    110          1           0        5.324941   -1.686046    2.402457
    111          1           0        5.426306   -0.652332    3.820228
    112          1           0        6.986555   -1.805717    4.454952
    113          1           0        8.024197   -0.774902    3.440616
    114          1           0        7.086244   -2.920466    1.716370
    115          1           0        6.500235   -3.964968    4.037710
    116          1           0        8.226824   -4.283407    4.200326
    117          1           0        7.316339   -4.865713    2.792091
    118          1           0        9.638110   -3.700653    2.057386
    119          1           0        9.716844   -2.162981    2.855056
    120          1           0        8.465073   -1.772503    0.398830
    121          1           0        9.986543   -2.619924    0.079944
    122          1           0       10.738191   -0.507196    1.947593
    123          1           0        9.317030    0.051089    1.078202
    124          1           0       11.526205   -0.778743   -0.763248
    125          1           0       10.289628    0.102506   -2.269743
    126          1           0       10.586764    1.712766   -1.570671
    127          1           0        9.295169    0.659308   -0.980123
    128          1           0       11.744020    1.760202    0.991820
    129          1           0       12.459873    1.611099   -0.581966
    130          1           0       12.984456   -0.765424    1.104838
    131          1           0       13.682548    0.687844    1.866594
    132          1           0       15.484724    0.005163    0.443281
    133          1           0       14.463028    1.042998   -0.587748
    134          1           0       13.522529   -1.774889   -0.555561
    135          1           0       15.442563   -3.061868   -0.894328
    136          1           0       16.461697   -1.752136   -0.319971
    137          1           0       16.085668   -2.026549   -2.040629
    138          1           0       13.317908    0.136358   -2.513597
    139          1           0       13.347005   -1.598237   -2.788326
    140          1           0       14.827652   -0.600338   -3.007604
 ---------------------------------------------------------------------

 SCF Done:  E(RCAM-B3LYP) =  -3007.15417385     A.U. after   17 cycles

 Excitation energies and oscillator strengths:

 Excited State   1:      Singlet-A      1.6608 eV  746.55 nm  f=0.3702  <S**2>=0.000
     245 -> 248        0.17231
     246 -> 247        0.68840
     245 <- 248        0.10816
 This state for optimization and/or second-order correction.
 Total Energy, E(TD-HF/TD-DFT) =  -3007.09314237
 Copying the excited state density for this state as the 1-particle RhoCI density.

 Excited State   2:      Singlet-A      2.2084 eV  561.41 nm  f=0.1195  <S**2>=0.000
     245 -> 247        0.64486
     246 -> 248       -0.27677

 Excited State   3:      Singlet-A      3.2167 eV  385.43 nm  f=0.0040  <S**2>=0.000
     243 -> 247        0.68449

 Excited State   4:      Singlet-A      3.4170 eV  362.84 nm  f=0.0487  <S**2>=0.000
     241 -> 247        0.59255
     242 -> 247       -0.14306
     246 -> 248        0.31083

 Excited State   5:      Singlet-A      3.5378 eV  350.46 nm  f=0.0746  <S**2>=0.000
     242 -> 247        0.49307
     242 -> 248        0.11091
     242 -> 249       -0.28394
     242 -> 251        0.24308
     246 -> 248        0.20919

 The electronic state is 1-A.
 Alpha  occ. eigenvalues --  -46.89977 -19.26193 -19.23517 -19.21136 -19.20606
 Alpha  occ. eigenvalues --  -19.20533 -19.18324 -14.43151 -14.42231 -14.40505
 Alpha  occ. eigenvalues --  -14.40120 -10.40480 -10.39774 -10.36593 -10.35131
 Alpha  occ. eigenvalues --  -10.32354 -10.32176 -10.31662 -10.31633 -10.31008
 Alpha  occ. eigenvalues --  -10.30932 -10.30813 -10.30569 -10.30519 -10.30263
 Alpha  occ. eigenvalues --  -10.29192 -10.29166 -10.28788 -10.28748 -10.28633
 Alpha  occ. eigenvalues --  -10.28500 -10.28498 -10.28452 -10.28135 -10.27667
 Alpha  occ. eigenvalues --  -10.27583 -10.27165 -10.27054 -10.27045 -10.27006
 Alpha  occ. eigenvalues --  -10.26893 -10.26758 -10.26710 -10.26676 -10.26294
 Alpha  occ. eigenvalues --  -10.26272 -10.25957 -10.25931 -10.25837 -10.25560
 Alpha  occ. eigenvalues --  -10.25549 -10.25444 -10.25425 -10.25387 -10.25307
 Alpha  occ. eigenvalues --  -10.25156 -10.24753 -10.24689 -10.24651 -10.24541
 Alpha  occ. eigenvalues --  -10.24489 -10.24373 -10.24283 -10.24194 -10.23991
 Alpha  occ. eigenvalues --  -10.23919  -3.18376  -1.93268  -1.92835  -1.92672
 Alpha  occ. eigenvalues --   -1.16400  -1.16024  -1.12425  -1.08439  -1.08132
 Alpha  occ. eigenvalues --   -1.08120  -1.04516  -1.03462  -1.03119  -1.02304
 Alpha  occ. eigenvalues --   -0.93352  -0.89882  -0.89673  -0.89365  -0.89339
 Alpha  occ. eigenvalues --   -0.88182  -0.87764  -0.87471  -0.86779  -0.86672
 Alpha  occ. eigenvalues --   -0.85719  -0.85065  -0.84489  -0.84284  -0.83869
 Alpha  occ. eigenvalues --   -0.82625  -0.81835  -0.81084  -0.80937  -0.80626
 Alpha  occ. eigenvalues --   -0.79812  -0.78174  -0.77955  -0.77358  -0.76710
 Alpha  occ. eigenvalues --   -0.75577  -0.74927  -0.74774  -0.74458  -0.73920
 Alpha  occ. eigenvalues --   -0.73119  -0.72441  -0.71813  -0.70028  -0.69705
 Alpha  occ. eigenvalues --   -0.68952  -0.67800  -0.67415  -0.66563  -0.66105
 Alpha  occ. eigenvalues --   -0.65685  -0.65272  -0.65006  -0.64651  -0.63648
 Alpha  occ. eigenvalues --   -0.63619  -0.63104  -0.62854  -0.62427  -0.60514
 Alpha  occ. eigenvalues --   -0.60043  -0.59736  -0.59477  -0.59027  -0.57800
 Alpha  occ. eigenvalues --   -0.57620  -0.57079  -0.56099  -0.56058  -0.55867
 Alpha  occ. eigenvalues --   -0.55654  -0.55041  -0.54603  -0.54401  -0.53983
 Alpha  occ. eigenvalues --   -0.53777  -0.53488  -0.53095  -0.52908  -0.52746
 Alpha  occ. eigenvalues --   -0.52606  -0.52489  -0.52097  -0.52012  -0.51844
 Alpha  occ. eigenvalues --   -0.51755  -0.51558  -0.51123  -0.50920  -0.50832
 Alpha  occ. eigenvalues --   -0.50603  -0.50481  -0.50234  -0.49951  -0.49898
 Alpha  occ. eigenvalues --   -0.49722  -0.49602  -0.49198  -0.48960  -0.48856
 Alpha  occ. eigenvalues --   -0.48780  -0.48493  -0.48344  -0.48105  -0.47716
 Alpha  occ. eigenvalues --   -0.47630  -0.47297  -0.47152  -0.46923  -0.46694
 Alpha  occ. eigenvalues --   -0.46573  -0.46486  -0.46274  -0.46236  -0.46118
 Alpha  occ. eigenvalues --   -0.45860  -0.45489  -0.45212  -0.44960  -0.44860
 Alpha  occ. eigenvalues --   -0.44641  -0.44279  -0.44179  -0.44122  -0.44092
 Alpha  occ. eigenvalues --   -0.43852  -0.43826  -0.43451  -0.43229  -0.42950
 Alpha  occ. eigenvalues --   -0.42783  -0.42700  -0.42462  -0.42116  -0.41914
 Alpha  occ. eigenvalues --   -0.41894  -0.41817  -0.41642  -0.41606  -0.41312
 Alpha  occ. eigenvalues --   -0.41025  -0.40882  -0.40474  -0.40102  -0.39941
 Alpha  occ. eigenvalues --   -0.39892  -0.39448  -0.39111  -0.38874  -0.38566
 Alpha  occ. eigenvalues --   -0.38347  -0.37790  -0.37712  -0.37546  -0.37502
 Alpha  occ. eigenvalues --   -0.37218  -0.37183  -0.36877  -0.36815  -0.36026
 Alpha  occ. eigenvalues --   -0.35705  -0.35569  -0.35529  -0.35063  -0.34621
 Alpha  occ. eigenvalues --   -0.34448  -0.34390  -0.33504  -0.32282  -0.31611
 Alpha  occ. eigenvalues --   -0.30793  -0.30571  -0.29359  -0.29321  -0.24706
 Alpha  occ. eigenvalues --   -0.21747
 Alpha virt. eigenvalues --   -0.09516  -0.02194  -0.00339   0.01447   0.02008
 Alpha virt. eigenvalues --    0.03420   0.03860   0.04580   0.06340   0.06601
 Alpha virt. eigenvalues --    0.07537   0.07841   0.08661   0.08731   0.08780

 Mulliken charges:
               1
     1  Mg   0.827585
     2  C    0.020742
     3  C   -0.044869
     4  C   -0.072578
     5  C   -0.103553
     6  N   -0.292760
     7  C   -0.009592
     8  C   -0.104995
     9  C   -0.057548
    10  C    0.024483
    11  C    0.084607
    12  C    0.095424
    13  C    0.040495
    14  C    0.166963
    15  O   -0.210142
    16  O   -0.351954
    17  N   -0.409837
    18  C    0.142441
    19  C   -0.170243
    20  C   -0.036531
    21  C    0.138316
    22  C    0.134127
    23  C   -0.017475
    24  O   -0.223815
    25  C    0.053968
    26  N   -0.270081
    27  C    0.094542
    28  C   -0.048689
    29  C   -0.036260
    30  C    0.075820
    31  C    0.036063
    32  C    0.058332
    33  C    0.013545
    34  N   -0.317388
    35  C    0.112569
    36  C   -0.212192
    37  C   -0.001602
    38  C    0.079206
    39  C    0.121085
    40  C    0.075539
    41  O   -0.118232
    42  C   -0.013674
    43  C    0.204599
    44  O   -0.225080
    45  O   -0.354107
    46  C    0.160926
    47  C    0.263044
    48  C   -0.140707
    49  C   -0.170183
    50  C    0.066884
    51  C    0.121533
    52  C    0.002210
    53  C    0.047597
    54  C   -0.138421
    55  C    0.025926
    56  C    0.020168
    57  C    0.038872
    58  C    0.031152
    59  C   -0.137449
    60  C    0.051512
    61  C    0.054925
    62  C    0.010172
    63  C    0.085103
    64  C   -0.161599
    65  C    0.028245
    66  C    0.036607
    67  H   -0.018031
    68  H   -0.054372
    69  H   -0.032125
    70  H    0.016979
    71  H    0.012941
    72  H    0.021371
    73  H    0.015752
    74  H    0.018688
    75  H    0.018528
    76  H    0.021088
    77  H    0.030816
    78  H    0.041965
    79  H    0.046551
    80  H    0.032426
    81  H    0.002152
    82  H    0.054948
    83  H    0.039499
    84  H    0.021253
    85  H    0.006491
    86  H    0.009857
    87  H    0.017861
    88  H    0.019085
    89  H    0.011161
    90  H    0.017257
    91  H    0.005270
    92  H    0.005323
    93  H    0.020343
    94  H    0.001546
    95  H    0.031200
    96  H    0.038231
    97  H    0.029069
    98  H    0.040608
    99  H    0.040849
   100  H    0.057921
   101  H    0.051308
   102  H    0.032366
   103  H    0.017995
   104  H    0.003765
   105  H    0.002813
   106  H    0.031107
   107  H    0.033106
   108  H    0.004922
   109  H    0.002954
   110  H    0.006335
   111  H   -0.009543
   112  H   -0.002443
   113  H   -0.005316
   114  H   -0.000439
   115  H    0.004151
   116  H    0.014949
   117  H    0.001626
   118  H   -0.005866
   119  H   -0.015794
   120  H   -0.019051
   121  H   -0.002617
   122  H    0.011016
   123  H   -0.006989
   124  H   -0.001780
   125  H    0.010202
   126  H    0.008788
   127  H   -0.017675
   128  H   -0.003862
   129  H   -0.010052
   130  H    0.001743
   131  H   -0.007702
   132  H   -0.009362
   133  H   -0.009774
   134  H    0.011240
   135  H   -0.001567
   136  H    0.016338
   137  H    0.001671
   138  H    0.006136
   139  H    0.006210
   140  H    0.012817
 Sum of Mulliken charges =  -0.00000

 Dipole moment (field-independent basis, Debye):
    X=             -3.9571    Y=             -1.7597    Z=              2.5565  Tot=              5.0290
 Quadrupole moment (field-independent basis, Debye-Ang):
   XX=           -359.7826   YY=           -440.5772   ZZ=           -403.9098
   XY=             -8.5309   XZ=            -16.7928   YZ=            -38.4672

 Normal termination of Gaussian 16 at Wed May  4 04:00:43 2022.
