 Gaussian 16, Revision A.03,
 Gaussian 16:  ES64L-G16RevA.03 25-Dec-2016

 ---------------------------------
 #p PBE1PBE/Def2SVP td=(nstates=5)
 ---------------------------------

 -----------------------------------------------------
 step_1351_chromophore_5 TDDFT with PBE1PBE functional
 -----------------------------------------------------
 Symbolic Z-matrix:
 Charge =  0 Multiplicity = 1

                         Standard orientation:
 ---------------------------------------------------------------------
 Center     Atomic      Atomic             Coordinates (Angstroms)
 Number     Number       Type             X           Y           Z
 ---------------------------------------------------------------------
      1         12           0       -5.629405   -0.251722   -0.468181
      2          6           0       -3.695924    2.784708   -0.084661
      3          6           0       -3.820154   -0.949579   -3.317717
      4          6           0       -7.016626   -3.250269   -0.296406
      5          6           0       -6.741361    0.269031    2.944008
      6          7           0       -4.001131    0.827046   -1.569486
      7          6           0       -3.401795    2.053839   -1.244315
      8          6           0       -2.175707    2.283531   -2.116486
      9          6           0       -2.572664    1.379765   -3.353391
     10          6           0       -3.485882    0.310092   -2.744789
     11          6           0       -3.182155    2.185679   -4.533842
     12          6           0       -0.916932    1.686167   -1.377472
     13          6           0        0.252313    2.651609   -1.212835
     14          6           0        1.646721    2.365055   -1.751517
     15          8           0        1.973367    1.896393   -2.819067
     16          8           0        2.600509    2.401616   -0.705067
     17          7           0       -5.526869   -1.844039   -1.693590
     18          6           0       -4.727870   -1.967382   -2.786240
     19          6           0       -4.905139   -3.302603   -3.330955
     20          6           0       -5.940949   -3.990042   -2.506935
     21          6           0       -6.195656   -3.031482   -1.458513
     22          6           0       -4.173324   -3.759362   -4.604751
     23          6           0       -6.403215   -5.401055   -2.770018
     24          8           0       -6.010658   -6.015819   -3.777609
     25          6           0       -7.230067   -6.200503   -1.739195
     26          7           0       -6.515879   -1.395956    1.209204
     27          6           0       -7.184516   -2.543959    0.886737
     28          6           0       -8.127296   -3.020138    2.040494
     29          6           0       -7.748880   -1.973360    3.204971
     30          6           0       -6.961112   -0.948556    2.408693
     31          6           0       -9.681425   -3.081152    1.749612
     32          6           0       -6.785075   -2.646569    4.302913
     33          6           0       -6.907428   -2.146304    5.686847
     34          7           0       -5.498167    1.271026    1.075303
     35          6           0       -6.011994    1.300993    2.306239
     36          6           0       -5.573136    2.558175    2.929453
     37          6           0       -4.679064    3.233485    2.080268
     38          6           0       -4.600898    2.345851    0.905450
     39          6           0       -6.000522    2.853512    4.341490
     40          6           0       -3.862136    4.408721    1.833103
     41          8           0       -3.655389    5.425510    2.430034
     42          6           0       -3.112654    4.087435    0.448904
     43          6           0       -3.108882    5.170105   -0.564260
     44          8           0       -2.112383    5.855497   -0.864071
     45          8           0       -4.422893    5.265925   -1.001659
     46          6           0       -4.589083    6.197137   -2.143175
     47          6           0        3.758424    1.645346   -0.945871
     48          6           0        4.512984    1.442023    0.389180
     49          6           0        5.411131    0.465562    0.676801
     50          6           0        5.906952   -0.481467   -0.403368
     51          6           0        6.088272    0.400100    2.084175
     52          6           0        5.928037   -0.919625    2.890859
     53          6           0        7.218178   -1.508286    3.432090
     54          6           0        7.695548   -2.750442    2.604606
     55          6           0        7.439171   -4.037439    3.489134
     56          6           0        9.199103   -2.703115    2.062394
     57          6           0        9.481142   -1.933264    0.758906
     58          6           0       10.227966   -0.539145    0.985167
     59          6           0       11.110816    0.059388   -0.203147
     60          6           0       10.322248    0.679641   -1.344821
     61          6           0       12.180723    1.038045    0.302146
     62          6           0       13.350721    0.245601    0.926565
     63          6           0       14.519136    0.095345   -0.052306
     64          6           0       14.318270   -1.142414   -0.947252
     65          6           0       15.674975   -2.005484   -1.030482
     66          6           0       13.930288   -0.758151   -2.409408
     67          1           0       -3.227484   -1.169824   -4.207427
     68          1           0       -7.588019   -4.173077   -0.419575
     69          1           0       -7.017433    0.492776    3.976049
     70          1           0       -1.950683    3.300651   -2.437642
     71          1           0       -1.630777    0.979598   -3.729771
     72          1           0       -3.220795    3.271000   -4.449471
     73          1           0       -4.172257    1.775756   -4.734962
     74          1           0       -2.536317    1.923131   -5.372282
     75          1           0       -0.559320    0.798579   -1.899975
     76          1           0       -1.214211    1.284821   -0.407722
     77          1           0        0.272167    2.832276   -0.137378
     78          1           0        0.009610    3.639224   -1.607410
     79          1           0       -4.895541   -4.286820   -5.227809
     80          1           0       -3.325553   -4.368306   -4.292314
     81          1           0       -3.776769   -2.895873   -5.139149
     82          1           0       -8.238843   -5.791789   -1.679608
     83          1           0       -6.601360   -6.213422   -0.849177
     84          1           0       -7.261108   -7.246374   -2.045142
     85          1           0       -8.042018   -4.033258    2.433099
     86          1           0       -8.686909   -1.532940    3.542805
     87          1           0      -10.055170   -2.103554    1.443693
     88          1           0      -10.199791   -3.534782    2.593965
     89          1           0       -9.939027   -3.777508    0.951787
     90          1           0       -5.749871   -2.523239    3.981420
     91          1           0       -6.915918   -3.727849    4.351992
     92          1           0       -5.947171   -1.878328    6.127423
     93          1           0       -7.354885   -2.775420    6.456058
     94          1           0       -7.414791   -1.182768    5.634511
     95          1           0       -5.726173    3.879842    4.585846
     96          1           0       -5.458882    2.130968    4.950855
     97          1           0       -7.080959    2.782132    4.468555
     98          1           0       -2.113495    3.972608    0.869215
     99          1           0       -5.111834    5.633307   -2.915554
    100          1           0       -3.658903    6.586332   -2.557808
    101          1           0       -5.208902    6.969239   -1.686938
    102          1           0        4.379452    2.108373   -1.713217
    103          1           0        3.405422    0.654688   -1.231776
    104          1           0        4.093667    2.077805    1.169192
    105          1           0        5.600639   -0.166082   -1.400557
    106          1           0        5.521865   -1.494655   -0.296068
    107          1           0        6.992775   -0.405748   -0.475916
    108          1           0        5.614895    1.202828    2.651209
    109          1           0        7.160995    0.443723    1.897385
    110          1           0        5.324941   -1.686046    2.402457
    111          1           0        5.426306   -0.652332    3.820228
    112          1           0        6.986555   -1.805717    4.454952
    113          1           0        8.024197   -0.774902    3.440616
    114          1           0        7.086244   -2.920466    1.716370
    115          1           0        6.500235   -3.964968    4.037710
    116          1           0        8.226824   -4.283407    4.200326
    117          1           0        7.316339   -4.865713    2.792091
    118          1           0        9.638110   -3.700653    2.057386
    119          1           0        9.716844   -2.162981    2.855056
    120          1           0        8.465073   -1.772503    0.398830
    121          1           0        9.986543   -2.619924    0.079944
    122          1           0       10.738191   -0.507196    1.947593
    123          1           0        9.317030    0.051089    1.078202
    124          1           0       11.526205   -0.778743   -0.763248
    125          1           0       10.289628    0.102506   -2.269743
    126          1           0       10.586764    1.712766   -1.570671
    127          1           0        9.295169    0.659308   -0.980123
    128          1           0       11.744020    1.760202    0.991820
    129          1           0       12.459873    1.611099   -0.581966
    130          1           0       12.984456   -0.765424    1.104838
    131          1           0       13.682548    0.687844    1.866594
    132          1           0       15.484724    0.005163    0.443281
    133          1           0       14.463028    1.042998   -0.587748
    134          1           0       13.522529   -1.774889   -0.555561
    135          1           0       15.442563   -3.061868   -0.894328
    136          1           0       16.461697   -1.752136   -0.319971
    137          1           0       16.085668   -2.026549   -2.040629
    138          1           0       13.317908    0.136358   -2.513597
    139          1           0       13.347005   -1.598237   -2.788326
    140          1           0       14.827652   -0.600338   -3.007604
 ---------------------------------------------------------------------

 SCF Done:  E(RPBE1PBE) =  -3005.34338775     A.U. after   15 cycles

 Excitation energies and oscillator strengths:

 Excited State   1:      Singlet-A      1.8180 eV  681.99 nm  f=0.3595  <S**2>=0.000
     245 -> 248       -0.16652
     246 -> 247        0.69593
     246 <- 247       -0.11630
 This state for optimization and/or second-order correction.
 Total Energy, E(TD-HF/TD-DFT) =  -3005.27657788
 Copying the excited state density for this state as the 1-particle RhoCI density.

 Excited State   2:      Singlet-A      2.2152 eV  559.69 nm  f=0.1137  <S**2>=0.000
     245 -> 247        0.65443
     246 -> 248        0.25570

 Excited State   3:      Singlet-A      2.8219 eV  439.36 nm  f=0.0032  <S**2>=0.000
     243 -> 247        0.69306

 Excited State   4:      Singlet-A      2.9367 eV  422.19 nm  f=0.0007  <S**2>=0.000
     242 -> 247        0.67911
     242 -> 249        0.11570

 Excited State   5:      Singlet-A      3.1038 eV  399.46 nm  f=0.0000  <S**2>=0.000
     244 -> 247        0.70327

 The electronic state is 1-A.
 Alpha  occ. eigenvalues --  -46.93372 -19.26743 -19.24223 -19.21282 -19.20843
 Alpha  occ. eigenvalues --  -19.20566 -19.18728 -14.42588 -14.41844 -14.40047
 Alpha  occ. eigenvalues --  -14.39889 -10.37373 -10.36800 -10.33562 -10.32461
 Alpha  occ. eigenvalues --  -10.29796 -10.29496 -10.29479 -10.29476 -10.28853
 Alpha  occ. eigenvalues --  -10.28516 -10.28232 -10.28219 -10.28146 -10.27974
 Alpha  occ. eigenvalues --  -10.26824 -10.26677 -10.26655 -10.26456 -10.26413
 Alpha  occ. eigenvalues --  -10.26308 -10.26239 -10.26139 -10.25960 -10.25176
 Alpha  occ. eigenvalues --  -10.25168 -10.25120 -10.24852 -10.24658 -10.24546
 Alpha  occ. eigenvalues --  -10.24447 -10.24427 -10.24347 -10.23975 -10.23756
 Alpha  occ. eigenvalues --  -10.23725 -10.23697 -10.23634 -10.23396 -10.23137
 Alpha  occ. eigenvalues --  -10.23050 -10.22981 -10.22950 -10.22943 -10.22881
 Alpha  occ. eigenvalues --  -10.22703 -10.22299 -10.22263 -10.22213 -10.22111
 Alpha  occ. eigenvalues --  -10.21903 -10.21801 -10.21735 -10.21670 -10.21544
 Alpha  occ. eigenvalues --  -10.21309  -3.15355  -1.88185  -1.87732  -1.87572
 Alpha  occ. eigenvalues --   -1.11206  -1.10654  -1.07030  -1.03329  -1.03010
 Alpha  occ. eigenvalues --   -1.02828  -0.99103  -0.98001  -0.97832  -0.96965
 Alpha  occ. eigenvalues --   -0.87553  -0.83958  -0.83835  -0.83677  -0.83449
 Alpha  occ. eigenvalues --   -0.82500  -0.81890  -0.81710  -0.81043  -0.80791
 Alpha  occ. eigenvalues --   -0.79960  -0.79537  -0.78735  -0.78508  -0.78079
 Alpha  occ. eigenvalues --   -0.76862  -0.75975  -0.75413  -0.75206  -0.74818
 Alpha  occ. eigenvalues --   -0.74002  -0.72465  -0.72205  -0.71699  -0.70955
 Alpha  occ. eigenvalues --   -0.69734  -0.69325  -0.68853  -0.68592  -0.68088
 Alpha  occ. eigenvalues --   -0.67485  -0.66784  -0.66271  -0.64323  -0.64065
 Alpha  occ. eigenvalues --   -0.63304  -0.62066  -0.61943  -0.60768  -0.60528
 Alpha  occ. eigenvalues --   -0.60115  -0.59862  -0.59251  -0.59154  -0.58047
 Alpha  occ. eigenvalues --   -0.57748  -0.57323  -0.57226  -0.56645  -0.55012
 Alpha  occ. eigenvalues --   -0.54558  -0.54434  -0.53894  -0.53615  -0.52485
 Alpha  occ. eigenvalues --   -0.51998  -0.51551  -0.50483  -0.50445  -0.50376
 Alpha  occ. eigenvalues --   -0.50054  -0.49670  -0.49127  -0.48928  -0.48359
 Alpha  occ. eigenvalues --   -0.48332  -0.48051  -0.47692  -0.47453  -0.47284
 Alpha  occ. eigenvalues --   -0.47098  -0.46991  -0.46625  -0.46527  -0.46326
 Alpha  occ. eigenvalues --   -0.46234  -0.46079  -0.45632  -0.45441  -0.45385
 Alpha  occ. eigenvalues --   -0.45162  -0.45086  -0.44829  -0.44494  -0.44426
 Alpha  occ. eigenvalues --   -0.44361  -0.44107  -0.43811  -0.43594  -0.43510
 Alpha  occ. eigenvalues --   -0.43369  -0.43204  -0.42931  -0.42714  -0.42359
 Alpha  occ. eigenvalues --   -0.42292  -0.42060  -0.41844  -0.41581  -0.41365
 Alpha  occ. eigenvalues --   -0.41311  -0.41092  -0.40994  -0.40798  -0.40722
 Alpha  occ. eigenvalues --   -0.40485  -0.40229  -0.40010  -0.39593  -0.39549
 Alpha  occ. eigenvalues --   -0.39439  -0.39043  -0.38898  -0.38839  -0.38763
 Alpha  occ. eigenvalues --   -0.38555  -0.38515  -0.38273  -0.38057  -0.37814
 Alpha  occ. eigenvalues --   -0.37664  -0.37514  -0.37362  -0.36911  -0.36759
 Alpha  occ. eigenvalues --   -0.36665  -0.36644  -0.36536  -0.36460  -0.36027
 Alpha  occ. eigenvalues --   -0.35833  -0.35710  -0.35211  -0.35001  -0.34796
 Alpha  occ. eigenvalues --   -0.34702  -0.34197  -0.34074  -0.33612  -0.33379
 Alpha  occ. eigenvalues --   -0.33297  -0.32807  -0.32550  -0.32514  -0.32325
 Alpha  occ. eigenvalues --   -0.32131  -0.32057  -0.31924  -0.31717  -0.30948
 Alpha  occ. eigenvalues --   -0.30580  -0.30484  -0.30375  -0.29984  -0.29684
 Alpha  occ. eigenvalues --   -0.29293  -0.29265  -0.29131  -0.27677  -0.26630
 Alpha  occ. eigenvalues --   -0.26295  -0.25532  -0.25101  -0.24609  -0.21632
 Alpha  occ. eigenvalues --   -0.19363
 Alpha virt. eigenvalues --   -0.11955  -0.05708  -0.04547  -0.02585  -0.01210
 Alpha virt. eigenvalues --   -0.01115  -0.00691   0.00348   0.01934   0.02801
 Alpha virt. eigenvalues --    0.03603   0.04048   0.05026   0.05346   0.05567

 Mulliken charges:
               1
     1  Mg   0.967895
     2  C    0.000356
     3  C   -0.044282
     4  C   -0.067773
     5  C   -0.083761
     6  N   -0.391611
     7  C    0.071063
     8  C   -0.182357
     9  C   -0.136238
    10  C    0.064576
    11  C    0.032015
    12  C    0.056048
    13  C   -0.036913
    14  C    0.233104
    15  O   -0.244310
    16  O   -0.384554
    17  N   -0.531881
    18  C    0.173943
    19  C   -0.196184
    20  C   -0.077597
    21  C    0.164241
    22  C    0.072132
    23  C    0.034181
    24  O   -0.256647
    25  C   -0.027369
    26  N   -0.366933
    27  C    0.122580
    28  C   -0.116629
    29  C   -0.113439
    30  C    0.100901
    31  C   -0.023163
    32  C    0.003618
    33  C   -0.057683
    34  N   -0.439351
    35  C    0.145177
    36  C   -0.233221
    37  C   -0.050645
    38  C    0.122449
    39  C    0.061335
    40  C    0.176708
    41  O   -0.168047
    42  C   -0.122309
    43  C    0.287988
    44  O   -0.263475
    45  O   -0.379491
    46  C    0.107625
    47  C    0.223750
    48  C   -0.147150
    49  C   -0.213258
    50  C   -0.000750
    51  C    0.042466
    52  C   -0.056670
    53  C   -0.010610
    54  C   -0.222456
    55  C   -0.035621
    56  C   -0.027311
    57  C   -0.031267
    58  C   -0.035124
    59  C   -0.222644
    60  C   -0.012441
    61  C    0.001247
    62  C   -0.061194
    63  C    0.032333
    64  C   -0.253476
    65  C   -0.028875
    66  C   -0.025572
    67  H    0.013040
    68  H   -0.015262
    69  H    0.000384
    70  H    0.053685
    71  H    0.048997
    72  H    0.048408
    73  H    0.043799
    74  H    0.045918
    75  H    0.049102
    76  H    0.054314
    77  H    0.063277
    78  H    0.072889
    79  H    0.074092
    80  H    0.061815
    81  H    0.030901
    82  H    0.079760
    83  H    0.067729
    84  H    0.050600
    85  H    0.042265
    86  H    0.045392
    87  H    0.046218
    88  H    0.047382
    89  H    0.039112
    90  H    0.049304
    91  H    0.037036
    92  H    0.033658
    93  H    0.047563
    94  H    0.029822
    95  H    0.059675
    96  H    0.065755
    97  H    0.055382
    98  H    0.079946
    99  H    0.061809
   100  H    0.077246
   101  H    0.073161
   102  H    0.059031
   103  H    0.046164
   104  H    0.033724
   105  H    0.030984
   106  H    0.057701
   107  H    0.064166
   108  H    0.036665
   109  H    0.046076
   110  H    0.037992
   111  H    0.024675
   112  H    0.029958
   113  H    0.026561
   114  H    0.037353
   115  H    0.032380
   116  H    0.042272
   117  H    0.030216
   118  H    0.025996
   119  H    0.018375
   120  H    0.022196
   121  H    0.029268
   122  H    0.040700
   123  H    0.034430
   124  H    0.040869
   125  H    0.036692
   126  H    0.035571
   127  H    0.016660
   128  H    0.029025
   129  H    0.020967
   130  H    0.037660
   131  H    0.025178
   132  H    0.023187
   133  H    0.023561
   134  H    0.045797
   135  H    0.026610
   136  H    0.042066
   137  H    0.028278
   138  H    0.035177
   139  H    0.034202
   140  H    0.039993
 Sum of Mulliken charges =  -0.00000

 Dipole moment (field-independent basis, Debye):
    X=             -4.0378    Y=             -2.2195    Z=              2.4163  Tot=              5.2028
 Quadrupole moment (field-independent basis, Debye-Ang):
   XX=           -355.5207   YY=           -437.9851   ZZ=           -399.4879
   XY=             -6.3131   XZ=            -16.9553   YZ=            -38.4950

 Normal termination of Gaussian 16 at Wed May  4 04:18:50 2022.
