 Gaussian 16, Revision A.03,
 Gaussian 16:  ES64L-G16RevA.03 25-Dec-2016

 --------------------------------
 #p wB97XD/Def2SVP td=(nstates=5)
 --------------------------------

 ----------------------------------------------------
 step_1351_chromophore_5 TDDFT with wB97XD functional
 ----------------------------------------------------
 Symbolic Z-matrix:
 Charge =  0 Multiplicity = 1

                         Standard orientation:
 ---------------------------------------------------------------------
 Center     Atomic      Atomic             Coordinates (Angstroms)
 Number     Number       Type             X           Y           Z
 ---------------------------------------------------------------------
      1         12           0       -5.629405   -0.251722   -0.468181
      2          6           0       -3.695924    2.784708   -0.084661
      3          6           0       -3.820154   -0.949579   -3.317717
      4          6           0       -7.016626   -3.250269   -0.296406
      5          6           0       -6.741361    0.269031    2.944008
      6          7           0       -4.001131    0.827046   -1.569486
      7          6           0       -3.401795    2.053839   -1.244315
      8          6           0       -2.175707    2.283531   -2.116486
      9          6           0       -2.572664    1.379765   -3.353391
     10          6           0       -3.485882    0.310092   -2.744789
     11          6           0       -3.182155    2.185679   -4.533842
     12          6           0       -0.916932    1.686167   -1.377472
     13          6           0        0.252313    2.651609   -1.212835
     14          6           0        1.646721    2.365055   -1.751517
     15          8           0        1.973367    1.896393   -2.819067
     16          8           0        2.600509    2.401616   -0.705067
     17          7           0       -5.526869   -1.844039   -1.693590
     18          6           0       -4.727870   -1.967382   -2.786240
     19          6           0       -4.905139   -3.302603   -3.330955
     20          6           0       -5.940949   -3.990042   -2.506935
     21          6           0       -6.195656   -3.031482   -1.458513
     22          6           0       -4.173324   -3.759362   -4.604751
     23          6           0       -6.403215   -5.401055   -2.770018
     24          8           0       -6.010658   -6.015819   -3.777609
     25          6           0       -7.230067   -6.200503   -1.739195
     26          7           0       -6.515879   -1.395956    1.209204
     27          6           0       -7.184516   -2.543959    0.886737
     28          6           0       -8.127296   -3.020138    2.040494
     29          6           0       -7.748880   -1.973360    3.204971
     30          6           0       -6.961112   -0.948556    2.408693
     31          6           0       -9.681425   -3.081152    1.749612
     32          6           0       -6.785075   -2.646569    4.302913
     33          6           0       -6.907428   -2.146304    5.686847
     34          7           0       -5.498167    1.271026    1.075303
     35          6           0       -6.011994    1.300993    2.306239
     36          6           0       -5.573136    2.558175    2.929453
     37          6           0       -4.679064    3.233485    2.080268
     38          6           0       -4.600898    2.345851    0.905450
     39          6           0       -6.000522    2.853512    4.341490
     40          6           0       -3.862136    4.408721    1.833103
     41          8           0       -3.655389    5.425510    2.430034
     42          6           0       -3.112654    4.087435    0.448904
     43          6           0       -3.108882    5.170105   -0.564260
     44          8           0       -2.112383    5.855497   -0.864071
     45          8           0       -4.422893    5.265925   -1.001659
     46          6           0       -4.589083    6.197137   -2.143175
     47          6           0        3.758424    1.645346   -0.945871
     48          6           0        4.512984    1.442023    0.389180
     49          6           0        5.411131    0.465562    0.676801
     50          6           0        5.906952   -0.481467   -0.403368
     51          6           0        6.088272    0.400100    2.084175
     52          6           0        5.928037   -0.919625    2.890859
     53          6           0        7.218178   -1.508286    3.432090
     54          6           0        7.695548   -2.750442    2.604606
     55          6           0        7.439171   -4.037439    3.489134
     56          6           0        9.199103   -2.703115    2.062394
     57          6           0        9.481142   -1.933264    0.758906
     58          6           0       10.227966   -0.539145    0.985167
     59          6           0       11.110816    0.059388   -0.203147
     60          6           0       10.322248    0.679641   -1.344821
     61          6           0       12.180723    1.038045    0.302146
     62          6           0       13.350721    0.245601    0.926565
     63          6           0       14.519136    0.095345   -0.052306
     64          6           0       14.318270   -1.142414   -0.947252
     65          6           0       15.674975   -2.005484   -1.030482
     66          6           0       13.930288   -0.758151   -2.409408
     67          1           0       -3.227484   -1.169824   -4.207427
     68          1           0       -7.588019   -4.173077   -0.419575
     69          1           0       -7.017433    0.492776    3.976049
     70          1           0       -1.950683    3.300651   -2.437642
     71          1           0       -1.630777    0.979598   -3.729771
     72          1           0       -3.220795    3.271000   -4.449471
     73          1           0       -4.172257    1.775756   -4.734962
     74          1           0       -2.536317    1.923131   -5.372282
     75          1           0       -0.559320    0.798579   -1.899975
     76          1           0       -1.214211    1.284821   -0.407722
     77          1           0        0.272167    2.832276   -0.137378
     78          1           0        0.009610    3.639224   -1.607410
     79          1           0       -4.895541   -4.286820   -5.227809
     80          1           0       -3.325553   -4.368306   -4.292314
     81          1           0       -3.776769   -2.895873   -5.139149
     82          1           0       -8.238843   -5.791789   -1.679608
     83          1           0       -6.601360   -6.213422   -0.849177
     84          1           0       -7.261108   -7.246374   -2.045142
     85          1           0       -8.042018   -4.033258    2.433099
     86          1           0       -8.686909   -1.532940    3.542805
     87          1           0      -10.055170   -2.103554    1.443693
     88          1           0      -10.199791   -3.534782    2.593965
     89          1           0       -9.939027   -3.777508    0.951787
     90          1           0       -5.749871   -2.523239    3.981420
     91          1           0       -6.915918   -3.727849    4.351992
     92          1           0       -5.947171   -1.878328    6.127423
     93          1           0       -7.354885   -2.775420    6.456058
     94          1           0       -7.414791   -1.182768    5.634511
     95          1           0       -5.726173    3.879842    4.585846
     96          1           0       -5.458882    2.130968    4.950855
     97          1           0       -7.080959    2.782132    4.468555
     98          1           0       -2.113495    3.972608    0.869215
     99          1           0       -5.111834    5.633307   -2.915554
    100          1           0       -3.658903    6.586332   -2.557808
    101          1           0       -5.208902    6.969239   -1.686938
    102          1           0        4.379452    2.108373   -1.713217
    103          1           0        3.405422    0.654688   -1.231776
    104          1           0        4.093667    2.077805    1.169192
    105          1           0        5.600639   -0.166082   -1.400557
    106          1           0        5.521865   -1.494655   -0.296068
    107          1           0        6.992775   -0.405748   -0.475916
    108          1           0        5.614895    1.202828    2.651209
    109          1           0        7.160995    0.443723    1.897385
    110          1           0        5.324941   -1.686046    2.402457
    111          1           0        5.426306   -0.652332    3.820228
    112          1           0        6.986555   -1.805717    4.454952
    113          1           0        8.024197   -0.774902    3.440616
    114          1           0        7.086244   -2.920466    1.716370
    115          1           0        6.500235   -3.964968    4.037710
    116          1           0        8.226824   -4.283407    4.200326
    117          1           0        7.316339   -4.865713    2.792091
    118          1           0        9.638110   -3.700653    2.057386
    119          1           0        9.716844   -2.162981    2.855056
    120          1           0        8.465073   -1.772503    0.398830
    121          1           0        9.986543   -2.619924    0.079944
    122          1           0       10.738191   -0.507196    1.947593
    123          1           0        9.317030    0.051089    1.078202
    124          1           0       11.526205   -0.778743   -0.763248
    125          1           0       10.289628    0.102506   -2.269743
    126          1           0       10.586764    1.712766   -1.570671
    127          1           0        9.295169    0.659308   -0.980123
    128          1           0       11.744020    1.760202    0.991820
    129          1           0       12.459873    1.611099   -0.581966
    130          1           0       12.984456   -0.765424    1.104838
    131          1           0       13.682548    0.687844    1.866594
    132          1           0       15.484724    0.005163    0.443281
    133          1           0       14.463028    1.042998   -0.587748
    134          1           0       13.522529   -1.774889   -0.555561
    135          1           0       15.442563   -3.061868   -0.894328
    136          1           0       16.461697   -1.752136   -0.319971
    137          1           0       16.085668   -2.026549   -2.040629
    138          1           0       13.317908    0.136358   -2.513597
    139          1           0       13.347005   -1.598237   -2.788326
    140          1           0       14.827652   -0.600338   -3.007604
 ---------------------------------------------------------------------

 SCF Done:  E(RwB97XD) =  -3007.85642985     A.U. after   18 cycles

 Excitation energies and oscillator strengths:

 Excited State   1:      Singlet-A      1.6048 eV  772.57 nm  f=0.3692  <S**2>=0.000
     245 -> 248        0.17763
     246 -> 247        0.68605
     245 <- 248        0.11715
 This state for optimization and/or second-order correction.
 Total Energy, E(TD-HF/TD-DFT) =  -3007.79745329
 Copying the excited state density for this state as the 1-particle RhoCI density.

 Excited State   2:      Singlet-A      2.1561 eV  575.05 nm  f=0.1156  <S**2>=0.000
     245 -> 247        0.64219
     246 -> 248       -0.27999

 Excited State   3:      Singlet-A      3.2750 eV  378.58 nm  f=0.0034  <S**2>=0.000
     241 -> 247       -0.11040
     243 -> 247        0.66950

 Excited State   4:      Singlet-A      3.4277 eV  361.72 nm  f=0.0719  <S**2>=0.000
     241 -> 247        0.57672
     246 -> 248        0.34580

 Excited State   5:      Singlet-A      3.5701 eV  347.28 nm  f=0.1835  <S**2>=0.000
     240 -> 247        0.17907
     241 -> 247       -0.13529
     242 -> 247        0.39429
     242 -> 249        0.25538
     242 -> 250       -0.22211
     245 -> 247        0.14410
     246 -> 248        0.29515

 The electronic state is 1-A.
 Alpha  occ. eigenvalues --  -46.96304 -19.31446 -19.28791 -19.26133 -19.25627
 Alpha  occ. eigenvalues --  -19.25553 -19.23304 -14.47798 -14.46802 -14.45131
 Alpha  occ. eigenvalues --  -14.44690 -10.44379 -10.43607 -10.40654 -10.39066
 Alpha  occ. eigenvalues --  -10.36259 -10.36089 -10.35669 -10.35648 -10.35008
 Alpha  occ. eigenvalues --  -10.34950 -10.34709 -10.34679 -10.34586 -10.34247
 Alpha  occ. eigenvalues --  -10.33392 -10.33338 -10.32842 -10.32832 -10.32731
 Alpha  occ. eigenvalues --  -10.32611 -10.32594 -10.32523 -10.32185 -10.31588
 Alpha  occ. eigenvalues --  -10.31571 -10.31223 -10.31138 -10.31060 -10.30980
 Alpha  occ. eigenvalues --  -10.30792 -10.30752 -10.30727 -10.30610 -10.30136
 Alpha  occ. eigenvalues --  -10.30119 -10.29970 -10.29906 -10.29795 -10.29428
 Alpha  occ. eigenvalues --  -10.29425 -10.29413 -10.29363 -10.29273 -10.29269
 Alpha  occ. eigenvalues --  -10.29092 -10.28674 -10.28626 -10.28582 -10.28476
 Alpha  occ. eigenvalues --  -10.28335 -10.28209 -10.28117 -10.28090 -10.27897
 Alpha  occ. eigenvalues --  -10.27735  -3.22172  -1.95749  -1.95295  -1.95128
 Alpha  occ. eigenvalues --   -1.18588  -1.18220  -1.14724  -1.10604  -1.10366
 Alpha  occ. eigenvalues --   -1.10355  -1.06519  -1.05488  -1.05133  -1.04331
 Alpha  occ. eigenvalues --   -0.95365  -0.91646  -0.91517  -0.91258  -0.91133
 Alpha  occ. eigenvalues --   -0.90059  -0.89570  -0.89438  -0.88736  -0.88456
 Alpha  occ. eigenvalues --   -0.87607  -0.86982  -0.86371  -0.86157  -0.85744
 Alpha  occ. eigenvalues --   -0.84572  -0.83655  -0.83017  -0.82843  -0.82501
 Alpha  occ. eigenvalues --   -0.81692  -0.80126  -0.79882  -0.79280  -0.78645
 Alpha  occ. eigenvalues --   -0.77426  -0.76877  -0.76563  -0.76274  -0.75759
 Alpha  occ. eigenvalues --   -0.75092  -0.74406  -0.73803  -0.71952  -0.71723
 Alpha  occ. eigenvalues --   -0.70868  -0.69685  -0.69388  -0.68420  -0.68028
 Alpha  occ. eigenvalues --   -0.67670  -0.67277  -0.66874  -0.66657  -0.65629
 Alpha  occ. eigenvalues --   -0.65440  -0.64916  -0.64827  -0.64269  -0.62475
 Alpha  occ. eigenvalues --   -0.62028  -0.61742  -0.61403  -0.61020  -0.59807
 Alpha  occ. eigenvalues --   -0.59562  -0.59020  -0.58028  -0.57959  -0.57851
 Alpha  occ. eigenvalues --   -0.57583  -0.57018  -0.56550  -0.56330  -0.55843
 Alpha  occ. eigenvalues --   -0.55780  -0.55410  -0.55042  -0.54857  -0.54677
 Alpha  occ. eigenvalues --   -0.54493  -0.54394  -0.53988  -0.53920  -0.53725
 Alpha  occ. eigenvalues --   -0.53695  -0.53493  -0.53008  -0.52791  -0.52758
 Alpha  occ. eigenvalues --   -0.52521  -0.52412  -0.52163  -0.51893  -0.51804
 Alpha  occ. eigenvalues --   -0.51643  -0.51460  -0.51111  -0.50880  -0.50759
 Alpha  occ. eigenvalues --   -0.50664  -0.50392  -0.50225  -0.49994  -0.49622
 Alpha  occ. eigenvalues --   -0.49533  -0.49207  -0.49100  -0.48882  -0.48622
 Alpha  occ. eigenvalues --   -0.48521  -0.48346  -0.48172  -0.48105  -0.48074
 Alpha  occ. eigenvalues --   -0.47823  -0.47412  -0.47162  -0.46805  -0.46787
 Alpha  occ. eigenvalues --   -0.46594  -0.46216  -0.46085  -0.46038  -0.45954
 Alpha  occ. eigenvalues --   -0.45833  -0.45714  -0.45387  -0.45189  -0.44856
 Alpha  occ. eigenvalues --   -0.44670  -0.44625  -0.44389  -0.44003  -0.43847
 Alpha  occ. eigenvalues --   -0.43765  -0.43685  -0.43545  -0.43534  -0.43180
 Alpha  occ. eigenvalues --   -0.42920  -0.42797  -0.42361  -0.42021  -0.41811
 Alpha  occ. eigenvalues --   -0.41784  -0.41300  -0.41025  -0.40710  -0.40413
 Alpha  occ. eigenvalues --   -0.40314  -0.39719  -0.39567  -0.39545  -0.39347
 Alpha  occ. eigenvalues --   -0.39190  -0.39076  -0.38891  -0.38739  -0.38013
 Alpha  occ. eigenvalues --   -0.37539  -0.37528  -0.37413  -0.36911  -0.36608
 Alpha  occ. eigenvalues --   -0.36391  -0.36221  -0.35771  -0.34424  -0.33735
 Alpha  occ. eigenvalues --   -0.33015  -0.32462  -0.31509  -0.31363  -0.26629
 Alpha  occ. eigenvalues --   -0.23553
 Alpha virt. eigenvalues --   -0.07861  -0.00297   0.01735   0.03916   0.04824
 Alpha virt. eigenvalues --    0.05503   0.06061   0.07050   0.08573   0.09352
 Alpha virt. eigenvalues --    0.10129   0.10820   0.11711   0.11873   0.12339

 Mulliken charges:
               1
     1  Mg   0.960940
     2  C    0.002249
     3  C   -0.054413
     4  C   -0.078904
     5  C   -0.106594
     6  N   -0.359046
     7  C    0.036596
     8  C   -0.151699
     9  C   -0.105498
    10  C    0.043655
    11  C    0.037688
    12  C    0.059948
    13  C   -0.021727
    14  C    0.225279
    15  O   -0.241192
    16  O   -0.383557
    17  N   -0.498177
    18  C    0.159141
    19  C   -0.188238
    20  C   -0.077783
    21  C    0.160482
    22  C    0.086931
    23  C    0.028561
    24  O   -0.253708
    25  C   -0.012238
    26  N   -0.337814
    27  C    0.110565
    28  C   -0.094125
    29  C   -0.088173
    30  C    0.097698
    31  C   -0.011828
    32  C    0.013390
    33  C   -0.041174
    34  N   -0.402923
    35  C    0.134080
    36  C   -0.223920
    37  C   -0.047618
    38  C    0.109663
    39  C    0.071738
    40  C    0.158624
    41  O   -0.157390
    42  C   -0.081679
    43  C    0.267691
    44  O   -0.256667
    45  O   -0.381383
    46  C    0.122498
    47  C    0.237184
    48  C   -0.156372
    49  C   -0.201119
    50  C    0.019307
    51  C    0.075292
    52  C   -0.045623
    53  C    0.008181
    54  C   -0.193492
    55  C   -0.022091
    56  C   -0.013809
    57  C   -0.003829
    58  C   -0.006364
    59  C   -0.185508
    60  C    0.003104
    61  C    0.014832
    62  C   -0.035520
    63  C    0.044886
    64  C   -0.224559
    65  C   -0.015706
    66  C   -0.010242
    67  H    0.008240
    68  H   -0.031077
    69  H   -0.008939
    70  H    0.039518
    71  H    0.039388
    72  H    0.043112
    73  H    0.037455
    74  H    0.040886
    75  H    0.042250
    76  H    0.046057
    77  H    0.058249
    78  H    0.067284
    79  H    0.069210
    80  H    0.056426
    81  H    0.023503
    82  H    0.075483
    83  H    0.061314
    84  H    0.048508
    85  H    0.032705
    86  H    0.036422
    87  H    0.039388
    88  H    0.041340
    89  H    0.033244
    90  H    0.041957
    91  H    0.029872
    92  H    0.027917
    93  H    0.043205
    94  H    0.020054
    95  H    0.056993
    96  H    0.061125
    97  H    0.051289
    98  H    0.071718
    99  H    0.058667
   100  H    0.073913
   101  H    0.069728
   102  H    0.054613
   103  H    0.038249
   104  H    0.030515
   105  H    0.026182
   106  H    0.053096
   107  H    0.049959
   108  H    0.030857
   109  H    0.025271
   110  H    0.028751
   111  H    0.017920
   112  H    0.022281
   113  H    0.015262
   114  H    0.021791
   115  H    0.025434
   116  H    0.036501
   117  H    0.024274
   118  H    0.019990
   119  H    0.005254
   120  H   -0.001544
   121  H    0.022976
   122  H    0.031344
   123  H    0.010695
   124  H    0.017824
   125  H    0.032429
   126  H    0.030462
   127  H    0.005024
   128  H    0.022434
   129  H    0.008032
   130  H    0.021432
   131  H    0.019797
   132  H    0.015558
   133  H    0.013038
   134  H    0.033256
   135  H    0.020653
   136  H    0.036423
   137  H    0.021364
   138  H    0.025155
   139  H    0.028837
   140  H    0.033708
 Sum of Mulliken charges =  -0.00000

 Dipole moment (field-independent basis, Debye):
    X=             -3.9971    Y=             -1.7503    Z=              2.6390  Tot=              5.0994
 Quadrupole moment (field-independent basis, Debye-Ang):
   XX=           -355.5354   YY=           -437.0732   ZZ=           -399.5352
   XY=             -9.0012   XZ=            -17.7376   YZ=            -38.7336

 Normal termination of Gaussian 16 at Wed May  4 04:48:01 2022.
