 Gaussian 16, Revision A.03,
 Gaussian 16:  ES64L-G16RevA.03 25-Dec-2016

 --------------------
 #p ZINDO=(nstates=5)
 --------------------

 -----------------------------
 step_1351_chromophore_5 ZINDO
 -----------------------------
 Symbolic Z-matrix:
 Charge =  0 Multiplicity = 1

                         Standard orientation:
 ---------------------------------------------------------------------
 Center     Atomic      Atomic             Coordinates (Angstroms)
 Number     Number       Type             X           Y           Z
 ---------------------------------------------------------------------
      1         12           0       -5.629405   -0.251722   -0.468181
      2          6           0       -3.695924    2.784708   -0.084661
      3          6           0       -3.820154   -0.949579   -3.317717
      4          6           0       -7.016626   -3.250269   -0.296406
      5          6           0       -6.741361    0.269031    2.944008
      6          7           0       -4.001131    0.827046   -1.569486
      7          6           0       -3.401795    2.053839   -1.244315
      8          6           0       -2.175707    2.283531   -2.116486
      9          6           0       -2.572664    1.379765   -3.353391
     10          6           0       -3.485882    0.310092   -2.744789
     11          6           0       -3.182155    2.185679   -4.533842
     12          6           0       -0.916932    1.686167   -1.377472
     13          6           0        0.252313    2.651609   -1.212835
     14          6           0        1.646721    2.365055   -1.751517
     15          8           0        1.973367    1.896393   -2.819067
     16          8           0        2.600509    2.401616   -0.705067
     17          7           0       -5.526869   -1.844039   -1.693590
     18          6           0       -4.727870   -1.967382   -2.786240
     19          6           0       -4.905139   -3.302603   -3.330955
     20          6           0       -5.940949   -3.990042   -2.506935
     21          6           0       -6.195656   -3.031482   -1.458513
     22          6           0       -4.173324   -3.759362   -4.604751
     23          6           0       -6.403215   -5.401055   -2.770018
     24          8           0       -6.010658   -6.015819   -3.777609
     25          6           0       -7.230067   -6.200503   -1.739195
     26          7           0       -6.515879   -1.395956    1.209204
     27          6           0       -7.184516   -2.543959    0.886737
     28          6           0       -8.127296   -3.020138    2.040494
     29          6           0       -7.748880   -1.973360    3.204971
     30          6           0       -6.961112   -0.948556    2.408693
     31          6           0       -9.681425   -3.081152    1.749612
     32          6           0       -6.785075   -2.646569    4.302913
     33          6           0       -6.907428   -2.146304    5.686847
     34          7           0       -5.498167    1.271026    1.075303
     35          6           0       -6.011994    1.300993    2.306239
     36          6           0       -5.573136    2.558175    2.929453
     37          6           0       -4.679064    3.233485    2.080268
     38          6           0       -4.600898    2.345851    0.905450
     39          6           0       -6.000522    2.853512    4.341490
     40          6           0       -3.862136    4.408721    1.833103
     41          8           0       -3.655389    5.425510    2.430034
     42          6           0       -3.112654    4.087435    0.448904
     43          6           0       -3.108882    5.170105   -0.564260
     44          8           0       -2.112383    5.855497   -0.864071
     45          8           0       -4.422893    5.265925   -1.001659
     46          6           0       -4.589083    6.197137   -2.143175
     47          6           0        3.758424    1.645346   -0.945871
     48          6           0        4.512984    1.442023    0.389180
     49          6           0        5.411131    0.465562    0.676801
     50          6           0        5.906952   -0.481467   -0.403368
     51          6           0        6.088272    0.400100    2.084175
     52          6           0        5.928037   -0.919625    2.890859
     53          6           0        7.218178   -1.508286    3.432090
     54          6           0        7.695548   -2.750442    2.604606
     55          6           0        7.439171   -4.037439    3.489134
     56          6           0        9.199103   -2.703115    2.062394
     57          6           0        9.481142   -1.933264    0.758906
     58          6           0       10.227966   -0.539145    0.985167
     59          6           0       11.110816    0.059388   -0.203147
     60          6           0       10.322248    0.679641   -1.344821
     61          6           0       12.180723    1.038045    0.302146
     62          6           0       13.350721    0.245601    0.926565
     63          6           0       14.519136    0.095345   -0.052306
     64          6           0       14.318270   -1.142414   -0.947252
     65          6           0       15.674975   -2.005484   -1.030482
     66          6           0       13.930288   -0.758151   -2.409408
     67          1           0       -3.227484   -1.169824   -4.207427
     68          1           0       -7.588019   -4.173077   -0.419575
     69          1           0       -7.017433    0.492776    3.976049
     70          1           0       -1.950683    3.300651   -2.437642
     71          1           0       -1.630777    0.979598   -3.729771
     72          1           0       -3.220795    3.271000   -4.449471
     73          1           0       -4.172257    1.775756   -4.734962
     74          1           0       -2.536317    1.923131   -5.372282
     75          1           0       -0.559320    0.798579   -1.899975
     76          1           0       -1.214211    1.284821   -0.407722
     77          1           0        0.272167    2.832276   -0.137378
     78          1           0        0.009610    3.639224   -1.607410
     79          1           0       -4.895541   -4.286820   -5.227809
     80          1           0       -3.325553   -4.368306   -4.292314
     81          1           0       -3.776769   -2.895873   -5.139149
     82          1           0       -8.238843   -5.791789   -1.679608
     83          1           0       -6.601360   -6.213422   -0.849177
     84          1           0       -7.261108   -7.246374   -2.045142
     85          1           0       -8.042018   -4.033258    2.433099
     86          1           0       -8.686909   -1.532940    3.542805
     87          1           0      -10.055170   -2.103554    1.443693
     88          1           0      -10.199791   -3.534782    2.593965
     89          1           0       -9.939027   -3.777508    0.951787
     90          1           0       -5.749871   -2.523239    3.981420
     91          1           0       -6.915918   -3.727849    4.351992
     92          1           0       -5.947171   -1.878328    6.127423
     93          1           0       -7.354885   -2.775420    6.456058
     94          1           0       -7.414791   -1.182768    5.634511
     95          1           0       -5.726173    3.879842    4.585846
     96          1           0       -5.458882    2.130968    4.950855
     97          1           0       -7.080959    2.782132    4.468555
     98          1           0       -2.113495    3.972608    0.869215
     99          1           0       -5.111834    5.633307   -2.915554
    100          1           0       -3.658903    6.586332   -2.557808
    101          1           0       -5.208902    6.969239   -1.686938
    102          1           0        4.379452    2.108373   -1.713217
    103          1           0        3.405422    0.654688   -1.231776
    104          1           0        4.093667    2.077805    1.169192
    105          1           0        5.600639   -0.166082   -1.400557
    106          1           0        5.521865   -1.494655   -0.296068
    107          1           0        6.992775   -0.405748   -0.475916
    108          1           0        5.614895    1.202828    2.651209
    109          1           0        7.160995    0.443723    1.897385
    110          1           0        5.324941   -1.686046    2.402457
    111          1           0        5.426306   -0.652332    3.820228
    112          1           0        6.986555   -1.805717    4.454952
    113          1           0        8.024197   -0.774902    3.440616
    114          1           0        7.086244   -2.920466    1.716370
    115          1           0        6.500235   -3.964968    4.037710
    116          1           0        8.226824   -4.283407    4.200326
    117          1           0        7.316339   -4.865713    2.792091
    118          1           0        9.638110   -3.700653    2.057386
    119          1           0        9.716844   -2.162981    2.855056
    120          1           0        8.465073   -1.772503    0.398830
    121          1           0        9.986543   -2.619924    0.079944
    122          1           0       10.738191   -0.507196    1.947593
    123          1           0        9.317030    0.051089    1.078202
    124          1           0       11.526205   -0.778743   -0.763248
    125          1           0       10.289628    0.102506   -2.269743
    126          1           0       10.586764    1.712766   -1.570671
    127          1           0        9.295169    0.659308   -0.980123
    128          1           0       11.744020    1.760202    0.991820
    129          1           0       12.459873    1.611099   -0.581966
    130          1           0       12.984456   -0.765424    1.104838
    131          1           0       13.682548    0.687844    1.866594
    132          1           0       15.484724    0.005163    0.443281
    133          1           0       14.463028    1.042998   -0.587748
    134          1           0       13.522529   -1.774889   -0.555561
    135          1           0       15.442563   -3.061868   -0.894328
    136          1           0       16.461697   -1.752136   -0.319971
    137          1           0       16.085668   -2.026549   -2.040629
    138          1           0       13.317908    0.136358   -2.513597
    139          1           0       13.347005   -1.598237   -2.788326
    140          1           0       14.827652   -0.600338   -3.007604
 ---------------------------------------------------------------------

 SCF Done:  E(RZINDO/S) =  -473.886891176     A.U. after   20 cycles

 Excitation energies and oscillator strengths:

 Excited State   1:      Singlet-A      1.2380 eV 1001.52 nm  f=0.5960  <S**2>=0.000
     175 ->178        -0.16970
     176 ->177         0.66683
 This state for optimization and/or second-order correction.
 Total Energy, E(CIS/TDA) =  -473.841396750
 Copying the excited state density for this state as the 1-particle RhoCI density.

 Excited State   2:      Singlet-A      1.9037 eV  651.28 nm  f=0.0447  <S**2>=0.000
     175 ->177         0.54805
     176 ->178         0.40555

 Excited State   3:      Singlet-A      2.9071 eV  426.48 nm  f=0.6741  <S**2>=0.000
     171 ->177         0.11090
     175 ->177        -0.31917
     176 ->178         0.51217
     176 ->179         0.26358

 Excited State   4:      Singlet-A      3.0051 eV  412.58 nm  f=0.0032  <S**2>=0.000
     170 ->177         0.20740
     170 ->179         0.30462
     170 ->180         0.14321
     170 ->182        -0.12599
     170 ->183         0.34101
     170 ->185         0.21453
     170 ->187        -0.12791
     170 ->188         0.17597
     174 ->177        -0.16867

 Excited State   5:      Singlet-A      3.0413 eV  407.67 nm  f=0.0008  <S**2>=0.000
     168 ->177         0.34244
     168 ->178        -0.23899
     168 ->179        -0.35759
     168 ->182        -0.12312
     168 ->183         0.17223
     168 ->185        -0.18224
     168 ->194        -0.10991
     176 ->179         0.12720

 The electronic state is 1-A.
 Alpha  occ. eigenvalues --   -1.83003  -1.79765  -1.78831  -1.74399  -1.72063
 Alpha  occ. eigenvalues --   -1.70086  -1.66051  -1.61123  -1.59648  -1.56476
 Alpha  occ. eigenvalues --   -1.51453  -1.49840  -1.48207  -1.47564  -1.47015
 Alpha  occ. eigenvalues --   -1.46090  -1.42978  -1.39728  -1.38700  -1.36717
 Alpha  occ. eigenvalues --   -1.36393  -1.35169  -1.33069  -1.30712  -1.29132
 Alpha  occ. eigenvalues --   -1.28614  -1.26600  -1.22264  -1.19207  -1.18157
 Alpha  occ. eigenvalues --   -1.16402  -1.14942  -1.14112  -1.13645  -1.12847
 Alpha  occ. eigenvalues --   -1.12183  -1.09931  -1.09223  -1.05624  -1.03282
 Alpha  occ. eigenvalues --   -1.01848  -1.00778  -0.98476  -0.98073  -0.97587
 Alpha  occ. eigenvalues --   -0.94962  -0.93763  -0.93701  -0.93273  -0.92568
 Alpha  occ. eigenvalues --   -0.90957  -0.90705  -0.89232  -0.88644  -0.86245
 Alpha  occ. eigenvalues --   -0.86042  -0.84576  -0.83903  -0.83218  -0.82009
 Alpha  occ. eigenvalues --   -0.81214  -0.79423  -0.77394  -0.76991  -0.76050
 Alpha  occ. eigenvalues --   -0.75602  -0.74154  -0.73672  -0.73515  -0.73191
 Alpha  occ. eigenvalues --   -0.72624  -0.72247  -0.71819  -0.71211  -0.70642
 Alpha  occ. eigenvalues --   -0.69623  -0.69183  -0.68702  -0.68474  -0.68337
 Alpha  occ. eigenvalues --   -0.68108  -0.67323  -0.67201  -0.67085  -0.66093
 Alpha  occ. eigenvalues --   -0.65686  -0.65372  -0.65220  -0.64761  -0.64611
 Alpha  occ. eigenvalues --   -0.63800  -0.63583  -0.63179  -0.62899  -0.62231
 Alpha  occ. eigenvalues --   -0.62114  -0.61782  -0.61255  -0.60431  -0.60139
 Alpha  occ. eigenvalues --   -0.59974  -0.59216  -0.59018  -0.58240  -0.57655
 Alpha  occ. eigenvalues --   -0.57602  -0.57510  -0.57121  -0.56990  -0.56141
 Alpha  occ. eigenvalues --   -0.55887  -0.55649  -0.55293  -0.55039  -0.54665
 Alpha  occ. eigenvalues --   -0.54463  -0.54282  -0.53902  -0.53121  -0.53060
 Alpha  occ. eigenvalues --   -0.52854  -0.52644  -0.52312  -0.51980  -0.51938
 Alpha  occ. eigenvalues --   -0.51582  -0.51363  -0.51207  -0.50691  -0.50175
 Alpha  occ. eigenvalues --   -0.50053  -0.49918  -0.49169  -0.48847  -0.48716
 Alpha  occ. eigenvalues --   -0.48609  -0.48491  -0.48416  -0.48151  -0.47750
 Alpha  occ. eigenvalues --   -0.47631  -0.47346  -0.47315  -0.47135  -0.46613
 Alpha  occ. eigenvalues --   -0.46272  -0.46214  -0.45936  -0.45773  -0.45544
 Alpha  occ. eigenvalues --   -0.45380  -0.44647  -0.44251  -0.44030  -0.43827
 Alpha  occ. eigenvalues --   -0.43741  -0.43675  -0.43236  -0.42917  -0.42860
 Alpha  occ. eigenvalues --   -0.42394  -0.42109  -0.41801  -0.40043  -0.39292
 Alpha  occ. eigenvalues --   -0.38991  -0.37911  -0.36693  -0.35380  -0.34703
 Alpha  occ. eigenvalues --   -0.34027  -0.33495  -0.32043  -0.31549  -0.27354
 Alpha  occ. eigenvalues --   -0.22303
 Alpha virt. eigenvalues --   -0.09249  -0.02755  -0.00982   0.00481   0.00981
 Alpha virt. eigenvalues --    0.01171   0.01277   0.02503   0.04260   0.05120
 Alpha virt. eigenvalues --    0.05449   0.05843   0.06968   0.07302   0.07471

 Mulliken charges:
               1
     1  Mg   0.432460
     2  C   -0.035528
     3  C   -0.062620
     4  C   -0.084054
     5  C   -0.093170
     6  N   -0.290706
     7  C    0.146226
     8  C   -0.001199
     9  C    0.004359
    10  C    0.100377
    11  C   -0.052568
    12  C   -0.015513
    13  C    0.008887
    14  C    0.466388
    15  O   -0.498536
    16  O   -0.284412
    17  N   -0.308177
    18  C    0.079514
    19  C    0.010459
    20  C   -0.070678
    21  C    0.121083
    22  C   -0.037902
    23  C    0.322858
    24  O   -0.536771
    25  C   -0.031084
    26  N   -0.294219
    27  C    0.122020
    28  C   -0.015614
    29  C   -0.009041
    30  C    0.175338
    31  C   -0.055037
    32  C   -0.015755
    33  C   -0.053908
    34  N   -0.323342
    35  C    0.142196
    36  C    0.047964
    37  C   -0.051500
    38  C    0.096929
    39  C   -0.040252
    40  C    0.349616
    41  O   -0.486775
    42  C    0.050669
    43  C    0.488504
    44  O   -0.517571
    45  O   -0.267291
    46  C    0.070290
    47  C    0.108900
    48  C   -0.091765
    49  C   -0.020736
    50  C   -0.046026
    51  C   -0.026106
    52  C   -0.034068
    53  C   -0.028749
    54  C   -0.020524
    55  C   -0.061664
    56  C   -0.042665
    57  C   -0.040963
    58  C   -0.043755
    59  C   -0.013334
    60  C   -0.062682
    61  C   -0.029228
    62  C   -0.037502
    63  C   -0.034023
    64  C   -0.012102
    65  C   -0.068875
    66  C   -0.058661
    67  H    0.037699
    68  H    0.022327
    69  H    0.029908
    70  H    0.042213
    71  H    0.025695
    72  H    0.028973
    73  H    0.023015
    74  H    0.019272
    75  H    0.030685
    76  H    0.025212
    77  H    0.030044
    78  H    0.045847
    79  H    0.044615
    80  H    0.037847
    81  H    0.019216
    82  H    0.044328
    83  H    0.038185
    84  H    0.032691
    85  H    0.032549
    86  H    0.038613
    87  H    0.023862
    88  H    0.021186
    89  H    0.016197
    90  H    0.026011
    91  H    0.019451
    92  H    0.012002
    93  H    0.026042
    94  H    0.012319
    95  H    0.028425
    96  H    0.038837
    97  H    0.032671
    98  H    0.053633
    99  H    0.034500
   100  H    0.057395
   101  H    0.044223
   102  H    0.055578
   103  H    0.043317
   104  H    0.031555
   105  H    0.016135
   106  H    0.034529
   107  H    0.027915
   108  H    0.030722
   109  H    0.035430
   110  H    0.028110
   111  H    0.008383
   112  H    0.019624
   113  H    0.021427
   114  H    0.020238
   115  H    0.015622
   116  H    0.023471
   117  H    0.009874
   118  H    0.020191
   119  H    0.009971
   120  H    0.022162
   121  H    0.021461
   122  H    0.028331
   123  H    0.016599
   124  H    0.022608
   125  H    0.018702
   126  H    0.021652
   127  H    0.009709
   128  H    0.019594
   129  H    0.019872
   130  H    0.019733
   131  H    0.015001
   132  H    0.018989
   133  H    0.021769
   134  H    0.029799
   135  H    0.009800
   136  H    0.025502
   137  H    0.018844
   138  H    0.017736
   139  H    0.014264
   140  H    0.021699
 Sum of Mulliken charges =  -0.00000

 Dipole moment (field-independent basis, Debye):
    X=             -4.6273    Y=             -1.0319    Z=              5.7232  Tot=              7.4318
 N-N= 4.312529900453D+03 E-N= 0.000000000000D+00  KE=-9.298376141170D+03
 Leave Link  601 at Wed May  4 05:00:21 2022, MaxMem=  6710886400 cpu:               0.8 elap:               0.1
 (Enter /sw/apps/gaussian-16.0/g16/l9999.exe)
 1\1\GINC-BP1-COMPUTE069\SP\RZINDO CIS\STO-3G\C55H74Mg1N4O6\OF15641\04-
 May-2022\0\\#p ZINDO=(nstates=5)\\step_1351_chromophore_5 ZINDO\\0,1\M
 g,0,24.221,-8.001,46.489\C,0,26.123,-5.298,45.012\C,0,21.485,-6.966,44
 .666\C,0,22.85,-10.865,47.418\C,0,27.398,-9.365,47.583\N,0,23.863,-6.3
 08,45.063\C,0,24.771,-5.324,44.642\C,0,24.182,-4.531,43.484\C,0,22.644
 ,-4.765,43.774\C,0,22.612,-6.111,44.506\C,0,21.972,-3.581,44.523\C,0,2
 4.602,-5.23,42.134\C,0,25.272,-4.314,41.115\C,0,24.733,-4.105,39.707\O

 Normal termination of Gaussian 16 at Wed May  4 05:00:21 2022.
