 Gaussian 16, Revision A.03,
 Gaussian 16:  ES64L-G16RevA.03 25-Dec-2016

 ------------------------------
 #p blyp/Def2SVP td=(nstates=5)
 ------------------------------

 ---------------------------------------------------
 step_1401_chromophore_26 TDDFT with blyp functional
 ---------------------------------------------------
 Symbolic Z-matrix:
 Charge =  0 Multiplicity = 1

                         Standard orientation:
 ---------------------------------------------------------------------
 Center     Atomic      Atomic             Coordinates (Angstroms)
 Number     Number       Type             X           Y           Z
 ---------------------------------------------------------------------
      1         12           0       -3.726470    1.237750    0.358513
      2          6           0       -4.700058   -2.031463   -0.091909
      3          6           0       -1.854376    0.294244    3.161054
      4          6           0       -2.787781    4.319763    0.754097
      5          6           0       -5.072256    1.939194   -2.822607
      6          7           0       -3.122437   -0.697781    1.216324
      7          6           0       -3.781397   -1.891937    0.885563
      8          6           0       -3.445930   -2.987810    1.900257
      9          6           0       -2.712078   -2.165340    3.062819
     10          6           0       -2.566631   -0.773302    2.461106
     11          6           0       -3.453114   -2.114829    4.384661
     12          6           0       -2.664069   -4.266288    1.372206
     13          6           0       -1.756750   -4.210479    0.160934
     14          6           0       -0.369995   -4.906047    0.196076
     15          8           0       -0.133724   -6.098688    0.070825
     16          8           0        0.606598   -3.950434    0.383267
     17          7           0       -2.378883    2.192792    1.674344
     18          6           0       -1.774904    1.628340    2.756291
     19          6           0       -1.000264    2.617909    3.448144
     20          6           0       -1.321667    3.845983    2.807850
     21          6           0       -2.167202    3.512048    1.738293
     22          6           0       -0.089114    2.359461    4.633574
     23          6           0       -0.740581    5.176566    3.186238
     24          8           0        0.153034    5.359658    4.049238
     25          6           0       -1.030284    6.374480    2.378733
     26          7           0       -3.736179    2.878271   -0.968050
     27          6           0       -3.515844    4.098055   -0.472171
     28          6           0       -4.074999    5.228958   -1.318548
     29          6           0       -4.772374    4.454144   -2.543426
     30          6           0       -4.468593    2.983153   -2.118490
     31          6           0       -5.065454    6.076576   -0.429885
     32          6           0       -4.252905    4.792690   -3.933007
     33          6           0       -5.225286    5.695077   -4.738648
     34          7           0       -4.665125    0.174526   -1.182860
     35          6           0       -5.294204    0.638804   -2.312683
     36          6           0       -6.064157   -0.419744   -2.881715
     37          6           0       -5.885618   -1.477776   -2.017592
     38          6           0       -5.016467   -1.063717   -1.020619
     39          6           0       -6.980704   -0.334954   -4.082130
     40          6           0       -6.300815   -2.840624   -1.758289
     41          8           0       -6.970423   -3.611468   -2.403333
     42          6           0       -5.554736   -3.300211   -0.464119
     43          6           0       -6.547600   -3.616127    0.600110
     44          8           0       -6.694774   -4.725825    1.083606
     45          8           0       -7.106167   -2.474266    1.083606
     46          6           0       -7.960550   -2.677080    2.225270
     47          6           0        1.970523   -4.495785    0.381484
     48          6           0        2.952548   -3.730208   -0.564340
     49          6           0        2.859893   -3.430147   -1.871013
     50          6           0        1.695677   -3.545902   -2.826090
     51          6           0        4.146086   -2.954747   -2.576811
     52          6           0        4.337362   -1.463159   -2.618366
     53          6           0        5.746231   -0.957558   -2.236644
     54          6           0        5.765736    0.067074   -1.137357
     55          6           0        5.158131    1.436077   -1.639689
     56          6           0        7.139873    0.303947   -0.473131
     57          6           0        7.107833    0.043471    1.035528
     58          6           0        8.225570   -0.730135    1.643537
     59          6           0        9.494441    0.099481    1.687283
     60          6           0        9.916442    0.317787    3.138317
     61          6           0       10.636648   -0.597844    0.826267
     62          6           0       11.250897    0.427852   -0.069828
     63          6           0       12.734958    0.198962   -0.393911
     64          6           0       13.162238    0.971648   -1.640116
     65          6           0       13.103266    0.116882   -2.938781
     66          6           0       14.501081    1.725322   -1.401553
     67          1           0       -1.383463    0.133325    4.132579
     68          1           0       -2.610819    5.386634    0.908149
     69          1           0       -5.573894    2.275259   -3.732511
     70          1           0       -4.398031   -3.337115    2.299680
     71          1           0       -1.789706   -2.685571    3.322388
     72          1           0       -3.667050   -1.145736    4.834085
     73          1           0       -2.953868   -2.754196    5.113642
     74          1           0       -4.415371   -2.625729    4.356934
     75          1           0       -3.355641   -5.094669    1.223690
     76          1           0       -2.136554   -4.764833    2.185775
     77          1           0       -1.557570   -3.163924   -0.071394
     78          1           0       -2.299559   -4.726871   -0.630133
     79          1           0       -0.560897    1.708893    5.369484
     80          1           0        0.383278    3.163300    5.199514
     81          1           0        0.775926    1.793834    4.287719
     82          1           0       -2.061075    6.705022    2.506645
     83          1           0       -0.691643    6.211158    1.355844
     84          1           0       -0.501656    7.225415    2.810258
     85          1           0       -3.252245    5.833861   -1.699731
     86          1           0       -5.849299    4.600519   -2.471623
     87          1           0       -4.450478    6.822082    0.075015
     88          1           0       -5.595965    5.478770    0.311324
     89          1           0       -5.717800    6.651527   -1.086147
     90          1           0       -4.212776    3.811827   -4.407045
     91          1           0       -3.273016    5.242468   -4.095995
     92          1           0       -5.800251    5.180426   -5.508083
     93          1           0       -4.679840    6.526391   -5.185314
     94          1           0       -6.083955    6.032202   -4.159630
     95          1           0       -6.927918   -1.365845   -4.431809
     96          1           0       -6.697428    0.464413   -4.767042
     97          1           0       -8.007273   -0.179832   -3.750849
     98          1           0       -5.019134   -4.248734   -0.418732
     99          1           0       -8.291761   -1.704323    2.586976
    100          1           0       -7.442712   -3.206000    3.024356
    101          1           0       -8.792170   -3.337315    1.976983
    102          1           0        2.145533   -5.544603    0.140878
    103          1           0        2.493380   -4.369086    1.329267
    104          1           0        3.981893   -3.557559   -0.251461
    105          1           0        0.794792   -3.621002   -2.215618
    106          1           0        1.746504   -4.369777   -3.537711
    107          1           0        1.730526   -2.632825   -3.419356
    108          1           0        4.075477   -3.171717   -3.642577
    109          1           0        5.060038   -3.480813   -2.299240
    110          1           0        3.632740   -1.012999   -1.919492
    111          1           0        4.121303   -1.095035   -3.620895
    112          1           0        6.311687   -0.584608   -3.089943
    113          1           0        6.246183   -1.836545   -1.830702
    114          1           0        5.019445   -0.231690   -0.400977
    115          1           0        5.968317    2.129243   -1.864432
    116          1           0        4.566519    1.976031   -0.900014
    117          1           0        4.491345    1.282068   -2.487604
    118          1           0        7.412267    1.354947   -0.569339
    119          1           0        7.867108   -0.423158   -0.833735
    120          1           0        6.207440   -0.497960    1.327534
    121          1           0        6.977868    0.990991    1.557564
    122          1           0        8.229036   -1.654681    1.065393
    123          1           0        7.853439   -0.916451    2.651310
    124          1           0        9.228289    1.133770    1.473032
    125          1           0        9.423051   -0.392887    3.802198
    126          1           0        9.670316    1.329214    3.461085
    127          1           0       10.995415    0.278062    3.288691
    128          1           0       10.206751   -1.435283    0.276644
    129          1           0       11.382558   -0.950525    1.539233
    130          1           0       11.320399    1.486945    0.179039
    131          1           0       10.605898    0.518073   -0.943712
    132          1           0       12.818639   -0.861441   -0.632327
    133          1           0       13.280349    0.530483    0.489427
    134          1           0       12.360771    1.682853   -1.838284
    135          1           0       12.914600    0.843039   -3.728788
    136          1           0       12.384175   -0.699056   -2.863212
    137          1           0       14.044333   -0.339960   -3.244590
    138          1           0       14.347009    2.634943   -0.821418
    139          1           0       14.977265    2.155271   -2.282632
    140          1           0       15.378576    1.203225   -1.019704
 ---------------------------------------------------------------------

 SCF Done:  E(RB-LYP) =  -3007.34987634     A.U. after   20 cycles

 Excitation energies and oscillator strengths:

 Excited State   1:      Singlet-A      1.7206 eV  720.58 nm  f=0.0014  <S**2>=0.000
     244 -> 247        0.70308
 This state for optimization and/or second-order correction.
 Total Energy, E(TD-HF/TD-DFT) =  -3007.28664447
 Copying the excited state density for this state as the 1-particle RhoCI density.

 Excited State   2:      Singlet-A      1.8124 eV  684.08 nm  f=0.2405  <S**2>=0.000
     243 -> 247       -0.18412
     245 -> 247        0.10201
     245 -> 248       -0.17035
     246 -> 247        0.65703
     246 <- 247       -0.13775

 Excited State   3:      Singlet-A      1.9116 eV  648.60 nm  f=0.0735  <S**2>=0.000
     243 -> 247        0.49915
     245 -> 247       -0.43948
     246 -> 247        0.19926
     246 -> 248       -0.11741

 Excited State   4:      Singlet-A      2.1006 eV  590.23 nm  f=0.0520  <S**2>=0.000
     243 -> 247        0.45562
     245 -> 247        0.46977
     246 -> 248        0.23090

 Excited State   5:      Singlet-A      2.1452 eV  577.97 nm  f=0.0001  <S**2>=0.000
     242 -> 247        0.70671

 The electronic state is 1-A.
 Alpha  occ. eigenvalues --  -46.28040 -18.83135 -18.82929 -18.77314 -18.77076
 Alpha  occ. eigenvalues --  -18.76012 -18.75287 -14.04070 -14.03795 -14.01149
 Alpha  occ. eigenvalues --  -14.00903 -10.04377 -10.04239  -9.99910  -9.99726
 Alpha  occ. eigenvalues --   -9.98245  -9.98054  -9.97835  -9.97475  -9.96634
 Alpha  occ. eigenvalues --   -9.96545  -9.96120  -9.95521  -9.95422  -9.94972
 Alpha  occ. eigenvalues --   -9.94741  -9.94688  -9.94345  -9.94225  -9.94141
 Alpha  occ. eigenvalues --   -9.93964  -9.93633  -9.93626  -9.93586  -9.93556
 Alpha  occ. eigenvalues --   -9.93539  -9.93336  -9.93297  -9.93225  -9.93019
 Alpha  occ. eigenvalues --   -9.92742  -9.92606  -9.92535  -9.92350  -9.92339
 Alpha  occ. eigenvalues --   -9.92307  -9.91883  -9.91681  -9.91643  -9.91477
 Alpha  occ. eigenvalues --   -9.91230  -9.91066  -9.91025  -9.91017  -9.90820
 Alpha  occ. eigenvalues --   -9.90751  -9.90692  -9.90685  -9.90605  -9.90593
 Alpha  occ. eigenvalues --   -9.90324  -9.90312  -9.90293  -9.90183  -9.90024
 Alpha  occ. eigenvalues --   -9.89855  -2.92659  -1.73052  -1.72551  -1.72377
 Alpha  occ. eigenvalues --   -0.99361  -0.97947  -0.92433  -0.90894  -0.89966
 Alpha  occ. eigenvalues --   -0.89964  -0.88262  -0.87458  -0.86778  -0.85367
 Alpha  occ. eigenvalues --   -0.76177  -0.73759  -0.73118  -0.73010  -0.72591
 Alpha  occ. eigenvalues --   -0.72241  -0.71912  -0.71420  -0.70953  -0.70882
 Alpha  occ. eigenvalues --   -0.70265  -0.69813  -0.68311  -0.68231  -0.67777
 Alpha  occ. eigenvalues --   -0.66671  -0.66399  -0.65598  -0.65328  -0.65075
 Alpha  occ. eigenvalues --   -0.64012  -0.62935  -0.62526  -0.62321  -0.61586
 Alpha  occ. eigenvalues --   -0.60534  -0.60202  -0.59933  -0.59312  -0.59102
 Alpha  occ. eigenvalues --   -0.58772  -0.58221  -0.57500  -0.56219  -0.55555
 Alpha  occ. eigenvalues --   -0.54571  -0.53549  -0.53197  -0.52285  -0.52004
 Alpha  occ. eigenvalues --   -0.51462  -0.51246  -0.51237  -0.50655  -0.50439
 Alpha  occ. eigenvalues --   -0.50174  -0.49164  -0.48878  -0.48432  -0.47556
 Alpha  occ. eigenvalues --   -0.46706  -0.46096  -0.45614  -0.45125  -0.44651
 Alpha  occ. eigenvalues --   -0.44410  -0.43851  -0.43719  -0.43226  -0.42860
 Alpha  occ. eigenvalues --   -0.42525  -0.42276  -0.42107  -0.41713  -0.41595
 Alpha  occ. eigenvalues --   -0.41407  -0.41158  -0.40869  -0.40508  -0.40265
 Alpha  occ. eigenvalues --   -0.40134  -0.39915  -0.39464  -0.39314  -0.39043
 Alpha  occ. eigenvalues --   -0.38966  -0.38876  -0.38701  -0.38610  -0.38204
 Alpha  occ. eigenvalues --   -0.38042  -0.37874  -0.37659  -0.37580  -0.37396
 Alpha  occ. eigenvalues --   -0.37238  -0.36974  -0.36850  -0.36744  -0.36524
 Alpha  occ. eigenvalues --   -0.36447  -0.36168  -0.36044  -0.35963  -0.35872
 Alpha  occ. eigenvalues --   -0.35513  -0.35286  -0.35193  -0.35106  -0.34913
 Alpha  occ. eigenvalues --   -0.34673  -0.34546  -0.34439  -0.34169  -0.34034
 Alpha  occ. eigenvalues --   -0.33996  -0.33803  -0.33574  -0.33344  -0.33300
 Alpha  occ. eigenvalues --   -0.33112  -0.33069  -0.32817  -0.32558  -0.32400
 Alpha  occ. eigenvalues --   -0.32121  -0.32074  -0.31790  -0.31766  -0.31577
 Alpha  occ. eigenvalues --   -0.31542  -0.31274  -0.31119  -0.30965  -0.30774
 Alpha  occ. eigenvalues --   -0.30712  -0.30542  -0.30435  -0.30327  -0.30119
 Alpha  occ. eigenvalues --   -0.29887  -0.29864  -0.29614  -0.29380  -0.29250
 Alpha  occ. eigenvalues --   -0.28394  -0.28329  -0.27734  -0.27710  -0.27422
 Alpha  occ. eigenvalues --   -0.27323  -0.27312  -0.27115  -0.26839  -0.26744
 Alpha  occ. eigenvalues --   -0.26559  -0.26269  -0.26185  -0.26025  -0.25490
 Alpha  occ. eigenvalues --   -0.25360  -0.24904  -0.24708  -0.23943  -0.23803
 Alpha  occ. eigenvalues --   -0.22976  -0.22836  -0.22327  -0.22191  -0.21361
 Alpha  occ. eigenvalues --   -0.21010  -0.19868  -0.19117  -0.18227  -0.17773
 Alpha  occ. eigenvalues --   -0.16336
 Alpha virt. eigenvalues --   -0.11985  -0.07335  -0.06471  -0.05060  -0.04199
 Alpha virt. eigenvalues --   -0.03237  -0.03042  -0.02091  -0.01591  -0.00261
 Alpha virt. eigenvalues --    0.00760   0.01726   0.01851   0.02579   0.02740

 Mulliken charges:
               1
     1  Mg   0.673252
     2  C    0.030540
     3  C   -0.064697
     4  C   -0.040570
     5  C   -0.061683
     6  N   -0.224142
     7  C   -0.123476
     8  C    0.061108
     9  C    0.011497
    10  C    0.061886
    11  C    0.102607
    12  C    0.085842
    13  C    0.145712
    14  C    0.067115
    15  O   -0.181239
    16  O   -0.262562
    17  N   -0.247414
    18  C    0.110828
    19  C   -0.119267
    20  C    0.073896
    21  C    0.107847
    22  C    0.170929
    23  C   -0.104056
    24  O   -0.184502
    25  C    0.160036
    26  N   -0.202796
    27  C   -0.037545
    28  C    0.038392
    29  C    0.033227
    30  C   -0.012531
    31  C    0.115253
    32  C    0.112345
    33  C    0.044818
    34  N   -0.202611
    35  C    0.108094
    36  C   -0.204545
    37  C    0.111300
    38  C    0.068803
    39  C    0.169784
    40  C   -0.033325
    41  O   -0.109881
    42  C    0.075098
    43  C    0.073070
    44  O   -0.175189
    45  O   -0.258590
    46  C    0.230952
    47  C    0.336844
    48  C   -0.108508
    49  C   -0.168707
    50  C    0.163149
    51  C    0.116716
    52  C    0.067404
    53  C    0.109482
    54  C   -0.083726
    55  C    0.078154
    56  C    0.171595
    57  C   -0.010960
    58  C    0.136161
    59  C   -0.065902
    60  C    0.098810
    61  C    0.192708
    62  C   -0.022330
    63  C    0.139586
    64  C   -0.051764
    65  C    0.091199
    66  C    0.090269
    67  H   -0.064009
    68  H   -0.099002
    69  H   -0.057900
    70  H   -0.015332
    71  H   -0.015664
    72  H    0.000353
    73  H   -0.017385
    74  H   -0.024589
    75  H   -0.014287
    76  H   -0.029227
    77  H    0.011860
    78  H    0.002503
    79  H   -0.006519
    80  H    0.006102
    81  H   -0.006949
    82  H    0.005565
    83  H    0.022777
    84  H   -0.022420
    85  H   -0.019883
    86  H   -0.019262
    87  H   -0.003118
    88  H    0.005242
    89  H   -0.005124
    90  H   -0.023418
    91  H   -0.014490
    92  H   -0.013790
    93  H   -0.000516
    94  H   -0.019612
    95  H    0.015538
    96  H   -0.003968
    97  H    0.005707
    98  H   -0.017448
    99  H    0.011538
   100  H    0.003167
   101  H    0.011735
   102  H    0.023188
   103  H   -0.018763
   104  H   -0.043656
   105  H   -0.007565
   106  H    0.006371
   107  H   -0.014258
   108  H   -0.050676
   109  H   -0.024764
   110  H   -0.019498
   111  H   -0.024949
   112  H   -0.031418
   113  H   -0.046819
   114  H   -0.030866
   115  H   -0.022646
   116  H   -0.021636
   117  H   -0.017166
   118  H   -0.028653
   119  H   -0.035013
   120  H   -0.047772
   121  H   -0.047037
   122  H   -0.035586
   123  H   -0.047557
   124  H   -0.032535
   125  H   -0.019027
   126  H   -0.026008
   127  H   -0.026987
   128  H   -0.026541
   129  H   -0.035704
   130  H   -0.034978
   131  H   -0.034264
   132  H   -0.042371
   133  H   -0.029052
   134  H   -0.039518
   135  H   -0.015923
   136  H   -0.012521
   137  H   -0.022996
   138  H   -0.020973
   139  H   -0.041860
   140  H   -0.013969
 Sum of Mulliken charges =  -0.00000

 Dipole moment (field-independent basis, Debye):
    X=             -1.8012    Y=              5.8367    Z=              0.3594  Tot=              6.1188
 Quadrupole moment (field-independent basis, Debye-Ang):
   XX=           -399.6938   YY=           -434.2501   ZZ=           -400.3419
   XY=            -48.6374   XZ=            -19.6885   YZ=            -32.3589

 Normal termination of Gaussian 16 at Wed May  4 06:32:43 2022.
