 Gaussian 16, Revision A.03,
 Gaussian 16:  ES64L-G16RevA.03 25-Dec-2016

 -----------------------------------
 #p cam-b3lyp/Def2SVP td=(nstates=5)
 -----------------------------------

 --------------------------------------------------------
 step_1401_chromophore_26 TDDFT with cam-b3lyp functional
 --------------------------------------------------------
 Symbolic Z-matrix:
 Charge =  0 Multiplicity = 1

                         Standard orientation:
 ---------------------------------------------------------------------
 Center     Atomic      Atomic             Coordinates (Angstroms)
 Number     Number       Type             X           Y           Z
 ---------------------------------------------------------------------
      1         12           0       -3.726470    1.237750    0.358513
      2          6           0       -4.700058   -2.031463   -0.091909
      3          6           0       -1.854376    0.294244    3.161054
      4          6           0       -2.787781    4.319763    0.754097
      5          6           0       -5.072256    1.939194   -2.822607
      6          7           0       -3.122437   -0.697781    1.216324
      7          6           0       -3.781397   -1.891937    0.885563
      8          6           0       -3.445930   -2.987810    1.900257
      9          6           0       -2.712078   -2.165340    3.062819
     10          6           0       -2.566631   -0.773302    2.461106
     11          6           0       -3.453114   -2.114829    4.384661
     12          6           0       -2.664069   -4.266288    1.372206
     13          6           0       -1.756750   -4.210479    0.160934
     14          6           0       -0.369995   -4.906047    0.196076
     15          8           0       -0.133724   -6.098688    0.070825
     16          8           0        0.606598   -3.950434    0.383267
     17          7           0       -2.378883    2.192792    1.674344
     18          6           0       -1.774904    1.628340    2.756291
     19          6           0       -1.000264    2.617909    3.448144
     20          6           0       -1.321667    3.845983    2.807850
     21          6           0       -2.167202    3.512048    1.738293
     22          6           0       -0.089114    2.359461    4.633574
     23          6           0       -0.740581    5.176566    3.186238
     24          8           0        0.153034    5.359658    4.049238
     25          6           0       -1.030284    6.374480    2.378733
     26          7           0       -3.736179    2.878271   -0.968050
     27          6           0       -3.515844    4.098055   -0.472171
     28          6           0       -4.074999    5.228958   -1.318548
     29          6           0       -4.772374    4.454144   -2.543426
     30          6           0       -4.468593    2.983153   -2.118490
     31          6           0       -5.065454    6.076576   -0.429885
     32          6           0       -4.252905    4.792690   -3.933007
     33          6           0       -5.225286    5.695077   -4.738648
     34          7           0       -4.665125    0.174526   -1.182860
     35          6           0       -5.294204    0.638804   -2.312683
     36          6           0       -6.064157   -0.419744   -2.881715
     37          6           0       -5.885618   -1.477776   -2.017592
     38          6           0       -5.016467   -1.063717   -1.020619
     39          6           0       -6.980704   -0.334954   -4.082130
     40          6           0       -6.300815   -2.840624   -1.758289
     41          8           0       -6.970423   -3.611468   -2.403333
     42          6           0       -5.554736   -3.300211   -0.464119
     43          6           0       -6.547600   -3.616127    0.600110
     44          8           0       -6.694774   -4.725825    1.083606
     45          8           0       -7.106167   -2.474266    1.083606
     46          6           0       -7.960550   -2.677080    2.225270
     47          6           0        1.970523   -4.495785    0.381484
     48          6           0        2.952548   -3.730208   -0.564340
     49          6           0        2.859893   -3.430147   -1.871013
     50          6           0        1.695677   -3.545902   -2.826090
     51          6           0        4.146086   -2.954747   -2.576811
     52          6           0        4.337362   -1.463159   -2.618366
     53          6           0        5.746231   -0.957558   -2.236644
     54          6           0        5.765736    0.067074   -1.137357
     55          6           0        5.158131    1.436077   -1.639689
     56          6           0        7.139873    0.303947   -0.473131
     57          6           0        7.107833    0.043471    1.035528
     58          6           0        8.225570   -0.730135    1.643537
     59          6           0        9.494441    0.099481    1.687283
     60          6           0        9.916442    0.317787    3.138317
     61          6           0       10.636648   -0.597844    0.826267
     62          6           0       11.250897    0.427852   -0.069828
     63          6           0       12.734958    0.198962   -0.393911
     64          6           0       13.162238    0.971648   -1.640116
     65          6           0       13.103266    0.116882   -2.938781
     66          6           0       14.501081    1.725322   -1.401553
     67          1           0       -1.383463    0.133325    4.132579
     68          1           0       -2.610819    5.386634    0.908149
     69          1           0       -5.573894    2.275259   -3.732511
     70          1           0       -4.398031   -3.337115    2.299680
     71          1           0       -1.789706   -2.685571    3.322388
     72          1           0       -3.667050   -1.145736    4.834085
     73          1           0       -2.953868   -2.754196    5.113642
     74          1           0       -4.415371   -2.625729    4.356934
     75          1           0       -3.355641   -5.094669    1.223690
     76          1           0       -2.136554   -4.764833    2.185775
     77          1           0       -1.557570   -3.163924   -0.071394
     78          1           0       -2.299559   -4.726871   -0.630133
     79          1           0       -0.560897    1.708893    5.369484
     80          1           0        0.383278    3.163300    5.199514
     81          1           0        0.775926    1.793834    4.287719
     82          1           0       -2.061075    6.705022    2.506645
     83          1           0       -0.691643    6.211158    1.355844
     84          1           0       -0.501656    7.225415    2.810258
     85          1           0       -3.252245    5.833861   -1.699731
     86          1           0       -5.849299    4.600519   -2.471623
     87          1           0       -4.450478    6.822082    0.075015
     88          1           0       -5.595965    5.478770    0.311324
     89          1           0       -5.717800    6.651527   -1.086147
     90          1           0       -4.212776    3.811827   -4.407045
     91          1           0       -3.273016    5.242468   -4.095995
     92          1           0       -5.800251    5.180426   -5.508083
     93          1           0       -4.679840    6.526391   -5.185314
     94          1           0       -6.083955    6.032202   -4.159630
     95          1           0       -6.927918   -1.365845   -4.431809
     96          1           0       -6.697428    0.464413   -4.767042
     97          1           0       -8.007273   -0.179832   -3.750849
     98          1           0       -5.019134   -4.248734   -0.418732
     99          1           0       -8.291761   -1.704323    2.586976
    100          1           0       -7.442712   -3.206000    3.024356
    101          1           0       -8.792170   -3.337315    1.976983
    102          1           0        2.145533   -5.544603    0.140878
    103          1           0        2.493380   -4.369086    1.329267
    104          1           0        3.981893   -3.557559   -0.251461
    105          1           0        0.794792   -3.621002   -2.215618
    106          1           0        1.746504   -4.369777   -3.537711
    107          1           0        1.730526   -2.632825   -3.419356
    108          1           0        4.075477   -3.171717   -3.642577
    109          1           0        5.060038   -3.480813   -2.299240
    110          1           0        3.632740   -1.012999   -1.919492
    111          1           0        4.121303   -1.095035   -3.620895
    112          1           0        6.311687   -0.584608   -3.089943
    113          1           0        6.246183   -1.836545   -1.830702
    114          1           0        5.019445   -0.231690   -0.400977
    115          1           0        5.968317    2.129243   -1.864432
    116          1           0        4.566519    1.976031   -0.900014
    117          1           0        4.491345    1.282068   -2.487604
    118          1           0        7.412267    1.354947   -0.569339
    119          1           0        7.867108   -0.423158   -0.833735
    120          1           0        6.207440   -0.497960    1.327534
    121          1           0        6.977868    0.990991    1.557564
    122          1           0        8.229036   -1.654681    1.065393
    123          1           0        7.853439   -0.916451    2.651310
    124          1           0        9.228289    1.133770    1.473032
    125          1           0        9.423051   -0.392887    3.802198
    126          1           0        9.670316    1.329214    3.461085
    127          1           0       10.995415    0.278062    3.288691
    128          1           0       10.206751   -1.435283    0.276644
    129          1           0       11.382558   -0.950525    1.539233
    130          1           0       11.320399    1.486945    0.179039
    131          1           0       10.605898    0.518073   -0.943712
    132          1           0       12.818639   -0.861441   -0.632327
    133          1           0       13.280349    0.530483    0.489427
    134          1           0       12.360771    1.682853   -1.838284
    135          1           0       12.914600    0.843039   -3.728788
    136          1           0       12.384175   -0.699056   -2.863212
    137          1           0       14.044333   -0.339960   -3.244590
    138          1           0       14.347009    2.634943   -0.821418
    139          1           0       14.977265    2.155271   -2.282632
    140          1           0       15.378576    1.203225   -1.019704
 ---------------------------------------------------------------------

 SCF Done:  E(RCAM-B3LYP) =  -3007.15626988     A.U. after   18 cycles

 Excitation energies and oscillator strengths:

 Excited State   1:      Singlet-A      1.7635 eV  703.07 nm  f=0.3562  <S**2>=0.000
     245 -> 248       -0.17215
     246 -> 247        0.68681
     245 <- 248       -0.10176
 This state for optimization and/or second-order correction.
 Total Energy, E(TD-HF/TD-DFT) =  -3007.09146365
 Copying the excited state density for this state as the 1-particle RhoCI density.

 Excited State   2:      Singlet-A      2.2732 eV  545.41 nm  f=0.1007  <S**2>=0.000
     245 -> 247        0.63527
     246 -> 248        0.29411

 Excited State   3:      Singlet-A      3.3485 eV  370.27 nm  f=0.0027  <S**2>=0.000
     240 -> 247        0.25947
     240 -> 248       -0.11551
     240 -> 249        0.21636
     240 -> 250       -0.10158
     240 -> 251        0.15179
     241 -> 247       -0.20429
     242 -> 247        0.43692
     242 -> 249        0.15198
     243 -> 247       -0.15023

 Excited State   4:      Singlet-A      3.4294 eV  361.54 nm  f=0.0706  <S**2>=0.000
     239 -> 247       -0.10669
     240 -> 247        0.42558
     240 -> 249        0.13766
     242 -> 247       -0.25944
     243 -> 247        0.29950
     246 -> 248        0.29019

 Excited State   5:      Singlet-A      3.5706 eV  347.24 nm  f=0.3184  <S**2>=0.000
     241 -> 247       -0.12437
     243 -> 247        0.45098
     245 -> 247        0.20233
     246 -> 248       -0.44691

 The electronic state is 1-A.
 Alpha  occ. eigenvalues --  -46.89636 -19.25966 -19.25744 -19.20360 -19.20027
 Alpha  occ. eigenvalues --  -19.18869 -19.18819 -14.43077 -14.42630 -14.39745
 Alpha  occ. eigenvalues --  -14.39053 -10.39661 -10.39560 -10.35231 -10.34893
 Alpha  occ. eigenvalues --  -10.32826 -10.32274 -10.32119 -10.32090 -10.30967
 Alpha  occ. eigenvalues --  -10.30736 -10.30640 -10.30362 -10.29448 -10.29015
 Alpha  occ. eigenvalues --  -10.29000 -10.28825 -10.28572 -10.28458 -10.28374
 Alpha  occ. eigenvalues --  -10.28009 -10.27724 -10.27668 -10.27513 -10.27510
 Alpha  occ. eigenvalues --  -10.27453 -10.27391 -10.27247 -10.27195 -10.27024
 Alpha  occ. eigenvalues --  -10.26938 -10.26484 -10.26441 -10.26355 -10.25958
 Alpha  occ. eigenvalues --  -10.25907 -10.25904 -10.25605 -10.25392 -10.25197
 Alpha  occ. eigenvalues --  -10.24941 -10.24725 -10.24719 -10.24690 -10.24427
 Alpha  occ. eigenvalues --  -10.24365 -10.24310 -10.24281 -10.24255 -10.24141
 Alpha  occ. eigenvalues --  -10.23940 -10.23933 -10.23911 -10.23776 -10.23630
 Alpha  occ. eigenvalues --  -10.23474  -3.18154  -1.93023  -1.92618  -1.92455
 Alpha  occ. eigenvalues --   -1.17823  -1.16336  -1.10567  -1.08809  -1.08606
 Alpha  occ. eigenvalues --   -1.07775  -1.05758  -1.05330  -1.04450  -1.03033
 Alpha  occ. eigenvalues --   -0.93109  -0.90647  -0.89932  -0.89660  -0.89327
 Alpha  occ. eigenvalues --   -0.89039  -0.88621  -0.87979  -0.87495  -0.87469
 Alpha  occ. eigenvalues --   -0.87114  -0.86257  -0.84498  -0.84372  -0.84018
 Alpha  occ. eigenvalues --   -0.82661  -0.82553  -0.81708  -0.81183  -0.80907
 Alpha  occ. eigenvalues --   -0.79778  -0.78531  -0.78190  -0.77997  -0.76945
 Alpha  occ. eigenvalues --   -0.75803  -0.75569  -0.75210  -0.74599  -0.74389
 Alpha  occ. eigenvalues --   -0.73848  -0.73192  -0.72499  -0.71107  -0.70130
 Alpha  occ. eigenvalues --   -0.69113  -0.68218  -0.67768  -0.66342  -0.66310
 Alpha  occ. eigenvalues --   -0.65650  -0.65329  -0.65132  -0.64850  -0.64140
 Alpha  occ. eigenvalues --   -0.63916  -0.63175  -0.62833  -0.62324  -0.61535
 Alpha  occ. eigenvalues --   -0.60247  -0.59538  -0.59062  -0.58579  -0.58063
 Alpha  occ. eigenvalues --   -0.57725  -0.57141  -0.56981  -0.56520  -0.56091
 Alpha  occ. eigenvalues --   -0.55680  -0.55459  -0.54947  -0.54483  -0.54478
 Alpha  occ. eigenvalues --   -0.54224  -0.54065  -0.53624  -0.53493  -0.53255
 Alpha  occ. eigenvalues --   -0.53122  -0.52673  -0.52154  -0.51879  -0.51617
 Alpha  occ. eigenvalues --   -0.51464  -0.51323  -0.51260  -0.50995  -0.50856
 Alpha  occ. eigenvalues --   -0.50575  -0.50248  -0.50041  -0.49883  -0.49640
 Alpha  occ. eigenvalues --   -0.49568  -0.49318  -0.49080  -0.48963  -0.48817
 Alpha  occ. eigenvalues --   -0.48627  -0.48550  -0.48196  -0.48069  -0.48019
 Alpha  occ. eigenvalues --   -0.47987  -0.47186  -0.47144  -0.47053  -0.46932
 Alpha  occ. eigenvalues --   -0.46695  -0.46456  -0.46265  -0.45991  -0.45914
 Alpha  occ. eigenvalues --   -0.45713  -0.45606  -0.45378  -0.45240  -0.44981
 Alpha  occ. eigenvalues --   -0.44830  -0.44603  -0.44435  -0.44067  -0.44047
 Alpha  occ. eigenvalues --   -0.43748  -0.43658  -0.43442  -0.43299  -0.43183
 Alpha  occ. eigenvalues --   -0.42987  -0.42784  -0.42734  -0.42577  -0.42417
 Alpha  occ. eigenvalues --   -0.42233  -0.42066  -0.41745  -0.41667  -0.41625
 Alpha  occ. eigenvalues --   -0.41491  -0.41063  -0.40730  -0.40496  -0.40462
 Alpha  occ. eigenvalues --   -0.39444  -0.39362  -0.38884  -0.38651  -0.38559
 Alpha  occ. eigenvalues --   -0.38348  -0.38171  -0.38087  -0.37818  -0.37558
 Alpha  occ. eigenvalues --   -0.37377  -0.37317  -0.37053  -0.36948  -0.36170
 Alpha  occ. eigenvalues --   -0.36018  -0.35844  -0.35229  -0.34774  -0.34316
 Alpha  occ. eigenvalues --   -0.34282  -0.33941  -0.33183  -0.31810  -0.31130
 Alpha  occ. eigenvalues --   -0.30802  -0.30711  -0.30165  -0.29561  -0.24686
 Alpha  occ. eigenvalues --   -0.21679
 Alpha virt. eigenvalues --   -0.09020  -0.02127  -0.00084   0.00835   0.02047
 Alpha virt. eigenvalues --    0.04630   0.04700   0.05326   0.05989   0.06649
 Alpha virt. eigenvalues --    0.07517   0.08102   0.08453   0.08775   0.08848

 Mulliken charges:
               1
     1  Mg   0.805877
     2  C    0.003612
     3  C   -0.076215
     4  C   -0.069079
     5  C   -0.059659
     6  N   -0.292213
     7  C   -0.085691
     8  C    0.014887
     9  C   -0.042824
    10  C    0.082410
    11  C    0.041903
    12  C    0.032742
    13  C    0.078696
    14  C    0.146088
    15  O   -0.223067
    16  O   -0.326106
    17  N   -0.338492
    18  C    0.119361
    19  C   -0.116050
    20  C   -0.002847
    21  C    0.139919
    22  C    0.110036
    23  C   -0.015530
    24  O   -0.223954
    25  C    0.064655
    26  N   -0.274334
    27  C   -0.004207
    28  C   -0.019777
    29  C   -0.020620
    30  C    0.001319
    31  C    0.058348
    32  C    0.051388
    33  C   -0.014601
    34  N   -0.292552
    35  C    0.102460
    36  C   -0.201745
    37  C    0.026306
    38  C    0.103407
    39  C    0.123650
    40  C    0.061768
    41  O   -0.150928
    42  C    0.003184
    43  C    0.165412
    44  O   -0.214825
    45  O   -0.318198
    46  C    0.187550
    47  C    0.305976
    48  C   -0.134794
    49  C   -0.185628
    50  C    0.107504
    51  C    0.046871
    52  C    0.015083
    53  C    0.059250
    54  C   -0.139542
    55  C    0.024189
    56  C    0.111421
    57  C   -0.054589
    58  C    0.078733
    59  C   -0.129128
    60  C    0.045414
    61  C    0.131498
    62  C   -0.065287
    63  C    0.080043
    64  C   -0.115038
    65  C    0.035446
    66  C    0.029993
    67  H   -0.025833
    68  H   -0.062502
    69  H   -0.025332
    70  H    0.016926
    71  H    0.020846
    72  H    0.026512
    73  H    0.009129
    74  H    0.001569
    75  H    0.016649
    76  H    0.002442
    77  H    0.044189
    78  H    0.033382
    79  H    0.019527
    80  H    0.042117
    81  H    0.023318
    82  H    0.034471
    83  H    0.051385
    84  H    0.017417
    85  H    0.014985
    86  H    0.015573
    87  H    0.018935
    88  H    0.030324
    89  H    0.020051
    90  H    0.007781
    91  H    0.014537
    92  H    0.010185
    93  H    0.022422
    94  H    0.002238
    95  H    0.039471
    96  H    0.016996
    97  H    0.030229
    98  H    0.023729
    99  H    0.035861
   100  H    0.024622
   101  H    0.036161
   102  H    0.055241
   103  H    0.008934
   104  H   -0.012816
   105  H    0.013599
   106  H    0.031786
   107  H    0.009072
   108  H   -0.016938
   109  H    0.006114
   110  H    0.009086
   111  H    0.002605
   112  H   -0.002429
   113  H   -0.019384
   114  H   -0.000395
   115  H    0.000627
   116  H    0.003301
   117  H    0.006405
   118  H   -0.000201
   119  H   -0.008540
   120  H   -0.017987
   121  H   -0.019562
   122  H   -0.008547
   123  H   -0.015832
   124  H   -0.000371
   125  H    0.004866
   126  H   -0.001718
   127  H   -0.002680
   128  H    0.001868
   129  H   -0.006018
   130  H   -0.007449
   131  H   -0.008852
   132  H   -0.013557
   133  H   -0.000050
   134  H   -0.006993
   135  H    0.007536
   136  H    0.010642
   137  H    0.001198
   138  H    0.003444
   139  H   -0.015543
   140  H    0.010346
 Sum of Mulliken charges =  -0.00000

 Dipole moment (field-independent basis, Debye):
    X=             -1.3034    Y=              6.6451    Z=              1.2892  Tot=              6.8933
 Quadrupole moment (field-independent basis, Debye-Ang):
   XX=           -401.8259   YY=           -430.9822   ZZ=           -397.6554
   XY=            -50.7731   XZ=            -22.6870   YZ=            -32.4471

 Normal termination of Gaussian 16 at Wed May  4 05:30:26 2022.
