 Gaussian 16, Revision A.03,
 Gaussian 16:  ES64L-G16RevA.03 25-Dec-2016

 ---------------------------------
 #p PBE1PBE/Def2SVP td=(nstates=5)
 ---------------------------------

 ------------------------------------------------------
 step_1401_chromophore_26 TDDFT with PBE1PBE functional
 ------------------------------------------------------
 Symbolic Z-matrix:
 Charge =  0 Multiplicity = 1

                         Standard orientation:
 ---------------------------------------------------------------------
 Center     Atomic      Atomic             Coordinates (Angstroms)
 Number     Number       Type             X           Y           Z
 ---------------------------------------------------------------------
      1         12           0       -3.726470    1.237750    0.358513
      2          6           0       -4.700058   -2.031463   -0.091909
      3          6           0       -1.854376    0.294244    3.161054
      4          6           0       -2.787781    4.319763    0.754097
      5          6           0       -5.072256    1.939194   -2.822607
      6          7           0       -3.122437   -0.697781    1.216324
      7          6           0       -3.781397   -1.891937    0.885563
      8          6           0       -3.445930   -2.987810    1.900257
      9          6           0       -2.712078   -2.165340    3.062819
     10          6           0       -2.566631   -0.773302    2.461106
     11          6           0       -3.453114   -2.114829    4.384661
     12          6           0       -2.664069   -4.266288    1.372206
     13          6           0       -1.756750   -4.210479    0.160934
     14          6           0       -0.369995   -4.906047    0.196076
     15          8           0       -0.133724   -6.098688    0.070825
     16          8           0        0.606598   -3.950434    0.383267
     17          7           0       -2.378883    2.192792    1.674344
     18          6           0       -1.774904    1.628340    2.756291
     19          6           0       -1.000264    2.617909    3.448144
     20          6           0       -1.321667    3.845983    2.807850
     21          6           0       -2.167202    3.512048    1.738293
     22          6           0       -0.089114    2.359461    4.633574
     23          6           0       -0.740581    5.176566    3.186238
     24          8           0        0.153034    5.359658    4.049238
     25          6           0       -1.030284    6.374480    2.378733
     26          7           0       -3.736179    2.878271   -0.968050
     27          6           0       -3.515844    4.098055   -0.472171
     28          6           0       -4.074999    5.228958   -1.318548
     29          6           0       -4.772374    4.454144   -2.543426
     30          6           0       -4.468593    2.983153   -2.118490
     31          6           0       -5.065454    6.076576   -0.429885
     32          6           0       -4.252905    4.792690   -3.933007
     33          6           0       -5.225286    5.695077   -4.738648
     34          7           0       -4.665125    0.174526   -1.182860
     35          6           0       -5.294204    0.638804   -2.312683
     36          6           0       -6.064157   -0.419744   -2.881715
     37          6           0       -5.885618   -1.477776   -2.017592
     38          6           0       -5.016467   -1.063717   -1.020619
     39          6           0       -6.980704   -0.334954   -4.082130
     40          6           0       -6.300815   -2.840624   -1.758289
     41          8           0       -6.970423   -3.611468   -2.403333
     42          6           0       -5.554736   -3.300211   -0.464119
     43          6           0       -6.547600   -3.616127    0.600110
     44          8           0       -6.694774   -4.725825    1.083606
     45          8           0       -7.106167   -2.474266    1.083606
     46          6           0       -7.960550   -2.677080    2.225270
     47          6           0        1.970523   -4.495785    0.381484
     48          6           0        2.952548   -3.730208   -0.564340
     49          6           0        2.859893   -3.430147   -1.871013
     50          6           0        1.695677   -3.545902   -2.826090
     51          6           0        4.146086   -2.954747   -2.576811
     52          6           0        4.337362   -1.463159   -2.618366
     53          6           0        5.746231   -0.957558   -2.236644
     54          6           0        5.765736    0.067074   -1.137357
     55          6           0        5.158131    1.436077   -1.639689
     56          6           0        7.139873    0.303947   -0.473131
     57          6           0        7.107833    0.043471    1.035528
     58          6           0        8.225570   -0.730135    1.643537
     59          6           0        9.494441    0.099481    1.687283
     60          6           0        9.916442    0.317787    3.138317
     61          6           0       10.636648   -0.597844    0.826267
     62          6           0       11.250897    0.427852   -0.069828
     63          6           0       12.734958    0.198962   -0.393911
     64          6           0       13.162238    0.971648   -1.640116
     65          6           0       13.103266    0.116882   -2.938781
     66          6           0       14.501081    1.725322   -1.401553
     67          1           0       -1.383463    0.133325    4.132579
     68          1           0       -2.610819    5.386634    0.908149
     69          1           0       -5.573894    2.275259   -3.732511
     70          1           0       -4.398031   -3.337115    2.299680
     71          1           0       -1.789706   -2.685571    3.322388
     72          1           0       -3.667050   -1.145736    4.834085
     73          1           0       -2.953868   -2.754196    5.113642
     74          1           0       -4.415371   -2.625729    4.356934
     75          1           0       -3.355641   -5.094669    1.223690
     76          1           0       -2.136554   -4.764833    2.185775
     77          1           0       -1.557570   -3.163924   -0.071394
     78          1           0       -2.299559   -4.726871   -0.630133
     79          1           0       -0.560897    1.708893    5.369484
     80          1           0        0.383278    3.163300    5.199514
     81          1           0        0.775926    1.793834    4.287719
     82          1           0       -2.061075    6.705022    2.506645
     83          1           0       -0.691643    6.211158    1.355844
     84          1           0       -0.501656    7.225415    2.810258
     85          1           0       -3.252245    5.833861   -1.699731
     86          1           0       -5.849299    4.600519   -2.471623
     87          1           0       -4.450478    6.822082    0.075015
     88          1           0       -5.595965    5.478770    0.311324
     89          1           0       -5.717800    6.651527   -1.086147
     90          1           0       -4.212776    3.811827   -4.407045
     91          1           0       -3.273016    5.242468   -4.095995
     92          1           0       -5.800251    5.180426   -5.508083
     93          1           0       -4.679840    6.526391   -5.185314
     94          1           0       -6.083955    6.032202   -4.159630
     95          1           0       -6.927918   -1.365845   -4.431809
     96          1           0       -6.697428    0.464413   -4.767042
     97          1           0       -8.007273   -0.179832   -3.750849
     98          1           0       -5.019134   -4.248734   -0.418732
     99          1           0       -8.291761   -1.704323    2.586976
    100          1           0       -7.442712   -3.206000    3.024356
    101          1           0       -8.792170   -3.337315    1.976983
    102          1           0        2.145533   -5.544603    0.140878
    103          1           0        2.493380   -4.369086    1.329267
    104          1           0        3.981893   -3.557559   -0.251461
    105          1           0        0.794792   -3.621002   -2.215618
    106          1           0        1.746504   -4.369777   -3.537711
    107          1           0        1.730526   -2.632825   -3.419356
    108          1           0        4.075477   -3.171717   -3.642577
    109          1           0        5.060038   -3.480813   -2.299240
    110          1           0        3.632740   -1.012999   -1.919492
    111          1           0        4.121303   -1.095035   -3.620895
    112          1           0        6.311687   -0.584608   -3.089943
    113          1           0        6.246183   -1.836545   -1.830702
    114          1           0        5.019445   -0.231690   -0.400977
    115          1           0        5.968317    2.129243   -1.864432
    116          1           0        4.566519    1.976031   -0.900014
    117          1           0        4.491345    1.282068   -2.487604
    118          1           0        7.412267    1.354947   -0.569339
    119          1           0        7.867108   -0.423158   -0.833735
    120          1           0        6.207440   -0.497960    1.327534
    121          1           0        6.977868    0.990991    1.557564
    122          1           0        8.229036   -1.654681    1.065393
    123          1           0        7.853439   -0.916451    2.651310
    124          1           0        9.228289    1.133770    1.473032
    125          1           0        9.423051   -0.392887    3.802198
    126          1           0        9.670316    1.329214    3.461085
    127          1           0       10.995415    0.278062    3.288691
    128          1           0       10.206751   -1.435283    0.276644
    129          1           0       11.382558   -0.950525    1.539233
    130          1           0       11.320399    1.486945    0.179039
    131          1           0       10.605898    0.518073   -0.943712
    132          1           0       12.818639   -0.861441   -0.632327
    133          1           0       13.280349    0.530483    0.489427
    134          1           0       12.360771    1.682853   -1.838284
    135          1           0       12.914600    0.843039   -3.728788
    136          1           0       12.384175   -0.699056   -2.863212
    137          1           0       14.044333   -0.339960   -3.244590
    138          1           0       14.347009    2.634943   -0.821418
    139          1           0       14.977265    2.155271   -2.282632
    140          1           0       15.378576    1.203225   -1.019704
 ---------------------------------------------------------------------

 SCF Done:  E(RPBE1PBE) =  -3005.34521637     A.U. after   16 cycles

 Excitation energies and oscillator strengths:

 Excited State   1:      Singlet-A      1.8819 eV  658.83 nm  f=0.3440  <S**2>=0.000
     245 -> 248       -0.16879
     246 -> 247        0.69282
     246 <- 247       -0.10393
 This state for optimization and/or second-order correction.
 Total Energy, E(TD-HF/TD-DFT) =  -3005.27605859
 Copying the excited state density for this state as the 1-particle RhoCI density.

 Excited State   2:      Singlet-A      2.2698 eV  546.25 nm  f=0.0979  <S**2>=0.000
     245 -> 247        0.64727
     246 -> 248        0.27006

 Excited State   3:      Singlet-A      2.8703 eV  431.96 nm  f=0.0004  <S**2>=0.000
     243 -> 247        0.66231
     243 -> 249        0.16794
     243 -> 250        0.10299

 Excited State   4:      Singlet-A      3.0518 eV  406.27 nm  f=0.0016  <S**2>=0.000
     242 -> 247        0.67706
     242 -> 249       -0.10628

 Excited State   5:      Singlet-A      3.1612 eV  392.20 nm  f=0.0065  <S**2>=0.000
     240 -> 247       -0.22771
     241 -> 247        0.62174
     246 -> 248        0.19455

 The electronic state is 1-A.
 Alpha  occ. eigenvalues --  -46.93008 -19.26641 -19.26442 -19.20679 -19.20319
 Alpha  occ. eigenvalues --  -19.19323 -19.18831 -14.42546 -14.42142 -14.39250
 Alpha  occ. eigenvalues --  -14.38840 -10.36715 -10.36655 -10.32248 -10.32147
 Alpha  occ. eigenvalues --  -10.30273 -10.29791 -10.29512 -10.29354 -10.28675
 Alpha  occ. eigenvalues --  -10.28663 -10.28263 -10.27635 -10.27130 -10.26798
 Alpha  occ. eigenvalues --  -10.26701 -10.26673 -10.26493 -10.26148 -10.26137
 Alpha  occ. eigenvalues --  -10.25650 -10.25538 -10.25525 -10.25165 -10.25085
 Alpha  occ. eigenvalues --  -10.24973 -10.24941 -10.24889 -10.24865 -10.24848
 Alpha  occ. eigenvalues --  -10.24659 -10.24085 -10.23746 -10.23694 -10.23629
 Alpha  occ. eigenvalues --  -10.23415 -10.23246 -10.23066 -10.22955 -10.22599
 Alpha  occ. eigenvalues --  -10.22546 -10.22415 -10.22279 -10.22219 -10.22187
 Alpha  occ. eigenvalues --  -10.21950 -10.21832 -10.21771 -10.21730 -10.21638
 Alpha  occ. eigenvalues --  -10.21445 -10.21418 -10.21275 -10.21159 -10.21147
 Alpha  occ. eigenvalues --  -10.20964  -3.15108  -1.87917  -1.87490  -1.87332
 Alpha  occ. eigenvalues --   -1.12648  -1.11153  -1.05542  -1.03704  -1.03089
 Alpha  occ. eigenvalues --   -1.02654  -1.00594  -0.99908  -0.99079  -0.97586
 Alpha  occ. eigenvalues --   -0.87604  -0.84719  -0.84035  -0.83977  -0.83526
 Alpha  occ. eigenvalues --   -0.83268  -0.82709  -0.82333  -0.81828  -0.81589
 Alpha  occ. eigenvalues --   -0.81336  -0.80484  -0.78751  -0.78682  -0.78210
 Alpha  occ. eigenvalues --   -0.76894  -0.76695  -0.75934  -0.75522  -0.75114
 Alpha  occ. eigenvalues --   -0.73941  -0.72832  -0.72350  -0.72300  -0.71308
 Alpha  occ. eigenvalues --   -0.70160  -0.69623  -0.69388  -0.68722  -0.68495
 Alpha  occ. eigenvalues --   -0.68204  -0.67600  -0.66899  -0.65390  -0.64527
 Alpha  occ. eigenvalues --   -0.63659  -0.62608  -0.61965  -0.60747  -0.60581
 Alpha  occ. eigenvalues --   -0.60038  -0.59891  -0.59724  -0.58960  -0.58716
 Alpha  occ. eigenvalues --   -0.58450  -0.57344  -0.56963  -0.56455  -0.55935
 Alpha  occ. eigenvalues --   -0.54845  -0.54206  -0.53655  -0.53181  -0.52448
 Alpha  occ. eigenvalues --   -0.52189  -0.51680  -0.51534  -0.51003  -0.50478
 Alpha  occ. eigenvalues --   -0.50254  -0.50016  -0.49305  -0.49139  -0.48806
 Alpha  occ. eigenvalues --   -0.48756  -0.48583  -0.48227  -0.48056  -0.47633
 Alpha  occ. eigenvalues --   -0.47467  -0.47292  -0.46673  -0.46535  -0.46128
 Alpha  occ. eigenvalues --   -0.46009  -0.45960  -0.45830  -0.45455  -0.45315
 Alpha  occ. eigenvalues --   -0.45094  -0.44825  -0.44708  -0.44481  -0.44219
 Alpha  occ. eigenvalues --   -0.44086  -0.43942  -0.43732  -0.43532  -0.43376
 Alpha  occ. eigenvalues --   -0.43308  -0.43167  -0.42860  -0.42726  -0.42569
 Alpha  occ. eigenvalues --   -0.42553  -0.41846  -0.41728  -0.41710  -0.41583
 Alpha  occ. eigenvalues --   -0.41409  -0.41173  -0.40914  -0.40674  -0.40639
 Alpha  occ. eigenvalues --   -0.40485  -0.40352  -0.40122  -0.39919  -0.39588
 Alpha  occ. eigenvalues --   -0.39529  -0.39345  -0.39240  -0.38903  -0.38735
 Alpha  occ. eigenvalues --   -0.38524  -0.38368  -0.38193  -0.38116  -0.37922
 Alpha  occ. eigenvalues --   -0.37869  -0.37594  -0.37447  -0.37390  -0.37268
 Alpha  occ. eigenvalues --   -0.36982  -0.36930  -0.36476  -0.36408  -0.36279
 Alpha  occ. eigenvalues --   -0.36265  -0.35768  -0.35706  -0.35317  -0.35212
 Alpha  occ. eigenvalues --   -0.34186  -0.34104  -0.33811  -0.33472  -0.33406
 Alpha  occ. eigenvalues --   -0.33262  -0.33044  -0.32957  -0.32825  -0.32391
 Alpha  occ. eigenvalues --   -0.32308  -0.32136  -0.32078  -0.31663  -0.30963
 Alpha  occ. eigenvalues --   -0.30827  -0.30803  -0.30295  -0.29983  -0.29424
 Alpha  occ. eigenvalues --   -0.29168  -0.29118  -0.28121  -0.27403  -0.26368
 Alpha  occ. eigenvalues --   -0.26148  -0.25726  -0.25440  -0.24822  -0.21546
 Alpha  occ. eigenvalues --   -0.19281
 Alpha virt. eigenvalues --   -0.11543  -0.05658  -0.04179  -0.02442  -0.01999
 Alpha virt. eigenvalues --   -0.00050   0.00141   0.00826   0.01486   0.02749
 Alpha virt. eigenvalues --    0.03757   0.04496   0.04645   0.05419   0.05599

 Mulliken charges:
               1
     1  Mg   0.949507
     2  C   -0.006487
     3  C   -0.053313
     4  C   -0.067125
     5  C   -0.046394
     6  N   -0.395486
     7  C   -0.010364
     8  C   -0.052669
     9  C   -0.118870
    10  C    0.111008
    11  C   -0.010754
    12  C   -0.012871
    13  C   -0.003331
    14  C    0.212063
    15  O   -0.256726
    16  O   -0.353933
    17  N   -0.456110
    18  C    0.130257
    19  C   -0.134939
    20  C   -0.055157
    21  C    0.163247
    22  C    0.052805
    23  C    0.041651
    24  O   -0.261379
    25  C   -0.017358
    26  N   -0.378534
    27  C    0.032473
    28  C   -0.093703
    29  C   -0.096408
    30  C    0.039548
    31  C   -0.002524
    32  C   -0.008880
    33  C   -0.082784
    34  N   -0.427789
    35  C    0.123980
    36  C   -0.215225
    37  C   -0.025861
    38  C    0.159678
    39  C    0.069709
    40  C    0.161327
    41  O   -0.196993
    42  C   -0.109543
    43  C    0.259894
    44  O   -0.251763
    45  O   -0.347538
    46  C    0.130868
    47  C    0.262840
    48  C   -0.149170
    49  C   -0.222768
    50  C    0.037698
    51  C   -0.022382
    52  C   -0.041787
    53  C    0.001847
    54  C   -0.224027
    55  C   -0.032892
    56  C    0.052942
    57  C   -0.113951
    58  C    0.018902
    59  C   -0.212513
    60  C   -0.008453
    61  C    0.068479
    62  C   -0.120979
    63  C    0.018539
    64  C   -0.208863
    65  C   -0.023628
    66  C   -0.030095
    67  H    0.004879
    68  H   -0.024883
    69  H    0.005484
    70  H    0.060520
    71  H    0.056163
    72  H    0.053516
    73  H    0.036009
    74  H    0.028106
    75  H    0.046623
    76  H    0.034971
    77  H    0.078233
    78  H    0.065720
    79  H    0.044808
    80  H    0.067622
    81  H    0.050790
    82  H    0.060374
    83  H    0.077598
    84  H    0.045723
    85  H    0.050893
    86  H    0.052554
    87  H    0.047108
    88  H    0.057936
    89  H    0.048136
    90  H    0.042094
    91  H    0.045966
    92  H    0.037372
    93  H    0.049928
    94  H    0.029325
    95  H    0.068271
    96  H    0.044716
    97  H    0.060131
    98  H    0.062364
    99  H    0.058213
   100  H    0.046931
   101  H    0.058595
   102  H    0.081610
   103  H    0.037241
   104  H    0.016934
   105  H    0.046778
   106  H    0.059083
   107  H    0.037871
   108  H    0.017977
   109  H    0.036296
   110  H    0.042132
   111  H    0.034094
   112  H    0.030036
   113  H    0.015308
   114  H    0.037420
   115  H    0.027829
   116  H    0.031778
   117  H    0.034163
   118  H    0.031519
   119  H    0.025668
   120  H    0.014751
   121  H    0.015155
   122  H    0.023745
   123  H    0.018044
   124  H    0.036045
   125  H    0.030904
   126  H    0.025908
   127  H    0.024596
   128  H    0.032804
   129  H    0.026979
   130  H    0.025473
   131  H    0.025060
   132  H    0.020847
   133  H    0.032810
   134  H    0.030687
   135  H    0.035039
   136  H    0.037384
   137  H    0.029022
   138  H    0.031644
   139  H    0.012443
   140  H    0.037193
 Sum of Mulliken charges =  -0.00000

 Dipole moment (field-independent basis, Debye):
    X=             -1.7121    Y=              6.4501    Z=              0.7963  Tot=              6.7208
 Quadrupole moment (field-independent basis, Debye-Ang):
   XX=           -395.9714   YY=           -428.0034   ZZ=           -394.0480
   XY=            -50.5576   XZ=            -20.3548   YZ=            -34.2731

 Normal termination of Gaussian 16 at Wed May  4 05:51:05 2022.
