 Gaussian 16, Revision A.03,
 Gaussian 16:  ES64L-G16RevA.03 25-Dec-2016

 --------------------------------
 #p wB97XD/Def2SVP td=(nstates=5)
 --------------------------------

 -----------------------------------------------------
 step_1401_chromophore_26 TDDFT with wB97XD functional
 -----------------------------------------------------
 Symbolic Z-matrix:
 Charge =  0 Multiplicity = 1

                         Standard orientation:
 ---------------------------------------------------------------------
 Center     Atomic      Atomic             Coordinates (Angstroms)
 Number     Number       Type             X           Y           Z
 ---------------------------------------------------------------------
      1         12           0       -3.726470    1.237750    0.358513
      2          6           0       -4.700058   -2.031463   -0.091909
      3          6           0       -1.854376    0.294244    3.161054
      4          6           0       -2.787781    4.319763    0.754097
      5          6           0       -5.072256    1.939194   -2.822607
      6          7           0       -3.122437   -0.697781    1.216324
      7          6           0       -3.781397   -1.891937    0.885563
      8          6           0       -3.445930   -2.987810    1.900257
      9          6           0       -2.712078   -2.165340    3.062819
     10          6           0       -2.566631   -0.773302    2.461106
     11          6           0       -3.453114   -2.114829    4.384661
     12          6           0       -2.664069   -4.266288    1.372206
     13          6           0       -1.756750   -4.210479    0.160934
     14          6           0       -0.369995   -4.906047    0.196076
     15          8           0       -0.133724   -6.098688    0.070825
     16          8           0        0.606598   -3.950434    0.383267
     17          7           0       -2.378883    2.192792    1.674344
     18          6           0       -1.774904    1.628340    2.756291
     19          6           0       -1.000264    2.617909    3.448144
     20          6           0       -1.321667    3.845983    2.807850
     21          6           0       -2.167202    3.512048    1.738293
     22          6           0       -0.089114    2.359461    4.633574
     23          6           0       -0.740581    5.176566    3.186238
     24          8           0        0.153034    5.359658    4.049238
     25          6           0       -1.030284    6.374480    2.378733
     26          7           0       -3.736179    2.878271   -0.968050
     27          6           0       -3.515844    4.098055   -0.472171
     28          6           0       -4.074999    5.228958   -1.318548
     29          6           0       -4.772374    4.454144   -2.543426
     30          6           0       -4.468593    2.983153   -2.118490
     31          6           0       -5.065454    6.076576   -0.429885
     32          6           0       -4.252905    4.792690   -3.933007
     33          6           0       -5.225286    5.695077   -4.738648
     34          7           0       -4.665125    0.174526   -1.182860
     35          6           0       -5.294204    0.638804   -2.312683
     36          6           0       -6.064157   -0.419744   -2.881715
     37          6           0       -5.885618   -1.477776   -2.017592
     38          6           0       -5.016467   -1.063717   -1.020619
     39          6           0       -6.980704   -0.334954   -4.082130
     40          6           0       -6.300815   -2.840624   -1.758289
     41          8           0       -6.970423   -3.611468   -2.403333
     42          6           0       -5.554736   -3.300211   -0.464119
     43          6           0       -6.547600   -3.616127    0.600110
     44          8           0       -6.694774   -4.725825    1.083606
     45          8           0       -7.106167   -2.474266    1.083606
     46          6           0       -7.960550   -2.677080    2.225270
     47          6           0        1.970523   -4.495785    0.381484
     48          6           0        2.952548   -3.730208   -0.564340
     49          6           0        2.859893   -3.430147   -1.871013
     50          6           0        1.695677   -3.545902   -2.826090
     51          6           0        4.146086   -2.954747   -2.576811
     52          6           0        4.337362   -1.463159   -2.618366
     53          6           0        5.746231   -0.957558   -2.236644
     54          6           0        5.765736    0.067074   -1.137357
     55          6           0        5.158131    1.436077   -1.639689
     56          6           0        7.139873    0.303947   -0.473131
     57          6           0        7.107833    0.043471    1.035528
     58          6           0        8.225570   -0.730135    1.643537
     59          6           0        9.494441    0.099481    1.687283
     60          6           0        9.916442    0.317787    3.138317
     61          6           0       10.636648   -0.597844    0.826267
     62          6           0       11.250897    0.427852   -0.069828
     63          6           0       12.734958    0.198962   -0.393911
     64          6           0       13.162238    0.971648   -1.640116
     65          6           0       13.103266    0.116882   -2.938781
     66          6           0       14.501081    1.725322   -1.401553
     67          1           0       -1.383463    0.133325    4.132579
     68          1           0       -2.610819    5.386634    0.908149
     69          1           0       -5.573894    2.275259   -3.732511
     70          1           0       -4.398031   -3.337115    2.299680
     71          1           0       -1.789706   -2.685571    3.322388
     72          1           0       -3.667050   -1.145736    4.834085
     73          1           0       -2.953868   -2.754196    5.113642
     74          1           0       -4.415371   -2.625729    4.356934
     75          1           0       -3.355641   -5.094669    1.223690
     76          1           0       -2.136554   -4.764833    2.185775
     77          1           0       -1.557570   -3.163924   -0.071394
     78          1           0       -2.299559   -4.726871   -0.630133
     79          1           0       -0.560897    1.708893    5.369484
     80          1           0        0.383278    3.163300    5.199514
     81          1           0        0.775926    1.793834    4.287719
     82          1           0       -2.061075    6.705022    2.506645
     83          1           0       -0.691643    6.211158    1.355844
     84          1           0       -0.501656    7.225415    2.810258
     85          1           0       -3.252245    5.833861   -1.699731
     86          1           0       -5.849299    4.600519   -2.471623
     87          1           0       -4.450478    6.822082    0.075015
     88          1           0       -5.595965    5.478770    0.311324
     89          1           0       -5.717800    6.651527   -1.086147
     90          1           0       -4.212776    3.811827   -4.407045
     91          1           0       -3.273016    5.242468   -4.095995
     92          1           0       -5.800251    5.180426   -5.508083
     93          1           0       -4.679840    6.526391   -5.185314
     94          1           0       -6.083955    6.032202   -4.159630
     95          1           0       -6.927918   -1.365845   -4.431809
     96          1           0       -6.697428    0.464413   -4.767042
     97          1           0       -8.007273   -0.179832   -3.750849
     98          1           0       -5.019134   -4.248734   -0.418732
     99          1           0       -8.291761   -1.704323    2.586976
    100          1           0       -7.442712   -3.206000    3.024356
    101          1           0       -8.792170   -3.337315    1.976983
    102          1           0        2.145533   -5.544603    0.140878
    103          1           0        2.493380   -4.369086    1.329267
    104          1           0        3.981893   -3.557559   -0.251461
    105          1           0        0.794792   -3.621002   -2.215618
    106          1           0        1.746504   -4.369777   -3.537711
    107          1           0        1.730526   -2.632825   -3.419356
    108          1           0        4.075477   -3.171717   -3.642577
    109          1           0        5.060038   -3.480813   -2.299240
    110          1           0        3.632740   -1.012999   -1.919492
    111          1           0        4.121303   -1.095035   -3.620895
    112          1           0        6.311687   -0.584608   -3.089943
    113          1           0        6.246183   -1.836545   -1.830702
    114          1           0        5.019445   -0.231690   -0.400977
    115          1           0        5.968317    2.129243   -1.864432
    116          1           0        4.566519    1.976031   -0.900014
    117          1           0        4.491345    1.282068   -2.487604
    118          1           0        7.412267    1.354947   -0.569339
    119          1           0        7.867108   -0.423158   -0.833735
    120          1           0        6.207440   -0.497960    1.327534
    121          1           0        6.977868    0.990991    1.557564
    122          1           0        8.229036   -1.654681    1.065393
    123          1           0        7.853439   -0.916451    2.651310
    124          1           0        9.228289    1.133770    1.473032
    125          1           0        9.423051   -0.392887    3.802198
    126          1           0        9.670316    1.329214    3.461085
    127          1           0       10.995415    0.278062    3.288691
    128          1           0       10.206751   -1.435283    0.276644
    129          1           0       11.382558   -0.950525    1.539233
    130          1           0       11.320399    1.486945    0.179039
    131          1           0       10.605898    0.518073   -0.943712
    132          1           0       12.818639   -0.861441   -0.632327
    133          1           0       13.280349    0.530483    0.489427
    134          1           0       12.360771    1.682853   -1.838284
    135          1           0       12.914600    0.843039   -3.728788
    136          1           0       12.384175   -0.699056   -2.863212
    137          1           0       14.044333   -0.339960   -3.244590
    138          1           0       14.347009    2.634943   -0.821418
    139          1           0       14.977265    2.155271   -2.282632
    140          1           0       15.378576    1.203225   -1.019704
 ---------------------------------------------------------------------

 SCF Done:  E(RwB97XD) =  -3007.85413143     A.U. after   19 cycles

 Excitation energies and oscillator strengths:

 Excited State   1:      Singlet-A      1.7304 eV  716.52 nm  f=0.3550  <S**2>=0.000
     245 -> 248       -0.17569
     246 -> 247        0.68483
     245 <- 248       -0.10881
 This state for optimization and/or second-order correction.
 Total Energy, E(TD-HF/TD-DFT) =  -3007.79054180
 Copying the excited state density for this state as the 1-particle RhoCI density.

 Excited State   2:      Singlet-A      2.2230 eV  557.73 nm  f=0.0994  <S**2>=0.000
     245 -> 247        0.63345
     246 -> 248        0.29480

 Excited State   3:      Singlet-A      3.3442 eV  370.74 nm  f=0.0024  <S**2>=0.000
     240 -> 247        0.10340
     240 -> 249       -0.17522
     240 -> 251        0.11356
     241 -> 247        0.53215
     241 -> 248       -0.11574
     241 -> 249       -0.28041
     241 -> 251        0.13010
     243 -> 247       -0.10559

 Excited State   4:      Singlet-A      3.4328 eV  361.17 nm  f=0.0797  <S**2>=0.000
     239 -> 247       -0.10680
     240 -> 247        0.50280
     240 -> 249       -0.12861
     241 -> 247       -0.14676
     243 -> 247        0.24278
     246 -> 248        0.30736

 Excited State   5:      Singlet-A      3.6077 eV  343.67 nm  f=0.3960  <S**2>=0.000
     243 -> 247       -0.43267
     243 -> 249       -0.10683
     245 -> 247       -0.22378
     246 -> 248        0.46424

 The electronic state is 1-A.
 Alpha  occ. eigenvalues --  -46.96002 -19.31140 -19.30979 -19.25283 -19.24971
 Alpha  occ. eigenvalues --  -19.23921 -19.23844 -14.47708 -14.47200 -14.44382
 Alpha  occ. eigenvalues --  -14.43584 -10.43481 -10.43380 -10.39258 -10.38841
 Alpha  occ. eigenvalues --  -10.36949 -10.36365 -10.35985 -10.35816 -10.35095
 Alpha  occ. eigenvalues --  -10.34723 -10.34588 -10.34505 -10.33717 -10.33071
 Alpha  occ. eigenvalues --  -10.32907 -10.32906 -10.32616 -10.32518 -10.32391
 Alpha  occ. eigenvalues --  -10.32129 -10.31767 -10.31680 -10.31570 -10.31484
 Alpha  occ. eigenvalues --  -10.31355 -10.31341 -10.31298 -10.31174 -10.31019
 Alpha  occ. eigenvalues --  -10.30860 -10.30493 -10.30418 -10.30244 -10.29816
 Alpha  occ. eigenvalues --  -10.29764 -10.29718 -10.29553 -10.29318 -10.28987
 Alpha  occ. eigenvalues --  -10.28906 -10.28705 -10.28640 -10.28614 -10.28336
 Alpha  occ. eigenvalues --  -10.28217 -10.28182 -10.28169 -10.28085 -10.28084
 Alpha  occ. eigenvalues --  -10.27834 -10.27821 -10.27731 -10.27592 -10.27535
 Alpha  occ. eigenvalues --  -10.27356  -3.21957  -1.95515  -1.95090  -1.94929
 Alpha  occ. eigenvalues --   -1.19961  -1.18511  -1.12740  -1.10980  -1.10872
 Alpha  occ. eigenvalues --   -1.09977  -1.07789  -1.07393  -1.06466  -1.05056
 Alpha  occ. eigenvalues --   -0.95035  -0.92393  -0.91702  -0.91544  -0.91172
 Alpha  occ. eigenvalues --   -0.90978  -0.90383  -0.89894  -0.89496  -0.89262
 Alpha  occ. eigenvalues --   -0.89061  -0.88136  -0.86354  -0.86252  -0.85885
 Alpha  occ. eigenvalues --   -0.84525  -0.84455  -0.83630  -0.83160  -0.82754
 Alpha  occ. eigenvalues --   -0.81598  -0.80488  -0.80124  -0.79895  -0.78842
 Alpha  occ. eigenvalues --   -0.77747  -0.77337  -0.77050  -0.76410  -0.76195
 Alpha  occ. eigenvalues --   -0.75767  -0.75139  -0.74481  -0.73036  -0.72041
 Alpha  occ. eigenvalues --   -0.71106  -0.70249  -0.69619  -0.68228  -0.68189
 Alpha  occ. eigenvalues --   -0.67625  -0.67315  -0.67136  -0.66652  -0.66082
 Alpha  occ. eigenvalues --   -0.65882  -0.65000  -0.64640  -0.64129  -0.63612
 Alpha  occ. eigenvalues --   -0.62192  -0.61526  -0.61037  -0.60579  -0.59954
 Alpha  occ. eigenvalues --   -0.59631  -0.59067  -0.58955  -0.58401  -0.57962
 Alpha  occ. eigenvalues --   -0.57614  -0.57404  -0.56789  -0.56414  -0.56301
 Alpha  occ. eigenvalues --   -0.56142  -0.55977  -0.55559  -0.55402  -0.55237
 Alpha  occ. eigenvalues --   -0.55013  -0.54603  -0.54067  -0.53806  -0.53567
 Alpha  occ. eigenvalues --   -0.53359  -0.53199  -0.53163  -0.52883  -0.52813
 Alpha  occ. eigenvalues --   -0.52496  -0.52139  -0.51969  -0.51810  -0.51537
 Alpha  occ. eigenvalues --   -0.51458  -0.51273  -0.50979  -0.50850  -0.50766
 Alpha  occ. eigenvalues --   -0.50501  -0.50456  -0.50096  -0.49976  -0.49944
 Alpha  occ. eigenvalues --   -0.49872  -0.49140  -0.49033  -0.48961  -0.48866
 Alpha  occ. eigenvalues --   -0.48615  -0.48354  -0.48154  -0.47914  -0.47784
 Alpha  occ. eigenvalues --   -0.47589  -0.47547  -0.47296  -0.47161  -0.46824
 Alpha  occ. eigenvalues --   -0.46717  -0.46492  -0.46346  -0.45971  -0.45917
 Alpha  occ. eigenvalues --   -0.45702  -0.45530  -0.45366  -0.45195  -0.45041
 Alpha  occ. eigenvalues --   -0.44898  -0.44694  -0.44641  -0.44486  -0.44361
 Alpha  occ. eigenvalues --   -0.44166  -0.43952  -0.43722  -0.43602  -0.43496
 Alpha  occ. eigenvalues --   -0.43369  -0.42896  -0.42621  -0.42377  -0.42328
 Alpha  occ. eigenvalues --   -0.41292  -0.41206  -0.40778  -0.40513  -0.40474
 Alpha  occ. eigenvalues --   -0.40269  -0.40102  -0.39999  -0.39805  -0.39403
 Alpha  occ. eigenvalues --   -0.39387  -0.39143  -0.38980  -0.38758  -0.38004
 Alpha  occ. eigenvalues --   -0.37860  -0.37736  -0.37221  -0.36758  -0.36220
 Alpha  occ. eigenvalues --   -0.36126  -0.36112  -0.35001  -0.34030  -0.33221
 Alpha  occ. eigenvalues --   -0.32849  -0.32756  -0.32248  -0.31569  -0.26635
 Alpha  occ. eigenvalues --   -0.23516
 Alpha virt. eigenvalues --   -0.07345  -0.00212   0.02057   0.03893   0.04158
 Alpha virt. eigenvalues --    0.06858   0.06965   0.07641   0.08213   0.09341
 Alpha virt. eigenvalues --    0.10378   0.11083   0.11343   0.12143   0.12236

 Mulliken charges:
               1
     1  Mg   0.941895
     2  C   -0.004503
     3  C   -0.079458
     4  C   -0.079204
     5  C   -0.065066
     6  N   -0.361855
     7  C   -0.048223
     8  C   -0.023350
     9  C   -0.096187
    10  C    0.104847
    11  C   -0.003318
    12  C   -0.007948
    13  C    0.020362
    14  C    0.199819
    15  O   -0.254208
    16  O   -0.353373
    17  N   -0.423667
    18  C    0.131569
    19  C   -0.127450
    20  C   -0.049314
    21  C    0.164282
    22  C    0.062793
    23  C    0.035220
    24  O   -0.254435
    25  C   -0.001460
    26  N   -0.346520
    27  C    0.026346
    28  C   -0.073876
    29  C   -0.069469
    30  C    0.026421
    31  C    0.009725
    32  C    0.003146
    33  C   -0.067024
    34  N   -0.384759
    35  C    0.112694
    36  C   -0.214581
    37  C   -0.022155
    38  C    0.136923
    39  C    0.081644
    40  C    0.138845
    41  O   -0.189227
    42  C   -0.064815
    43  C    0.233620
    44  O   -0.246124
    45  O   -0.347238
    46  C    0.146318
    47  C    0.277234
    48  C   -0.158736
    49  C   -0.210889
    50  C    0.057227
    51  C   -0.000722
    52  C   -0.029576
    53  C    0.020671
    54  C   -0.190882
    55  C   -0.021759
    56  C    0.068683
    57  C   -0.093219
    58  C    0.036877
    59  C   -0.186016
    60  C    0.002528
    61  C    0.086351
    62  C   -0.102165
    63  C    0.034558
    64  C   -0.178596
    65  C   -0.013004
    66  C   -0.018860
    67  H   -0.000288
    68  H   -0.042566
    69  H   -0.001829
    70  H    0.042369
    71  H    0.048483
    72  H    0.047422
    73  H    0.031670
    74  H    0.023341
    75  H    0.041493
    76  H    0.027351
    77  H    0.068540
    78  H    0.060247
    79  H    0.040930
    80  H    0.066943
    81  H    0.047312
    82  H    0.055751
    83  H    0.072619
    84  H    0.045051
    85  H    0.042732
    86  H    0.040531
    87  H    0.040560
    88  H    0.052120
    89  H    0.043089
    90  H    0.032073
    91  H    0.039965
    92  H    0.031644
    93  H    0.044489
    94  H    0.021378
    95  H    0.062106
    96  H    0.038265
    97  H    0.053424
    98  H    0.052711
    99  H    0.055147
   100  H    0.041386
   101  H    0.054338
   102  H    0.077091
   103  H    0.032627
   104  H    0.012291
   105  H    0.036419
   106  H    0.054659
   107  H    0.030957
   108  H    0.009909
   109  H    0.028721
   110  H    0.029331
   111  H    0.027224
   112  H    0.022901
   113  H    0.001772
   114  H    0.021214
   115  H    0.020690
   116  H    0.026143
   117  H    0.027634
   118  H    0.022314
   119  H    0.011735
   120  H    0.005421
   121  H    0.004835
   122  H    0.013836
   123  H    0.008648
   124  H    0.021424
   125  H    0.024573
   126  H    0.020568
   127  H    0.017919
   128  H    0.025214
   129  H    0.017065
   130  H    0.014380
   131  H    0.013174
   132  H    0.010345
   133  H    0.024686
   134  H    0.018491
   135  H    0.029242
   136  H    0.031630
   137  H    0.023164
   138  H    0.025516
   139  H    0.006484
   140  H    0.031591
 Sum of Mulliken charges =  -0.00000

 Dipole moment (field-independent basis, Debye):
    X=             -1.2433    Y=              6.8758    Z=              1.4802  Tot=              7.1424
 Quadrupole moment (field-independent basis, Debye-Ang):
   XX=           -398.5130   YY=           -427.0541   ZZ=           -393.2433
   XY=            -51.3464   XZ=            -22.8874   YZ=            -32.7922

 Normal termination of Gaussian 16 at Wed May  4 06:19:07 2022.
