 Gaussian 16, Revision A.03,
 Gaussian 16:  ES64L-G16RevA.03 25-Dec-2016

 --------------------
 #p ZINDO=(nstates=5)
 --------------------

 ------------------------------
 step_1401_chromophore_26 ZINDO
 ------------------------------
 Symbolic Z-matrix:
 Charge =  0 Multiplicity = 1

                         Standard orientation:
 ---------------------------------------------------------------------
 Center     Atomic      Atomic             Coordinates (Angstroms)
 Number     Number       Type             X           Y           Z
 ---------------------------------------------------------------------
      1         12           0       -3.726470    1.237750    0.358513
      2          6           0       -4.700058   -2.031463   -0.091909
      3          6           0       -1.854376    0.294244    3.161054
      4          6           0       -2.787781    4.319763    0.754097
      5          6           0       -5.072256    1.939194   -2.822607
      6          7           0       -3.122437   -0.697781    1.216324
      7          6           0       -3.781397   -1.891937    0.885563
      8          6           0       -3.445930   -2.987810    1.900257
      9          6           0       -2.712078   -2.165340    3.062819
     10          6           0       -2.566631   -0.773302    2.461106
     11          6           0       -3.453114   -2.114829    4.384661
     12          6           0       -2.664069   -4.266288    1.372206
     13          6           0       -1.756750   -4.210479    0.160934
     14          6           0       -0.369995   -4.906047    0.196076
     15          8           0       -0.133724   -6.098688    0.070825
     16          8           0        0.606598   -3.950434    0.383267
     17          7           0       -2.378883    2.192792    1.674344
     18          6           0       -1.774904    1.628340    2.756291
     19          6           0       -1.000264    2.617909    3.448144
     20          6           0       -1.321667    3.845983    2.807850
     21          6           0       -2.167202    3.512048    1.738293
     22          6           0       -0.089114    2.359461    4.633574
     23          6           0       -0.740581    5.176566    3.186238
     24          8           0        0.153034    5.359658    4.049238
     25          6           0       -1.030284    6.374480    2.378733
     26          7           0       -3.736179    2.878271   -0.968050
     27          6           0       -3.515844    4.098055   -0.472171
     28          6           0       -4.074999    5.228958   -1.318548
     29          6           0       -4.772374    4.454144   -2.543426
     30          6           0       -4.468593    2.983153   -2.118490
     31          6           0       -5.065454    6.076576   -0.429885
     32          6           0       -4.252905    4.792690   -3.933007
     33          6           0       -5.225286    5.695077   -4.738648
     34          7           0       -4.665125    0.174526   -1.182860
     35          6           0       -5.294204    0.638804   -2.312683
     36          6           0       -6.064157   -0.419744   -2.881715
     37          6           0       -5.885618   -1.477776   -2.017592
     38          6           0       -5.016467   -1.063717   -1.020619
     39          6           0       -6.980704   -0.334954   -4.082130
     40          6           0       -6.300815   -2.840624   -1.758289
     41          8           0       -6.970423   -3.611468   -2.403333
     42          6           0       -5.554736   -3.300211   -0.464119
     43          6           0       -6.547600   -3.616127    0.600110
     44          8           0       -6.694774   -4.725825    1.083606
     45          8           0       -7.106167   -2.474266    1.083606
     46          6           0       -7.960550   -2.677080    2.225270
     47          6           0        1.970523   -4.495785    0.381484
     48          6           0        2.952548   -3.730208   -0.564340
     49          6           0        2.859893   -3.430147   -1.871013
     50          6           0        1.695677   -3.545902   -2.826090
     51          6           0        4.146086   -2.954747   -2.576811
     52          6           0        4.337362   -1.463159   -2.618366
     53          6           0        5.746231   -0.957558   -2.236644
     54          6           0        5.765736    0.067074   -1.137357
     55          6           0        5.158131    1.436077   -1.639689
     56          6           0        7.139873    0.303947   -0.473131
     57          6           0        7.107833    0.043471    1.035528
     58          6           0        8.225570   -0.730135    1.643537
     59          6           0        9.494441    0.099481    1.687283
     60          6           0        9.916442    0.317787    3.138317
     61          6           0       10.636648   -0.597844    0.826267
     62          6           0       11.250897    0.427852   -0.069828
     63          6           0       12.734958    0.198962   -0.393911
     64          6           0       13.162238    0.971648   -1.640116
     65          6           0       13.103266    0.116882   -2.938781
     66          6           0       14.501081    1.725322   -1.401553
     67          1           0       -1.383463    0.133325    4.132579
     68          1           0       -2.610819    5.386634    0.908149
     69          1           0       -5.573894    2.275259   -3.732511
     70          1           0       -4.398031   -3.337115    2.299680
     71          1           0       -1.789706   -2.685571    3.322388
     72          1           0       -3.667050   -1.145736    4.834085
     73          1           0       -2.953868   -2.754196    5.113642
     74          1           0       -4.415371   -2.625729    4.356934
     75          1           0       -3.355641   -5.094669    1.223690
     76          1           0       -2.136554   -4.764833    2.185775
     77          1           0       -1.557570   -3.163924   -0.071394
     78          1           0       -2.299559   -4.726871   -0.630133
     79          1           0       -0.560897    1.708893    5.369484
     80          1           0        0.383278    3.163300    5.199514
     81          1           0        0.775926    1.793834    4.287719
     82          1           0       -2.061075    6.705022    2.506645
     83          1           0       -0.691643    6.211158    1.355844
     84          1           0       -0.501656    7.225415    2.810258
     85          1           0       -3.252245    5.833861   -1.699731
     86          1           0       -5.849299    4.600519   -2.471623
     87          1           0       -4.450478    6.822082    0.075015
     88          1           0       -5.595965    5.478770    0.311324
     89          1           0       -5.717800    6.651527   -1.086147
     90          1           0       -4.212776    3.811827   -4.407045
     91          1           0       -3.273016    5.242468   -4.095995
     92          1           0       -5.800251    5.180426   -5.508083
     93          1           0       -4.679840    6.526391   -5.185314
     94          1           0       -6.083955    6.032202   -4.159630
     95          1           0       -6.927918   -1.365845   -4.431809
     96          1           0       -6.697428    0.464413   -4.767042
     97          1           0       -8.007273   -0.179832   -3.750849
     98          1           0       -5.019134   -4.248734   -0.418732
     99          1           0       -8.291761   -1.704323    2.586976
    100          1           0       -7.442712   -3.206000    3.024356
    101          1           0       -8.792170   -3.337315    1.976983
    102          1           0        2.145533   -5.544603    0.140878
    103          1           0        2.493380   -4.369086    1.329267
    104          1           0        3.981893   -3.557559   -0.251461
    105          1           0        0.794792   -3.621002   -2.215618
    106          1           0        1.746504   -4.369777   -3.537711
    107          1           0        1.730526   -2.632825   -3.419356
    108          1           0        4.075477   -3.171717   -3.642577
    109          1           0        5.060038   -3.480813   -2.299240
    110          1           0        3.632740   -1.012999   -1.919492
    111          1           0        4.121303   -1.095035   -3.620895
    112          1           0        6.311687   -0.584608   -3.089943
    113          1           0        6.246183   -1.836545   -1.830702
    114          1           0        5.019445   -0.231690   -0.400977
    115          1           0        5.968317    2.129243   -1.864432
    116          1           0        4.566519    1.976031   -0.900014
    117          1           0        4.491345    1.282068   -2.487604
    118          1           0        7.412267    1.354947   -0.569339
    119          1           0        7.867108   -0.423158   -0.833735
    120          1           0        6.207440   -0.497960    1.327534
    121          1           0        6.977868    0.990991    1.557564
    122          1           0        8.229036   -1.654681    1.065393
    123          1           0        7.853439   -0.916451    2.651310
    124          1           0        9.228289    1.133770    1.473032
    125          1           0        9.423051   -0.392887    3.802198
    126          1           0        9.670316    1.329214    3.461085
    127          1           0       10.995415    0.278062    3.288691
    128          1           0       10.206751   -1.435283    0.276644
    129          1           0       11.382558   -0.950525    1.539233
    130          1           0       11.320399    1.486945    0.179039
    131          1           0       10.605898    0.518073   -0.943712
    132          1           0       12.818639   -0.861441   -0.632327
    133          1           0       13.280349    0.530483    0.489427
    134          1           0       12.360771    1.682853   -1.838284
    135          1           0       12.914600    0.843039   -3.728788
    136          1           0       12.384175   -0.699056   -2.863212
    137          1           0       14.044333   -0.339960   -3.244590
    138          1           0       14.347009    2.634943   -0.821418
    139          1           0       14.977265    2.155271   -2.282632
    140          1           0       15.378576    1.203225   -1.019704
 ---------------------------------------------------------------------

 SCF Done:  E(RZINDO/S) =  -474.692935604     A.U. after   19 cycles

 Excitation energies and oscillator strengths:

 Excited State   1:      Singlet-A      1.3252 eV  935.61 nm  f=0.5217  <S**2>=0.000
     175 ->178        -0.16058
     176 ->177         0.67279
 This state for optimization and/or second-order correction.
 Total Energy, E(CIS/TDA) =  -474.644236307
 Copying the excited state density for this state as the 1-particle RhoCI density.

 Excited State   2:      Singlet-A      1.9458 eV  637.19 nm  f=0.0339  <S**2>=0.000
     175 ->177         0.53825
     176 ->178         0.42486

 Excited State   3:      Singlet-A      2.7761 eV  446.61 nm  f=0.0007  <S**2>=0.000
     168 ->177         0.31363
     168 ->178        -0.15824
     168 ->179        -0.43071
     168 ->181         0.22671
     168 ->183        -0.12184
     168 ->185         0.20242

 Excited State   4:      Singlet-A      2.9869 eV  415.10 nm  f=0.9921  <S**2>=0.000
     170 ->177         0.13694
     175 ->177        -0.36667
     176 ->178         0.49138
     176 ->180         0.21659

 Excited State   5:      Singlet-A      3.0771 eV  402.93 nm  f=0.0076  <S**2>=0.000
     171 ->177        -0.20905
     171 ->179        -0.23605
     171 ->180         0.10995
     171 ->181        -0.34406
     171 ->184         0.11173
     171 ->185         0.17736
     171 ->187         0.16110
     176 ->179         0.23971
     176 ->180         0.16809
     176 ->181         0.15470

 The electronic state is 1-A.
 Alpha  occ. eigenvalues --   -1.87950  -1.84919  -1.80718  -1.74706  -1.72993
 Alpha  occ. eigenvalues --   -1.71255  -1.67754  -1.62147  -1.59692  -1.58869
 Alpha  occ. eigenvalues --   -1.57149  -1.51040  -1.48697  -1.47880  -1.47533
 Alpha  occ. eigenvalues --   -1.46408  -1.43819  -1.41343  -1.39922  -1.39531
 Alpha  occ. eigenvalues --   -1.37410  -1.34368  -1.32962  -1.32177  -1.28998
 Alpha  occ. eigenvalues --   -1.27943  -1.27384  -1.23599  -1.22385  -1.19692
 Alpha  occ. eigenvalues --   -1.17646  -1.16372  -1.15212  -1.13616  -1.13153
 Alpha  occ. eigenvalues --   -1.12529  -1.12155  -1.10961  -1.05925  -1.04883
 Alpha  occ. eigenvalues --   -1.04132  -1.02025  -1.00839  -0.98554  -0.97025
 Alpha  occ. eigenvalues --   -0.96352  -0.95350  -0.94699  -0.94098  -0.92511
 Alpha  occ. eigenvalues --   -0.91505  -0.89755  -0.89362  -0.87621  -0.86646
 Alpha  occ. eigenvalues --   -0.86473  -0.85449  -0.83747  -0.83398  -0.81501
 Alpha  occ. eigenvalues --   -0.79411  -0.78735  -0.78650  -0.78278  -0.78024
 Alpha  occ. eigenvalues --   -0.77237  -0.76834  -0.74524  -0.74284  -0.73388
 Alpha  occ. eigenvalues --   -0.72995  -0.72152  -0.71600  -0.71233  -0.71028
 Alpha  occ. eigenvalues --   -0.70581  -0.70057  -0.69589  -0.68677  -0.68237
 Alpha  occ. eigenvalues --   -0.67205  -0.66978  -0.66601  -0.66489  -0.65901
 Alpha  occ. eigenvalues --   -0.65571  -0.64984  -0.64829  -0.63585  -0.63434
 Alpha  occ. eigenvalues --   -0.62890  -0.62841  -0.62380  -0.61741  -0.61446
 Alpha  occ. eigenvalues --   -0.61320  -0.61237  -0.60725  -0.60620  -0.60301
 Alpha  occ. eigenvalues --   -0.59972  -0.58905  -0.58791  -0.58669  -0.58318
 Alpha  occ. eigenvalues --   -0.58162  -0.57447  -0.56598  -0.56488  -0.56204
 Alpha  occ. eigenvalues --   -0.56028  -0.55619  -0.55447  -0.55305  -0.55203
 Alpha  occ. eigenvalues --   -0.55026  -0.54182  -0.53824  -0.53474  -0.53381
 Alpha  occ. eigenvalues --   -0.53070  -0.52867  -0.52443  -0.52122  -0.51534
 Alpha  occ. eigenvalues --   -0.51306  -0.51258  -0.51045  -0.50838  -0.50473
 Alpha  occ. eigenvalues --   -0.50344  -0.50085  -0.49902  -0.49083  -0.48782
 Alpha  occ. eigenvalues --   -0.48710  -0.48486  -0.48360  -0.48123  -0.47963
 Alpha  occ. eigenvalues --   -0.47459  -0.47335  -0.46957  -0.46888  -0.46423
 Alpha  occ. eigenvalues --   -0.46163  -0.46001  -0.45471  -0.45399  -0.45296
 Alpha  occ. eigenvalues --   -0.45202  -0.45134  -0.44864  -0.44646  -0.44301
 Alpha  occ. eigenvalues --   -0.43610  -0.43162  -0.43027  -0.42345  -0.42120
 Alpha  occ. eigenvalues --   -0.42042  -0.41428  -0.40692  -0.39808  -0.39118
 Alpha  occ. eigenvalues --   -0.38487  -0.37337  -0.36128  -0.35833  -0.34673
 Alpha  occ. eigenvalues --   -0.34411  -0.33063  -0.32487  -0.32162  -0.27576
 Alpha  occ. eigenvalues --   -0.22494
 Alpha virt. eigenvalues --   -0.08874  -0.02626  -0.01132   0.00567   0.00853
 Alpha virt. eigenvalues --    0.01707   0.02205   0.02747   0.03899   0.05007
 Alpha virt. eigenvalues --    0.05891   0.06226   0.06934   0.07127   0.07421

 Mulliken charges:
               1
     1  Mg   0.440733
     2  C   -0.023560
     3  C   -0.093322
     4  C   -0.119491
     5  C   -0.059097
     6  N   -0.286584
     7  C    0.084200
     8  C   -0.003441
     9  C    0.008486
    10  C    0.183182
    11  C   -0.050775
    12  C   -0.022872
    13  C    0.011237
    14  C    0.465807
    15  O   -0.507982
    16  O   -0.257275
    17  N   -0.344018
    18  C    0.143301
    19  C    0.066257
    20  C   -0.035192
    21  C    0.167108
    22  C   -0.035696
    23  C    0.327406
    24  O   -0.533722
    25  C   -0.026339
    26  N   -0.261623
    27  C    0.180307
    28  C   -0.000016
    29  C    0.001320
    30  C    0.069911
    31  C   -0.048432
    32  C   -0.028635
    33  C   -0.066223
    34  N   -0.310045
    35  C    0.055008
    36  C    0.004810
    37  C   -0.067034
    38  C    0.111122
    39  C   -0.046733
    40  C    0.333996
    41  O   -0.517051
    42  C    0.036537
    43  C    0.487690
    44  O   -0.523659
    45  O   -0.265082
    46  C    0.076666
    47  C    0.102288
    48  C   -0.104652
    49  C    0.002620
    50  C   -0.039506
    51  C   -0.026504
    52  C   -0.027426
    53  C   -0.028710
    54  C   -0.011218
    55  C   -0.066309
    56  C   -0.035122
    57  C   -0.038014
    58  C   -0.032360
    59  C   -0.019298
    60  C   -0.060633
    61  C   -0.025101
    62  C   -0.040723
    63  C   -0.034966
    64  C   -0.006343
    65  C   -0.058385
    66  C   -0.060875
    67  H    0.038830
    68  H    0.010720
    69  H    0.027893
    70  H    0.035854
    71  H    0.039380
    72  H    0.027000
    73  H    0.015591
    74  H    0.018265
    75  H    0.027646
    76  H    0.021570
    77  H    0.036654
    78  H    0.044273
    79  H    0.025335
    80  H    0.049043
    81  H    0.029837
    82  H    0.035448
    83  H    0.046163
    84  H    0.030154
    85  H    0.037944
    86  H    0.036723
    87  H    0.015837
    88  H    0.035207
    89  H    0.022183
    90  H    0.021456
    91  H    0.030616
    92  H    0.018514
    93  H    0.021178
    94  H    0.016630
    95  H    0.038615
    96  H    0.028281
    97  H    0.031010
    98  H    0.067184
    99  H    0.029633
   100  H    0.037313
   101  H    0.046895
   102  H    0.065789
   103  H    0.032411
   104  H    0.027913
   105  H    0.023589
   106  H    0.037121
   107  H    0.024598
   108  H    0.007587
   109  H    0.025131
   110  H    0.019381
   111  H    0.016313
   112  H    0.021240
   113  H    0.010090
   114  H    0.019749
   115  H    0.016916
   116  H    0.013258
   117  H    0.017395
   118  H    0.027641
   119  H    0.023969
   120  H    0.002503
   121  H    0.008416
   122  H    0.022737
   123  H    0.013318
   124  H    0.031812
   125  H    0.020068
   126  H    0.011193
   127  H    0.012398
   128  H    0.028572
   129  H    0.021269
   130  H    0.019737
   131  H    0.010729
   132  H    0.018199
   133  H    0.024866
   134  H    0.018706
   135  H    0.016066
   136  H    0.024185
   137  H    0.015338
   138  H    0.014288
   139  H    0.005686
   140  H    0.025004
 Sum of Mulliken charges =  -0.00000

 Dipole moment (field-independent basis, Debye):
    X=             -0.4220    Y=              9.6336    Z=              3.5958  Tot=             10.2914
 N-N= 4.488828984382D+03 E-N= 0.000000000000D+00  KE=-9.651349741773D+03
 Leave Link  601 at Wed May  4 06:32:50 2022, MaxMem=  6710886400 cpu:               0.8 elap:               0.1
 (Enter /sw/apps/gaussian-16.0/g16/l9999.exe)
 1\1\GINC-BP1-COMPUTE069\SP\RZINDO CIS\STO-3G\C55H74Mg1N4O6\OF15641\04-
 May-2022\0\\#p ZINDO=(nstates=5)\\step_1401_chromophore_26 ZINDO\\0,1\
 Mg,0,-9.409,18.685,42.498\C,0,-6.039,17.996,42.581\C,0,-8.705,22.05,41
 .842\C,0,-12.591,19.317,42.389\C,0,-9.986,15.208,42.483\N,0,-7.581,19.
 793,41.971\C,0,-6.302,19.263,42.201\C,0,-5.244,20.367,42.131\C,0,-6.13
 7,21.697,42.117\C,0,-7.556,21.158,41.987\C,0,-5.998,22.581,43.341\C,0,
 -4.151,20.268,40.982\C,0,-4.42,19.55,39.676\C,0,-3.986,20.193,38.332\O

 Normal termination of Gaussian 16 at Wed May  4 06:32:51 2022.
