 Gaussian 16, Revision A.03,
 Gaussian 16:  ES64L-G16RevA.03 25-Dec-2016

 ------------------------------
 #p blyp/Def2SVP td=(nstates=5)
 ------------------------------

 ---------------------------------------------------
 step_1251_chromophore_20 TDDFT with blyp functional
 ---------------------------------------------------
 Symbolic Z-matrix:
 Charge =  0 Multiplicity = 1

                         Standard orientation:
 ---------------------------------------------------------------------
 Center     Atomic      Atomic             Coordinates (Angstroms)
 Number     Number       Type             X           Y           Z
 ---------------------------------------------------------------------
      1         12           0        4.122925    1.449428   -0.591720
      2          6           0        3.827162   -2.067384   -0.816581
      3          6           0        1.976871    1.689113   -3.165171
      4          6           0        3.780249    4.592575    0.231526
      5          6           0        6.060544    0.858536    2.451082
      6          7           0        2.877584   -0.068993   -1.719351
      7          6           0        3.000273   -1.444738   -1.728130
      8          6           0        2.248140   -2.072551   -2.908457
      9          6           0        1.977142   -0.798762   -3.808129
     10          6           0        2.252732    0.351210   -2.842510
     11          6           0        2.559732   -0.853504   -5.243203
     12          6           0        0.986429   -2.920470   -2.460704
     13          6           0        0.588412   -4.070875   -3.353218
     14          6           0       -0.269062   -5.186978   -2.672735
     15          8           0       -0.015027   -6.364138   -2.750014
     16          8           0       -1.390372   -4.669874   -2.154909
     17          7           0        3.074104    2.958433   -1.420675
     18          6           0        2.215752    2.901165   -2.454463
     19          6           0        1.623729    4.181381   -2.707756
     20          6           0        2.186652    5.115013   -1.775678
     21          6           0        3.051981    4.206455   -0.910331
     22          6           0        0.431296    4.399534   -3.728432
     23          6           0        1.805350    6.583019   -1.625094
     24          8           0        0.983676    7.165184   -2.346041
     25          6           0        2.566681    7.439561   -0.531041
     26          7           0        4.691438    2.508916    1.227739
     27          6           0        4.529023    3.845617    1.170101
     28          6           0        5.424361    4.486469    2.279406
     29          6           0        6.197227    3.287068    2.933426
     30          6           0        5.630991    2.144974    2.171737
     31          6           0        6.396176    5.560494    1.741379
     32          6           0        6.077593    3.234052    4.457904
     33          6           0        7.387434    3.213258    5.374104
     34          7           0        4.965476   -0.231232    0.511357
     35          6           0        5.752057   -0.335226    1.709012
     36          6           0        6.042192   -1.730871    1.912781
     37          6           0        5.344173   -2.411905    0.942071
     38          6           0        4.667892   -1.459629    0.134719
     39          6           0        6.872351   -2.376874    3.054073
     40          6           0        5.117163   -3.773854    0.446021
     41          8           0        5.621624   -4.859264    0.716814
     42          6           0        4.013311   -3.614819   -0.609822
     43          6           0        2.871206   -4.387872    0.032372
     44          8           0        2.172701   -4.006874    0.904936
     45          8           0        2.847413   -5.609738   -0.612261
     46          6           0        2.070201   -6.739544   -0.076264
     47          6           0       -2.220228   -5.575971   -1.312328
     48          6           0       -3.414371   -4.765880   -0.914700
     49          6           0       -4.287716   -5.011780    0.125001
     50          6           0       -4.316915   -6.215405    1.079856
     51          6           0       -5.379250   -3.976796    0.518683
     52          6           0       -5.061084   -3.271414    1.873814
     53          6           0       -6.152350   -3.556761    2.914122
     54          6           0       -6.610154   -2.166128    3.487697
     55          6           0       -6.677477   -2.312408    5.064440
     56          6           0       -7.938241   -1.627903    2.948832
     57          6           0       -7.848957   -0.128091    2.742277
     58          6           0       -7.214939    0.291042    1.394234
     59          6           0       -8.165407    1.159087    0.532623
     60          6           0       -7.882551    0.966323   -1.017250
     61          6           0       -8.183598    2.646201    1.077573
     62          6           0       -9.548565    3.323189    1.166191
     63          6           0       -9.622022    4.722242    0.488003
     64          6           0      -10.226689    4.561059   -0.951994
     65          6           0       -9.285955    5.060022   -2.073102
     66          6           0      -11.650168    5.225599   -1.092539
     67          1           0        1.480333    1.890430   -4.116269
     68          1           0        3.811862    5.614743    0.613588
     69          1           0        6.710641    0.649933    3.303851
     70          1           0        2.935890   -2.702541   -3.473496
     71          1           0        0.903044   -0.684600   -3.952921
     72          1           0        3.402066   -1.542989   -5.303109
     73          1           0        3.082275    0.079884   -5.450432
     74          1           0        1.836641   -1.046530   -6.035487
     75          1           0        0.111441   -2.271346   -2.471246
     76          1           0        1.162898   -3.283534   -1.448381
     77          1           0        1.592353   -4.469511   -3.500301
     78          1           0        0.081871   -3.919486   -4.306577
     79          1           0       -0.491348    4.533731   -3.165281
     80          1           0        0.437885    3.549545   -4.409799
     81          1           0        0.585689    5.230173   -4.418286
     82          1           0        3.628441    7.255667   -0.691862
     83          1           0        2.232717    7.144881    0.464819
     84          1           0        2.386957    8.499771   -0.709503
     85          1           0        4.644365    4.945503    2.885707
     86          1           0        7.223095    3.414504    2.587684
     87          1           0        5.872278    6.496791    1.934260
     88          1           0        6.615874    5.291376    0.708554
     89          1           0        7.241966    5.607219    2.428012
     90          1           0        5.633549    2.290939    4.775813
     91          1           0        5.359822    3.955846    4.845011
     92          1           0        8.260451    3.298588    4.728160
     93          1           0        7.548105    2.317792    5.975066
     94          1           0        7.377738    4.053852    6.067476
     95          1           0        7.199551   -1.554580    3.691119
     96          1           0        7.832540   -2.819556    2.791463
     97          1           0        6.183104   -3.099393    3.490986
     98          1           0        4.314975   -4.071061   -1.553363
     99          1           0        2.574258   -7.277176    0.727279
    100          1           0        1.875875   -7.506030   -0.826345
    101          1           0        1.127842   -6.320003    0.274820
    102          1           0       -1.617377   -5.921516   -0.471999
    103          1           0       -2.630933   -6.277551   -2.038550
    104          1           0       -3.519965   -3.795100   -1.399888
    105          1           0       -5.349385   -6.493000    1.290788
    106          1           0       -3.760041   -5.836169    1.936528
    107          1           0       -3.781040   -7.045177    0.619636
    108          1           0       -6.365998   -4.402588    0.334134
    109          1           0       -5.429822   -3.109210   -0.139495
    110          1           0       -4.732139   -2.252983    1.667284
    111          1           0       -4.180770   -3.657981    2.386222
    112          1           0       -5.782757   -4.213600    3.701693
    113          1           0       -7.021688   -3.919883    2.365813
    114          1           0       -5.852081   -1.414097    3.270643
    115          1           0       -6.656379   -3.375648    5.304436
    116          1           0       -7.537359   -1.805259    5.499943
    117          1           0       -5.853312   -1.806574    5.568792
    118          1           0       -8.823518   -1.820040    3.555996
    119          1           0       -8.030128   -2.152633    1.997436
    120          1           0       -7.131654    0.349059    3.409869
    121          1           0       -8.730935    0.404223    3.097533
    122          1           0       -7.097332   -0.703162    0.962718
    123          1           0       -6.229811    0.738589    1.526161
    124          1           0       -9.124793    0.653144    0.635158
    125          1           0       -6.998141    0.357822   -1.206405
    126          1           0       -7.905927    1.879052   -1.612147
    127          1           0       -8.661620    0.383560   -1.510155
    128          1           0       -7.612990    3.215307    0.344507
    129          1           0       -7.709966    2.667726    2.059191
    130          1           0       -9.672073    3.455760    2.241177
    131          1           0      -10.413071    2.690601    0.964902
    132          1           0       -8.584875    5.019533    0.334935
    133          1           0      -10.276702    5.361270    1.081339
    134          1           0      -10.360868    3.494846   -1.139405
    135          1           0       -8.679818    5.868436   -1.663543
    136          1           0       -9.814476    5.571781   -2.876403
    137          1           0       -8.723355    4.248180   -2.534448
    138          1           0      -12.308087    4.439291   -0.721766
    139          1           0      -11.879798    5.639753   -2.074388
    140          1           0      -11.892188    6.066850   -0.442881
 ---------------------------------------------------------------------

 SCF Done:  E(RB-LYP) =  -3007.34444921     A.U. after   21 cycles

 Excitation energies and oscillator strengths:

 Excited State   1:      Singlet-A      1.8159 eV  682.75 nm  f=0.2887  <S**2>=0.000
     244 -> 247        0.12026
     245 -> 248       -0.17807
     246 -> 247        0.67221
     246 <- 247       -0.14356
 This state for optimization and/or second-order correction.
 Total Energy, E(TD-HF/TD-DFT) =  -3007.27771463
 Copying the excited state density for this state as the 1-particle RhoCI density.

 Excited State   2:      Singlet-A      1.8705 eV  662.84 nm  f=0.0253  <S**2>=0.000
     244 -> 247        0.66559
     245 -> 247       -0.17321
     246 -> 247       -0.13968

 Excited State   3:      Singlet-A      1.9057 eV  650.61 nm  f=0.0006  <S**2>=0.000
     243 -> 247        0.69561

 Excited State   4:      Singlet-A      2.0126 eV  616.05 nm  f=0.0871  <S**2>=0.000
     243 -> 247        0.10537
     244 -> 247        0.18101
     245 -> 247        0.61857
     246 -> 248        0.20658
     246 -> 249       -0.10877

 Excited State   5:      Singlet-A      2.1630 eV  573.21 nm  f=0.0001  <S**2>=0.000
     242 -> 247        0.70693

 The electronic state is 1-A.
 Alpha  occ. eigenvalues --  -46.28619 -18.82090 -18.81139 -18.77171 -18.76360
 Alpha  occ. eigenvalues --  -18.75941 -18.75670 -14.03416 -14.03225 -14.01982
 Alpha  occ. eigenvalues --  -14.00793 -10.03847 -10.03685 -10.00513  -9.99440
 Alpha  occ. eigenvalues --   -9.98542  -9.97157  -9.96921  -9.96905  -9.96775
 Alpha  occ. eigenvalues --   -9.96521  -9.96371  -9.95877  -9.95814  -9.94498
 Alpha  occ. eigenvalues --   -9.94304  -9.94277  -9.94229  -9.93939  -9.93904
 Alpha  occ. eigenvalues --   -9.93546  -9.93535  -9.93446  -9.93420  -9.93341
 Alpha  occ. eigenvalues --   -9.93194  -9.93176  -9.93106  -9.93101  -9.93034
 Alpha  occ. eigenvalues --   -9.93011  -9.92994  -9.92926  -9.92593  -9.92548
 Alpha  occ. eigenvalues --   -9.92544  -9.92534  -9.92069  -9.92032  -9.91920
 Alpha  occ. eigenvalues --   -9.91844  -9.91817  -9.91609  -9.91571  -9.91246
 Alpha  occ. eigenvalues --   -9.91239  -9.91161  -9.91041  -9.90954  -9.90768
 Alpha  occ. eigenvalues --   -9.90678  -9.90657  -9.90607  -9.90568  -9.90487
 Alpha  occ. eigenvalues --   -9.90359  -2.93109  -1.73494  -1.73041  -1.72804
 Alpha  occ. eigenvalues --   -0.98475  -0.97724  -0.91008  -0.90802  -0.90657
 Alpha  occ. eigenvalues --   -0.90207  -0.87228  -0.86165  -0.86049  -0.85063
 Alpha  occ. eigenvalues --   -0.74832  -0.73553  -0.72861  -0.72800  -0.72367
 Alpha  occ. eigenvalues --   -0.71869  -0.71699  -0.70966  -0.70300  -0.69903
 Alpha  occ. eigenvalues --   -0.69322  -0.69235  -0.68217  -0.67365  -0.67244
 Alpha  occ. eigenvalues --   -0.66489  -0.65473  -0.65148  -0.64992  -0.64193
 Alpha  occ. eigenvalues --   -0.63703  -0.62363  -0.62322  -0.61369  -0.60465
 Alpha  occ. eigenvalues --   -0.60199  -0.60051  -0.59723  -0.59490  -0.58722
 Alpha  occ. eigenvalues --   -0.58216  -0.57669  -0.57074  -0.55476  -0.55167
 Alpha  occ. eigenvalues --   -0.53938  -0.53669  -0.53032  -0.52316  -0.52114
 Alpha  occ. eigenvalues --   -0.51578  -0.51446  -0.50988  -0.50530  -0.49907
 Alpha  occ. eigenvalues --   -0.49619  -0.48958  -0.48319  -0.48122  -0.46423
 Alpha  occ. eigenvalues --   -0.46336  -0.46055  -0.45648  -0.44935  -0.44387
 Alpha  occ. eigenvalues --   -0.44013  -0.43929  -0.43111  -0.42684  -0.42369
 Alpha  occ. eigenvalues --   -0.42110  -0.41791  -0.41721  -0.41510  -0.40970
 Alpha  occ. eigenvalues --   -0.40610  -0.40478  -0.40432  -0.40027  -0.39840
 Alpha  occ. eigenvalues --   -0.39565  -0.39348  -0.39277  -0.39100  -0.38982
 Alpha  occ. eigenvalues --   -0.38726  -0.38623  -0.38511  -0.38338  -0.38148
 Alpha  occ. eigenvalues --   -0.38026  -0.37722  -0.37487  -0.37266  -0.37160
 Alpha  occ. eigenvalues --   -0.37103  -0.36929  -0.36858  -0.36738  -0.36394
 Alpha  occ. eigenvalues --   -0.36237  -0.36101  -0.35830  -0.35745  -0.35591
 Alpha  occ. eigenvalues --   -0.35251  -0.35188  -0.35018  -0.34728  -0.34713
 Alpha  occ. eigenvalues --   -0.34586  -0.34487  -0.34484  -0.34274  -0.33955
 Alpha  occ. eigenvalues --   -0.33739  -0.33633  -0.33593  -0.33315  -0.33214
 Alpha  occ. eigenvalues --   -0.33127  -0.32864  -0.32604  -0.32447  -0.32385
 Alpha  occ. eigenvalues --   -0.32075  -0.32039  -0.31969  -0.31693  -0.31243
 Alpha  occ. eigenvalues --   -0.31045  -0.30826  -0.30791  -0.30744  -0.30659
 Alpha  occ. eigenvalues --   -0.30553  -0.30462  -0.30363  -0.30071  -0.29770
 Alpha  occ. eigenvalues --   -0.29510  -0.29291  -0.29119  -0.28996  -0.28679
 Alpha  occ. eigenvalues --   -0.28416  -0.28242  -0.28138  -0.28025  -0.27544
 Alpha  occ. eigenvalues --   -0.27507  -0.27457  -0.26880  -0.26367  -0.26112
 Alpha  occ. eigenvalues --   -0.25954  -0.25851  -0.25639  -0.25530  -0.25218
 Alpha  occ. eigenvalues --   -0.24772  -0.24663  -0.23950  -0.23918  -0.23734
 Alpha  occ. eigenvalues --   -0.23477  -0.22789  -0.22077  -0.21351  -0.21218
 Alpha  occ. eigenvalues --   -0.20535  -0.19780  -0.18749  -0.18620  -0.17462
 Alpha  occ. eigenvalues --   -0.16157
 Alpha virt. eigenvalues --   -0.11832  -0.07190  -0.06104  -0.04822  -0.03980
 Alpha virt. eigenvalues --   -0.02215  -0.01785  -0.01338  -0.01208   0.00401
 Alpha virt. eigenvalues --    0.01499   0.01825   0.02338   0.02404   0.02623

 Mulliken charges:
               1
     1  Mg   0.696026
     2  C    0.016952
     3  C   -0.084013
     4  C   -0.031974
     5  C   -0.053291
     6  N   -0.203138
     7  C   -0.106662
     8  C    0.026966
     9  C    0.023745
    10  C    0.029405
    11  C    0.143783
    12  C    0.115097
    13  C    0.128049
    14  C    0.042175
    15  O   -0.182400
    16  O   -0.273266
    17  N   -0.287000
    18  C    0.124939
    19  C   -0.139036
    20  C    0.018792
    21  C    0.171671
    22  C    0.182567
    23  C   -0.072389
    24  O   -0.167247
    25  C    0.106279
    26  N   -0.211309
    27  C   -0.069158
    28  C   -0.049411
    29  C    0.114610
    30  C    0.009757
    31  C    0.145009
    32  C    0.095729
    33  C    0.038236
    34  N   -0.238874
    35  C    0.066184
    36  C   -0.176163
    37  C    0.069321
    38  C    0.113781
    39  C    0.168720
    40  C   -0.054317
    41  O   -0.133999
    42  C    0.045348
    43  C    0.120694
    44  O   -0.133655
    45  O   -0.287769
    46  C    0.212922
    47  C    0.346666
    48  C   -0.121125
    49  C   -0.184590
    50  C    0.154135
    51  C    0.111554
    52  C    0.032355
    53  C    0.135633
    54  C   -0.122716
    55  C    0.102734
    56  C    0.152650
    57  C    0.033361
    58  C    0.075510
    59  C   -0.048136
    60  C    0.093477
    61  C    0.124432
    62  C    0.049370
    63  C    0.135758
    64  C   -0.092799
    65  C    0.090328
    66  C    0.076510
    67  H   -0.063884
    68  H   -0.083075
    69  H   -0.063760
    70  H   -0.026248
    71  H   -0.031847
    72  H   -0.014628
    73  H   -0.020882
    74  H    0.006147
    75  H   -0.021493
    76  H    0.003290
    77  H   -0.019412
    78  H    0.009989
    79  H    0.024819
    80  H   -0.032709
    81  H    0.003250
    82  H    0.014215
    83  H    0.022264
    84  H   -0.009734
    85  H   -0.017371
    86  H   -0.023485
    87  H   -0.008728
    88  H    0.010551
    89  H   -0.006821
    90  H   -0.018941
    91  H   -0.023011
    92  H   -0.013378
    93  H    0.000014
    94  H   -0.004706
    95  H   -0.031403
    96  H    0.008445
    97  H    0.028035
    98  H   -0.006782
    99  H    0.015317
   100  H    0.028640
   101  H    0.005635
   102  H    0.025142
   103  H    0.008910
   104  H   -0.026063
   105  H    0.004348
   106  H    0.012093
   107  H   -0.008283
   108  H   -0.013052
   109  H   -0.044270
   110  H   -0.013417
   111  H   -0.025464
   112  H   -0.019145
   113  H   -0.026176
   114  H   -0.024745
   115  H   -0.013746
   116  H   -0.027912
   117  H   -0.023237
   118  H   -0.032074
   119  H   -0.043352
   120  H   -0.041562
   121  H   -0.038887
   122  H   -0.042542
   123  H   -0.022210
   124  H   -0.038190
   125  H   -0.018026
   126  H   -0.019973
   127  H   -0.030040
   128  H   -0.028061
   129  H   -0.023898
   130  H   -0.051794
   131  H   -0.029139
   132  H   -0.026649
   133  H   -0.026233
   134  H   -0.026590
   135  H   -0.018367
   136  H   -0.032385
   137  H   -0.002181
   138  H   -0.015380
   139  H   -0.010842
   140  H   -0.021714
 Sum of Mulliken charges =  -0.00000

 Dipole moment (field-independent basis, Debye):
    X=              0.4923    Y=              1.9808    Z=              1.3165  Tot=              2.4288
 Quadrupole moment (field-independent basis, Debye-Ang):
   XX=           -381.3940   YY=           -439.9488   ZZ=           -390.8924
   XY=             42.6625   XZ=              1.9922   YZ=             15.3872

 Normal termination of Gaussian 16 at Wed May  4 02:47:48 2022.
