 Gaussian 16, Revision A.03,
 Gaussian 16:  ES64L-G16RevA.03 25-Dec-2016

 -----------------------------------
 #p cam-b3lyp/Def2SVP td=(nstates=5)
 -----------------------------------

 --------------------------------------------------------
 step_1251_chromophore_20 TDDFT with cam-b3lyp functional
 --------------------------------------------------------
 Symbolic Z-matrix:
 Charge =  0 Multiplicity = 1

                         Standard orientation:
 ---------------------------------------------------------------------
 Center     Atomic      Atomic             Coordinates (Angstroms)
 Number     Number       Type             X           Y           Z
 ---------------------------------------------------------------------
      1         12           0        4.122925    1.449428   -0.591720
      2          6           0        3.827162   -2.067384   -0.816581
      3          6           0        1.976871    1.689113   -3.165171
      4          6           0        3.780249    4.592575    0.231526
      5          6           0        6.060544    0.858536    2.451082
      6          7           0        2.877584   -0.068993   -1.719351
      7          6           0        3.000273   -1.444738   -1.728130
      8          6           0        2.248140   -2.072551   -2.908457
      9          6           0        1.977142   -0.798762   -3.808129
     10          6           0        2.252732    0.351210   -2.842510
     11          6           0        2.559732   -0.853504   -5.243203
     12          6           0        0.986429   -2.920470   -2.460704
     13          6           0        0.588412   -4.070875   -3.353218
     14          6           0       -0.269062   -5.186978   -2.672735
     15          8           0       -0.015027   -6.364138   -2.750014
     16          8           0       -1.390372   -4.669874   -2.154909
     17          7           0        3.074104    2.958433   -1.420675
     18          6           0        2.215752    2.901165   -2.454463
     19          6           0        1.623729    4.181381   -2.707756
     20          6           0        2.186652    5.115013   -1.775678
     21          6           0        3.051981    4.206455   -0.910331
     22          6           0        0.431296    4.399534   -3.728432
     23          6           0        1.805350    6.583019   -1.625094
     24          8           0        0.983676    7.165184   -2.346041
     25          6           0        2.566681    7.439561   -0.531041
     26          7           0        4.691438    2.508916    1.227739
     27          6           0        4.529023    3.845617    1.170101
     28          6           0        5.424361    4.486469    2.279406
     29          6           0        6.197227    3.287068    2.933426
     30          6           0        5.630991    2.144974    2.171737
     31          6           0        6.396176    5.560494    1.741379
     32          6           0        6.077593    3.234052    4.457904
     33          6           0        7.387434    3.213258    5.374104
     34          7           0        4.965476   -0.231232    0.511357
     35          6           0        5.752057   -0.335226    1.709012
     36          6           0        6.042192   -1.730871    1.912781
     37          6           0        5.344173   -2.411905    0.942071
     38          6           0        4.667892   -1.459629    0.134719
     39          6           0        6.872351   -2.376874    3.054073
     40          6           0        5.117163   -3.773854    0.446021
     41          8           0        5.621624   -4.859264    0.716814
     42          6           0        4.013311   -3.614819   -0.609822
     43          6           0        2.871206   -4.387872    0.032372
     44          8           0        2.172701   -4.006874    0.904936
     45          8           0        2.847413   -5.609738   -0.612261
     46          6           0        2.070201   -6.739544   -0.076264
     47          6           0       -2.220228   -5.575971   -1.312328
     48          6           0       -3.414371   -4.765880   -0.914700
     49          6           0       -4.287716   -5.011780    0.125001
     50          6           0       -4.316915   -6.215405    1.079856
     51          6           0       -5.379250   -3.976796    0.518683
     52          6           0       -5.061084   -3.271414    1.873814
     53          6           0       -6.152350   -3.556761    2.914122
     54          6           0       -6.610154   -2.166128    3.487697
     55          6           0       -6.677477   -2.312408    5.064440
     56          6           0       -7.938241   -1.627903    2.948832
     57          6           0       -7.848957   -0.128091    2.742277
     58          6           0       -7.214939    0.291042    1.394234
     59          6           0       -8.165407    1.159087    0.532623
     60          6           0       -7.882551    0.966323   -1.017250
     61          6           0       -8.183598    2.646201    1.077573
     62          6           0       -9.548565    3.323189    1.166191
     63          6           0       -9.622022    4.722242    0.488003
     64          6           0      -10.226689    4.561059   -0.951994
     65          6           0       -9.285955    5.060022   -2.073102
     66          6           0      -11.650168    5.225599   -1.092539
     67          1           0        1.480333    1.890430   -4.116269
     68          1           0        3.811862    5.614743    0.613588
     69          1           0        6.710641    0.649933    3.303851
     70          1           0        2.935890   -2.702541   -3.473496
     71          1           0        0.903044   -0.684600   -3.952921
     72          1           0        3.402066   -1.542989   -5.303109
     73          1           0        3.082275    0.079884   -5.450432
     74          1           0        1.836641   -1.046530   -6.035487
     75          1           0        0.111441   -2.271346   -2.471246
     76          1           0        1.162898   -3.283534   -1.448381
     77          1           0        1.592353   -4.469511   -3.500301
     78          1           0        0.081871   -3.919486   -4.306577
     79          1           0       -0.491348    4.533731   -3.165281
     80          1           0        0.437885    3.549545   -4.409799
     81          1           0        0.585689    5.230173   -4.418286
     82          1           0        3.628441    7.255667   -0.691862
     83          1           0        2.232717    7.144881    0.464819
     84          1           0        2.386957    8.499771   -0.709503
     85          1           0        4.644365    4.945503    2.885707
     86          1           0        7.223095    3.414504    2.587684
     87          1           0        5.872278    6.496791    1.934260
     88          1           0        6.615874    5.291376    0.708554
     89          1           0        7.241966    5.607219    2.428012
     90          1           0        5.633549    2.290939    4.775813
     91          1           0        5.359822    3.955846    4.845011
     92          1           0        8.260451    3.298588    4.728160
     93          1           0        7.548105    2.317792    5.975066
     94          1           0        7.377738    4.053852    6.067476
     95          1           0        7.199551   -1.554580    3.691119
     96          1           0        7.832540   -2.819556    2.791463
     97          1           0        6.183104   -3.099393    3.490986
     98          1           0        4.314975   -4.071061   -1.553363
     99          1           0        2.574258   -7.277176    0.727279
    100          1           0        1.875875   -7.506030   -0.826345
    101          1           0        1.127842   -6.320003    0.274820
    102          1           0       -1.617377   -5.921516   -0.471999
    103          1           0       -2.630933   -6.277551   -2.038550
    104          1           0       -3.519965   -3.795100   -1.399888
    105          1           0       -5.349385   -6.493000    1.290788
    106          1           0       -3.760041   -5.836169    1.936528
    107          1           0       -3.781040   -7.045177    0.619636
    108          1           0       -6.365998   -4.402588    0.334134
    109          1           0       -5.429822   -3.109210   -0.139495
    110          1           0       -4.732139   -2.252983    1.667284
    111          1           0       -4.180770   -3.657981    2.386222
    112          1           0       -5.782757   -4.213600    3.701693
    113          1           0       -7.021688   -3.919883    2.365813
    114          1           0       -5.852081   -1.414097    3.270643
    115          1           0       -6.656379   -3.375648    5.304436
    116          1           0       -7.537359   -1.805259    5.499943
    117          1           0       -5.853312   -1.806574    5.568792
    118          1           0       -8.823518   -1.820040    3.555996
    119          1           0       -8.030128   -2.152633    1.997436
    120          1           0       -7.131654    0.349059    3.409869
    121          1           0       -8.730935    0.404223    3.097533
    122          1           0       -7.097332   -0.703162    0.962718
    123          1           0       -6.229811    0.738589    1.526161
    124          1           0       -9.124793    0.653144    0.635158
    125          1           0       -6.998141    0.357822   -1.206405
    126          1           0       -7.905927    1.879052   -1.612147
    127          1           0       -8.661620    0.383560   -1.510155
    128          1           0       -7.612990    3.215307    0.344507
    129          1           0       -7.709966    2.667726    2.059191
    130          1           0       -9.672073    3.455760    2.241177
    131          1           0      -10.413071    2.690601    0.964902
    132          1           0       -8.584875    5.019533    0.334935
    133          1           0      -10.276702    5.361270    1.081339
    134          1           0      -10.360868    3.494846   -1.139405
    135          1           0       -8.679818    5.868436   -1.663543
    136          1           0       -9.814476    5.571781   -2.876403
    137          1           0       -8.723355    4.248180   -2.534448
    138          1           0      -12.308087    4.439291   -0.721766
    139          1           0      -11.879798    5.639753   -2.074388
    140          1           0      -11.892188    6.066850   -0.442881
 ---------------------------------------------------------------------

 SCF Done:  E(RCAM-B3LYP) =  -3007.13256787     A.U. after   18 cycles

 Excitation energies and oscillator strengths:

 Excited State   1:      Singlet-A      1.7188 eV  721.33 nm  f=0.3872  <S**2>=0.000
     245 -> 248       -0.17360
     246 -> 247        0.68569
     245 <- 248       -0.10404
 This state for optimization and/or second-order correction.
 Total Energy, E(TD-HF/TD-DFT) =  -3007.06940227
 Copying the excited state density for this state as the 1-particle RhoCI density.

 Excited State   2:      Singlet-A      2.2223 eV  557.92 nm  f=0.1166  <S**2>=0.000
     245 -> 247        0.64354
     246 -> 248        0.27519

 Excited State   3:      Singlet-A      3.4010 eV  364.55 nm  f=0.0096  <S**2>=0.000
     243 -> 247        0.65960
     246 -> 248       -0.19705

 Excited State   4:      Singlet-A      3.4766 eV  356.63 nm  f=0.0154  <S**2>=0.000
     240 -> 247        0.22852
     240 -> 248        0.11971
     240 -> 249        0.13899
     240 -> 251       -0.15451
     241 -> 247        0.40105
     241 -> 248        0.10260
     241 -> 249        0.17409
     242 -> 247       -0.32610
     246 -> 248        0.14032

 Excited State   5:      Singlet-A      3.4991 eV  354.33 nm  f=0.0026  <S**2>=0.000
     239 -> 247        0.10761
     240 -> 247        0.11930
     240 -> 249        0.13421
     241 -> 247        0.25877
     241 -> 251       -0.11003
     242 -> 247        0.48455
     242 -> 249       -0.21360
     242 -> 250        0.11762
     242 -> 251       -0.19153

 The electronic state is 1-A.
 Alpha  occ. eigenvalues --  -46.90275 -19.24895 -19.23945 -19.20203 -19.19389
 Alpha  occ. eigenvalues --  -19.19232 -19.18679 -14.42324 -14.42096 -14.40641
 Alpha  occ. eigenvalues --  -14.39077 -10.39179 -10.38820 -10.36027 -10.34571
 Alpha  occ. eigenvalues --  -10.32594 -10.31992 -10.31564 -10.31458 -10.30863
 Alpha  occ. eigenvalues --  -10.30855 -10.30510 -10.30490 -10.29744 -10.29214
 Alpha  occ. eigenvalues --  -10.28580 -10.28345 -10.28325 -10.28285 -10.27915
 Alpha  occ. eigenvalues --  -10.27749 -10.27735 -10.27668 -10.27558 -10.27526
 Alpha  occ. eigenvalues --  -10.27336 -10.27231 -10.27182 -10.26948 -10.26929
 Alpha  occ. eigenvalues --  -10.26891 -10.26881 -10.26687 -10.26646 -10.26405
 Alpha  occ. eigenvalues --  -10.26250 -10.26175 -10.26111 -10.25831 -10.25810
 Alpha  occ. eigenvalues --  -10.25662 -10.25567 -10.25336 -10.25208 -10.24916
 Alpha  occ. eigenvalues --  -10.24906 -10.24845 -10.24651 -10.24631 -10.24401
 Alpha  occ. eigenvalues --  -10.24364 -10.24305 -10.24277 -10.24222 -10.24068
 Alpha  occ. eigenvalues --  -10.23977  -3.18658  -1.93523  -1.93146  -1.92944
 Alpha  occ. eigenvalues --   -1.16885  -1.16275  -1.09241  -1.09218  -1.08648
 Alpha  occ. eigenvalues --   -1.08018  -1.05135  -1.03817  -1.03725  -1.02438
 Alpha  occ. eigenvalues --   -0.91803  -0.90398  -0.89574  -0.89535  -0.89123
 Alpha  occ. eigenvalues --   -0.88586  -0.88381  -0.87561  -0.86809  -0.86400
 Alpha  occ. eigenvalues --   -0.86020  -0.85643  -0.84465  -0.83559  -0.83293
 Alpha  occ. eigenvalues --   -0.82506  -0.81482  -0.81061  -0.80797  -0.80309
 Alpha  occ. eigenvalues --   -0.79455  -0.77898  -0.77817  -0.77143  -0.75839
 Alpha  occ. eigenvalues --   -0.75533  -0.75367  -0.75083  -0.74784  -0.73934
 Alpha  occ. eigenvalues --   -0.73216  -0.72649  -0.71984  -0.70319  -0.69750
 Alpha  occ. eigenvalues --   -0.68606  -0.68327  -0.67527  -0.66682  -0.66176
 Alpha  occ. eigenvalues --   -0.65762  -0.65685  -0.64966  -0.64514  -0.63951
 Alpha  occ. eigenvalues --   -0.63380  -0.62910  -0.62171  -0.61696  -0.60098
 Alpha  occ. eigenvalues --   -0.59881  -0.59510  -0.59100  -0.58270  -0.57802
 Alpha  occ. eigenvalues --   -0.57415  -0.57280  -0.56343  -0.55834  -0.55455
 Alpha  occ. eigenvalues --   -0.55065  -0.54870  -0.54471  -0.54436  -0.54120
 Alpha  occ. eigenvalues --   -0.53743  -0.53239  -0.53069  -0.52790  -0.52579
 Alpha  occ. eigenvalues --   -0.52328  -0.52248  -0.51941  -0.51736  -0.51485
 Alpha  occ. eigenvalues --   -0.51344  -0.51099  -0.51034  -0.50820  -0.50612
 Alpha  occ. eigenvalues --   -0.50324  -0.50179  -0.50023  -0.49556  -0.49363
 Alpha  occ. eigenvalues --   -0.49279  -0.49143  -0.49066  -0.48922  -0.48765
 Alpha  occ. eigenvalues --   -0.48565  -0.48487  -0.48211  -0.48111  -0.47901
 Alpha  occ. eigenvalues --   -0.47699  -0.47373  -0.46888  -0.46736  -0.46549
 Alpha  occ. eigenvalues --   -0.46491  -0.46465  -0.46300  -0.46238  -0.45616
 Alpha  occ. eigenvalues --   -0.45567  -0.45477  -0.45390  -0.45172  -0.44978
 Alpha  occ. eigenvalues --   -0.44814  -0.44538  -0.44144  -0.44078  -0.43898
 Alpha  occ. eigenvalues --   -0.43832  -0.43498  -0.43419  -0.43271  -0.42896
 Alpha  occ. eigenvalues --   -0.42589  -0.42369  -0.42276  -0.42201  -0.42170
 Alpha  occ. eigenvalues --   -0.42014  -0.41821  -0.41689  -0.41467  -0.41072
 Alpha  occ. eigenvalues --   -0.40677  -0.40599  -0.40164  -0.40084  -0.40015
 Alpha  occ. eigenvalues --   -0.39742  -0.39453  -0.39308  -0.38999  -0.38586
 Alpha  occ. eigenvalues --   -0.38423  -0.38316  -0.38055  -0.37161  -0.37038
 Alpha  occ. eigenvalues --   -0.36868  -0.36697  -0.36564  -0.36505  -0.36326
 Alpha  occ. eigenvalues --   -0.35771  -0.35204  -0.34694  -0.34360  -0.34312
 Alpha  occ. eigenvalues --   -0.34156  -0.33264  -0.33167  -0.31634  -0.31304
 Alpha  occ. eigenvalues --   -0.30900  -0.30367  -0.29707  -0.29385  -0.24268
 Alpha  occ. eigenvalues --   -0.21457
 Alpha virt. eigenvalues --   -0.08964  -0.01913   0.00195   0.01061   0.02192
 Alpha virt. eigenvalues --    0.05318   0.05438   0.06495   0.06728   0.07097
 Alpha virt. eigenvalues --    0.08253   0.08514   0.08573   0.08991   0.09029

 Mulliken charges:
               1
     1  Mg   0.825852
     2  C   -0.011558
     3  C   -0.096823
     4  C   -0.065514
     5  C   -0.054253
     6  N   -0.272321
     7  C   -0.066465
     8  C   -0.019189
     9  C   -0.035207
    10  C    0.054453
    11  C    0.082079
    12  C    0.065815
    13  C    0.065011
    14  C    0.120555
    15  O   -0.223528
    16  O   -0.336784
    17  N   -0.378876
    18  C    0.130248
    19  C   -0.145254
    20  C   -0.045147
    21  C    0.202099
    22  C    0.136812
    23  C    0.005624
    24  O   -0.205720
    25  C    0.027152
    26  N   -0.281360
    27  C   -0.032576
    28  C   -0.098951
    29  C    0.049383
    30  C    0.028687
    31  C    0.082634
    32  C    0.032168
    33  C   -0.017940
    34  N   -0.324690
    35  C    0.062451
    36  C   -0.176639
    37  C   -0.010713
    38  C    0.151742
    39  C    0.127271
    40  C    0.040035
    41  O   -0.173733
    42  C   -0.020392
    43  C    0.201785
    44  O   -0.168943
    45  O   -0.352077
    46  C    0.178834
    47  C    0.312804
    48  C   -0.140978
    49  C   -0.203762
    50  C    0.093681
    51  C    0.053914
    52  C   -0.024142
    53  C    0.082606
    54  C   -0.175407
    55  C    0.048554
    56  C    0.094768
    57  C   -0.023321
    58  C    0.029246
    59  C   -0.103093
    60  C    0.039794
    61  C    0.071765
    62  C   -0.006950
    63  C    0.076724
    64  C   -0.151805
    65  C    0.033590
    66  C    0.020961
    67  H   -0.029588
    68  H   -0.046549
    69  H   -0.029987
    70  H    0.007902
    71  H    0.004370
    72  H    0.011217
    73  H    0.005584
    74  H    0.031112
    75  H    0.009365
    76  H    0.029558
    77  H    0.011815
    78  H    0.039300
    79  H    0.051483
    80  H   -0.007176
    81  H    0.032264
    82  H    0.039538
    83  H    0.048923
    84  H    0.026565
    85  H    0.015384
    86  H    0.011718
    87  H    0.014457
    88  H    0.035388
    89  H    0.018584
    90  H    0.012515
    91  H    0.006603
    92  H    0.008255
    93  H    0.022664
    94  H    0.018346
    95  H   -0.009339
    96  H    0.033750
    97  H    0.050882
    98  H    0.036442
    99  H    0.037227
   100  H    0.051901
   101  H    0.025481
   102  H    0.048458
   103  H    0.040267
   104  H    0.009497
   105  H    0.028697
   106  H    0.035082
   107  H    0.015861
   108  H    0.015125
   109  H   -0.013700
   110  H    0.014512
   111  H    0.003390
   112  H    0.009357
   113  H    0.000570
   114  H    0.005450
   115  H    0.008506
   116  H   -0.003706
   117  H    0.001330
   118  H   -0.001214
   119  H   -0.016065
   120  H   -0.012462
   121  H   -0.009530
   122  H   -0.018087
   123  H    0.005158
   124  H   -0.006356
   125  H    0.006212
   126  H   -0.000299
   127  H   -0.005185
   128  H   -0.002031
   129  H    0.004395
   130  H   -0.020466
   131  H   -0.001598
   132  H    0.002083
   133  H    0.003717
   134  H    0.003307
   135  H    0.005104
   136  H   -0.006701
   137  H    0.018473
   138  H    0.007699
   139  H    0.012672
   140  H    0.001538
 Sum of Mulliken charges =  -0.00000

 Dipole moment (field-independent basis, Debye):
    X=              0.2982    Y=              2.8244    Z=              1.0054  Tot=              3.0128
 Quadrupole moment (field-independent basis, Debye-Ang):
   XX=           -382.2517   YY=           -435.9278   ZZ=           -388.6820
   XY=             45.7297   XZ=              1.6953   YZ=             15.0506

 Normal termination of Gaussian 16 at Wed May  4 01:48:19 2022.
