 Gaussian 16, Revision A.03,
 Gaussian 16:  ES64L-G16RevA.03 25-Dec-2016

 ---------------------------------
 #p PBE1PBE/Def2SVP td=(nstates=5)
 ---------------------------------

 ------------------------------------------------------
 step_1251_chromophore_20 TDDFT with PBE1PBE functional
 ------------------------------------------------------
 Symbolic Z-matrix:
 Charge =  0 Multiplicity = 1

                         Standard orientation:
 ---------------------------------------------------------------------
 Center     Atomic      Atomic             Coordinates (Angstroms)
 Number     Number       Type             X           Y           Z
 ---------------------------------------------------------------------
      1         12           0        4.122925    1.449428   -0.591720
      2          6           0        3.827162   -2.067384   -0.816581
      3          6           0        1.976871    1.689113   -3.165171
      4          6           0        3.780249    4.592575    0.231526
      5          6           0        6.060544    0.858536    2.451082
      6          7           0        2.877584   -0.068993   -1.719351
      7          6           0        3.000273   -1.444738   -1.728130
      8          6           0        2.248140   -2.072551   -2.908457
      9          6           0        1.977142   -0.798762   -3.808129
     10          6           0        2.252732    0.351210   -2.842510
     11          6           0        2.559732   -0.853504   -5.243203
     12          6           0        0.986429   -2.920470   -2.460704
     13          6           0        0.588412   -4.070875   -3.353218
     14          6           0       -0.269062   -5.186978   -2.672735
     15          8           0       -0.015027   -6.364138   -2.750014
     16          8           0       -1.390372   -4.669874   -2.154909
     17          7           0        3.074104    2.958433   -1.420675
     18          6           0        2.215752    2.901165   -2.454463
     19          6           0        1.623729    4.181381   -2.707756
     20          6           0        2.186652    5.115013   -1.775678
     21          6           0        3.051981    4.206455   -0.910331
     22          6           0        0.431296    4.399534   -3.728432
     23          6           0        1.805350    6.583019   -1.625094
     24          8           0        0.983676    7.165184   -2.346041
     25          6           0        2.566681    7.439561   -0.531041
     26          7           0        4.691438    2.508916    1.227739
     27          6           0        4.529023    3.845617    1.170101
     28          6           0        5.424361    4.486469    2.279406
     29          6           0        6.197227    3.287068    2.933426
     30          6           0        5.630991    2.144974    2.171737
     31          6           0        6.396176    5.560494    1.741379
     32          6           0        6.077593    3.234052    4.457904
     33          6           0        7.387434    3.213258    5.374104
     34          7           0        4.965476   -0.231232    0.511357
     35          6           0        5.752057   -0.335226    1.709012
     36          6           0        6.042192   -1.730871    1.912781
     37          6           0        5.344173   -2.411905    0.942071
     38          6           0        4.667892   -1.459629    0.134719
     39          6           0        6.872351   -2.376874    3.054073
     40          6           0        5.117163   -3.773854    0.446021
     41          8           0        5.621624   -4.859264    0.716814
     42          6           0        4.013311   -3.614819   -0.609822
     43          6           0        2.871206   -4.387872    0.032372
     44          8           0        2.172701   -4.006874    0.904936
     45          8           0        2.847413   -5.609738   -0.612261
     46          6           0        2.070201   -6.739544   -0.076264
     47          6           0       -2.220228   -5.575971   -1.312328
     48          6           0       -3.414371   -4.765880   -0.914700
     49          6           0       -4.287716   -5.011780    0.125001
     50          6           0       -4.316915   -6.215405    1.079856
     51          6           0       -5.379250   -3.976796    0.518683
     52          6           0       -5.061084   -3.271414    1.873814
     53          6           0       -6.152350   -3.556761    2.914122
     54          6           0       -6.610154   -2.166128    3.487697
     55          6           0       -6.677477   -2.312408    5.064440
     56          6           0       -7.938241   -1.627903    2.948832
     57          6           0       -7.848957   -0.128091    2.742277
     58          6           0       -7.214939    0.291042    1.394234
     59          6           0       -8.165407    1.159087    0.532623
     60          6           0       -7.882551    0.966323   -1.017250
     61          6           0       -8.183598    2.646201    1.077573
     62          6           0       -9.548565    3.323189    1.166191
     63          6           0       -9.622022    4.722242    0.488003
     64          6           0      -10.226689    4.561059   -0.951994
     65          6           0       -9.285955    5.060022   -2.073102
     66          6           0      -11.650168    5.225599   -1.092539
     67          1           0        1.480333    1.890430   -4.116269
     68          1           0        3.811862    5.614743    0.613588
     69          1           0        6.710641    0.649933    3.303851
     70          1           0        2.935890   -2.702541   -3.473496
     71          1           0        0.903044   -0.684600   -3.952921
     72          1           0        3.402066   -1.542989   -5.303109
     73          1           0        3.082275    0.079884   -5.450432
     74          1           0        1.836641   -1.046530   -6.035487
     75          1           0        0.111441   -2.271346   -2.471246
     76          1           0        1.162898   -3.283534   -1.448381
     77          1           0        1.592353   -4.469511   -3.500301
     78          1           0        0.081871   -3.919486   -4.306577
     79          1           0       -0.491348    4.533731   -3.165281
     80          1           0        0.437885    3.549545   -4.409799
     81          1           0        0.585689    5.230173   -4.418286
     82          1           0        3.628441    7.255667   -0.691862
     83          1           0        2.232717    7.144881    0.464819
     84          1           0        2.386957    8.499771   -0.709503
     85          1           0        4.644365    4.945503    2.885707
     86          1           0        7.223095    3.414504    2.587684
     87          1           0        5.872278    6.496791    1.934260
     88          1           0        6.615874    5.291376    0.708554
     89          1           0        7.241966    5.607219    2.428012
     90          1           0        5.633549    2.290939    4.775813
     91          1           0        5.359822    3.955846    4.845011
     92          1           0        8.260451    3.298588    4.728160
     93          1           0        7.548105    2.317792    5.975066
     94          1           0        7.377738    4.053852    6.067476
     95          1           0        7.199551   -1.554580    3.691119
     96          1           0        7.832540   -2.819556    2.791463
     97          1           0        6.183104   -3.099393    3.490986
     98          1           0        4.314975   -4.071061   -1.553363
     99          1           0        2.574258   -7.277176    0.727279
    100          1           0        1.875875   -7.506030   -0.826345
    101          1           0        1.127842   -6.320003    0.274820
    102          1           0       -1.617377   -5.921516   -0.471999
    103          1           0       -2.630933   -6.277551   -2.038550
    104          1           0       -3.519965   -3.795100   -1.399888
    105          1           0       -5.349385   -6.493000    1.290788
    106          1           0       -3.760041   -5.836169    1.936528
    107          1           0       -3.781040   -7.045177    0.619636
    108          1           0       -6.365998   -4.402588    0.334134
    109          1           0       -5.429822   -3.109210   -0.139495
    110          1           0       -4.732139   -2.252983    1.667284
    111          1           0       -4.180770   -3.657981    2.386222
    112          1           0       -5.782757   -4.213600    3.701693
    113          1           0       -7.021688   -3.919883    2.365813
    114          1           0       -5.852081   -1.414097    3.270643
    115          1           0       -6.656379   -3.375648    5.304436
    116          1           0       -7.537359   -1.805259    5.499943
    117          1           0       -5.853312   -1.806574    5.568792
    118          1           0       -8.823518   -1.820040    3.555996
    119          1           0       -8.030128   -2.152633    1.997436
    120          1           0       -7.131654    0.349059    3.409869
    121          1           0       -8.730935    0.404223    3.097533
    122          1           0       -7.097332   -0.703162    0.962718
    123          1           0       -6.229811    0.738589    1.526161
    124          1           0       -9.124793    0.653144    0.635158
    125          1           0       -6.998141    0.357822   -1.206405
    126          1           0       -7.905927    1.879052   -1.612147
    127          1           0       -8.661620    0.383560   -1.510155
    128          1           0       -7.612990    3.215307    0.344507
    129          1           0       -7.709966    2.667726    2.059191
    130          1           0       -9.672073    3.455760    2.241177
    131          1           0      -10.413071    2.690601    0.964902
    132          1           0       -8.584875    5.019533    0.334935
    133          1           0      -10.276702    5.361270    1.081339
    134          1           0      -10.360868    3.494846   -1.139405
    135          1           0       -8.679818    5.868436   -1.663543
    136          1           0       -9.814476    5.571781   -2.876403
    137          1           0       -8.723355    4.248180   -2.534448
    138          1           0      -12.308087    4.439291   -0.721766
    139          1           0      -11.879798    5.639753   -2.074388
    140          1           0      -11.892188    6.066850   -0.442881
 ---------------------------------------------------------------------

 SCF Done:  E(RPBE1PBE) =  -3005.32077969     A.U. after   15 cycles

 Excitation energies and oscillator strengths:

 Excited State   1:      Singlet-A      1.8682 eV  663.67 nm  f=0.3735  <S**2>=0.000
     245 -> 248       -0.16649
     246 -> 247        0.69212
     246 <- 247       -0.10573
 This state for optimization and/or second-order correction.
 Total Energy, E(TD-HF/TD-DFT) =  -3005.25212583
 Copying the excited state density for this state as the 1-particle RhoCI density.

 Excited State   2:      Singlet-A      2.2267 eV  556.80 nm  f=0.1150  <S**2>=0.000
     245 -> 247        0.65422
     246 -> 248        0.24460

 Excited State   3:      Singlet-A      2.9351 eV  422.42 nm  f=0.0002  <S**2>=0.000
     243 -> 247        0.67692
     243 -> 249       -0.14200
     243 -> 250       -0.10144

 Excited State   4:      Singlet-A      3.0016 eV  413.06 nm  f=0.0004  <S**2>=0.000
     241 -> 247        0.66397
     241 -> 248        0.12729
     241 -> 249        0.14259

 Excited State   5:      Singlet-A      3.0469 eV  406.91 nm  f=0.0014  <S**2>=0.000
     242 -> 247        0.68629
     246 -> 248       -0.12917

 The electronic state is 1-A.
 Alpha  occ. eigenvalues --  -46.93658 -19.25605 -19.24673 -19.20427 -19.19540
 Alpha  occ. eigenvalues --  -19.19463 -19.19066 -14.41825 -14.41605 -14.40155
 Alpha  occ. eigenvalues --  -14.38847 -10.36237 -10.35895 -10.33060 -10.31869
 Alpha  occ. eigenvalues --  -10.29989 -10.29470 -10.29130 -10.29076 -10.28711
 Alpha  occ. eigenvalues --  -10.28393 -10.28104 -10.27958 -10.27776 -10.26675
 Alpha  occ. eigenvalues --  -10.26429 -10.26176 -10.26088 -10.25851 -10.25730
 Alpha  occ. eigenvalues --  -10.25633 -10.25600 -10.25441 -10.25411 -10.25253
 Alpha  occ. eigenvalues --  -10.24944 -10.24896 -10.24827 -10.24591 -10.24544
 Alpha  occ. eigenvalues --  -10.24449 -10.24322 -10.24151 -10.23938 -10.23680
 Alpha  occ. eigenvalues --  -10.23672 -10.23630 -10.23611 -10.23509 -10.23382
 Alpha  occ. eigenvalues --  -10.23263 -10.23231 -10.23075 -10.22811 -10.22510
 Alpha  occ. eigenvalues --  -10.22443 -10.22398 -10.22308 -10.22214 -10.22189
 Alpha  occ. eigenvalues --  -10.21835 -10.21782 -10.21779 -10.21666 -10.21485
 Alpha  occ. eigenvalues --  -10.21348  -3.15625  -1.88429  -1.88031  -1.87833
 Alpha  occ. eigenvalues --   -1.11741  -1.11065  -1.04098  -1.03833  -1.03545
 Alpha  occ. eigenvalues --   -1.02928  -0.99668  -0.98470  -0.98334  -0.97238
 Alpha  occ. eigenvalues --   -0.86242  -0.84493  -0.83880  -0.83746  -0.83259
 Alpha  occ. eigenvalues --   -0.82874  -0.82480  -0.81888  -0.80938  -0.80751
 Alpha  occ. eigenvalues --   -0.80256  -0.79891  -0.78670  -0.77821  -0.77629
 Alpha  occ. eigenvalues --   -0.76697  -0.75713  -0.75233  -0.75158  -0.74469
 Alpha  occ. eigenvalues --   -0.73599  -0.72205  -0.72169  -0.71303  -0.70186
 Alpha  occ. eigenvalues --   -0.69729  -0.69670  -0.69146  -0.68892  -0.68098
 Alpha  occ. eigenvalues --   -0.67702  -0.66998  -0.66412  -0.64620  -0.64132
 Alpha  occ. eigenvalues --   -0.62923  -0.62586  -0.62028  -0.60897  -0.60624
 Alpha  occ. eigenvalues --   -0.60211  -0.59868  -0.59568  -0.59113  -0.58078
 Alpha  occ. eigenvalues --   -0.57882  -0.57043  -0.56366  -0.56336  -0.54650
 Alpha  occ. eigenvalues --   -0.54329  -0.54144  -0.53600  -0.52870  -0.52407
 Alpha  occ. eigenvalues --   -0.51948  -0.51643  -0.50871  -0.50378  -0.50037
 Alpha  occ. eigenvalues --   -0.49590  -0.49425  -0.48970  -0.48820  -0.48721
 Alpha  occ. eigenvalues --   -0.48403  -0.47708  -0.47497  -0.47414  -0.47181
 Alpha  occ. eigenvalues --   -0.46923  -0.46824  -0.46385  -0.46163  -0.45966
 Alpha  occ. eigenvalues --   -0.45872  -0.45691  -0.45572  -0.45309  -0.45226
 Alpha  occ. eigenvalues --   -0.44868  -0.44685  -0.44617  -0.44186  -0.43998
 Alpha  occ. eigenvalues --   -0.43892  -0.43767  -0.43709  -0.43513  -0.43364
 Alpha  occ. eigenvalues --   -0.43134  -0.43056  -0.42768  -0.42755  -0.42488
 Alpha  occ. eigenvalues --   -0.42348  -0.41999  -0.41539  -0.41446  -0.41266
 Alpha  occ. eigenvalues --   -0.41237  -0.41083  -0.40973  -0.40856  -0.40282
 Alpha  occ. eigenvalues --   -0.40246  -0.40153  -0.40048  -0.39915  -0.39782
 Alpha  occ. eigenvalues --   -0.39519  -0.39316  -0.38899  -0.38808  -0.38706
 Alpha  occ. eigenvalues --   -0.38570  -0.38208  -0.38136  -0.38098  -0.37680
 Alpha  occ. eigenvalues --   -0.37268  -0.37226  -0.37186  -0.37037  -0.36880
 Alpha  occ. eigenvalues --   -0.36844  -0.36736  -0.36512  -0.36345  -0.35825
 Alpha  occ. eigenvalues --   -0.35477  -0.35395  -0.35145  -0.35052  -0.34806
 Alpha  occ. eigenvalues --   -0.34680  -0.34292  -0.34136  -0.33792  -0.33533
 Alpha  occ. eigenvalues --   -0.33208  -0.33066  -0.33052  -0.32142  -0.32125
 Alpha  occ. eigenvalues --   -0.31634  -0.31551  -0.31455  -0.31329  -0.31271
 Alpha  occ. eigenvalues --   -0.30682  -0.30058  -0.29674  -0.29509  -0.29326
 Alpha  occ. eigenvalues --   -0.29081  -0.28791  -0.28131  -0.27199  -0.26525
 Alpha  occ. eigenvalues --   -0.25751  -0.25496  -0.25412  -0.24679  -0.21195
 Alpha  occ. eigenvalues --   -0.19106
 Alpha virt. eigenvalues --   -0.11444  -0.05476  -0.03896  -0.02282  -0.01738
 Alpha virt. eigenvalues --    0.00897   0.01022   0.01854   0.02109   0.03408
 Alpha virt. eigenvalues --    0.04450   0.04741   0.05138   0.05308   0.05607

 Mulliken charges:
               1
     1  Mg   0.965975
     2  C   -0.022346
     3  C   -0.088602
     4  C   -0.067953
     5  C   -0.049441
     6  N   -0.373058
     7  C    0.007689
     8  C   -0.086698
     9  C   -0.106843
    10  C    0.088726
    11  C    0.022197
    12  C    0.010650
    13  C   -0.012767
    14  C    0.191202
    15  O   -0.258343
    16  O   -0.367078
    17  N   -0.498136
    18  C    0.150718
    19  C   -0.167258
    20  C   -0.081906
    21  C    0.222250
    22  C    0.079278
    23  C    0.055750
    24  O   -0.241777
    25  C   -0.053041
    26  N   -0.385212
    27  C    0.015963
    28  C   -0.169934
    29  C   -0.037162
    30  C    0.066809
    31  C    0.017873
    32  C   -0.025165
    33  C   -0.088410
    34  N   -0.448659
    35  C    0.085068
    36  C   -0.188673
    37  C   -0.059237
    38  C    0.208281
    39  C    0.076200
    40  C    0.124042
    41  O   -0.218296
    42  C   -0.115021
    43  C    0.285556
    44  O   -0.206068
    45  O   -0.384041
    46  C    0.124722
    47  C    0.268965
    48  C   -0.153918
    49  C   -0.246548
    50  C    0.030846
    51  C   -0.008442
    52  C   -0.080759
    53  C    0.024903
    54  C   -0.257202
    55  C   -0.008280
    56  C    0.033320
    57  C   -0.080264
    58  C   -0.031084
    59  C   -0.183961
    60  C   -0.021911
    61  C    0.017241
    62  C   -0.069592
    63  C    0.015282
    64  C   -0.240438
    65  C   -0.028458
    66  C   -0.038059
    67  H    0.003252
    68  H   -0.012093
    69  H    0.003750
    70  H    0.044958
    71  H    0.042543
    72  H    0.038110
    73  H    0.033813
    74  H    0.057133
    75  H    0.042808
    76  H    0.071445
    77  H    0.046328
    78  H    0.069752
    79  H    0.077441
    80  H    0.019649
    81  H    0.058616
    82  H    0.065668
    83  H    0.074834
    84  H    0.054473
    85  H    0.052074
    86  H    0.050164
    87  H    0.042217
    88  H    0.063766
    89  H    0.047487
    90  H    0.045240
    91  H    0.038714
    92  H    0.035749
    93  H    0.048958
    94  H    0.046331
    95  H    0.019736
    96  H    0.061263
    97  H    0.077848
    98  H    0.072891
    99  H    0.059122
   100  H    0.072990
   101  H    0.047844
   102  H    0.074575
   103  H    0.068530
   104  H    0.039174
   105  H    0.055273
   106  H    0.062470
   107  H    0.044179
   108  H    0.045632
   109  H    0.018842
   110  H    0.044219
   111  H    0.036746
   112  H    0.040085
   113  H    0.033769
   114  H    0.043831
   115  H    0.035287
   116  H    0.023640
   117  H    0.029275
   118  H    0.030604
   119  H    0.017648
   120  H    0.021125
   121  H    0.021998
   122  H    0.019201
   123  H    0.036519
   124  H    0.032266
   125  H    0.032698
   126  H    0.029858
   127  H    0.022210
   128  H    0.031243
   129  H    0.036467
   130  H    0.013855
   131  H    0.029242
   132  H    0.034773
   133  H    0.035666
   134  H    0.042038
   135  H    0.032374
   136  H    0.021025
   137  H    0.046463
   138  H    0.035711
   139  H    0.038925
   140  H    0.028223
 Sum of Mulliken charges =  -0.00000

 Dipole moment (field-independent basis, Debye):
    X=              0.5253    Y=              2.4994    Z=              1.2689  Tot=              2.8518
 Quadrupole moment (field-independent basis, Debye-Ang):
   XX=           -377.0720   YY=           -433.9694   ZZ=           -384.7090
   XY=             45.0480   XZ=              3.3726   YZ=             15.9460

 Normal termination of Gaussian 16 at Wed May  4 02:04:46 2022.
