 Gaussian 16, Revision A.03,
 Gaussian 16:  ES64L-G16RevA.03 25-Dec-2016

 --------------------------------
 #p wB97XD/Def2SVP td=(nstates=5)
 --------------------------------

 -----------------------------------------------------
 step_1251_chromophore_20 TDDFT with wB97XD functional
 -----------------------------------------------------
 Symbolic Z-matrix:
 Charge =  0 Multiplicity = 1

                         Standard orientation:
 ---------------------------------------------------------------------
 Center     Atomic      Atomic             Coordinates (Angstroms)
 Number     Number       Type             X           Y           Z
 ---------------------------------------------------------------------
      1         12           0        4.122925    1.449428   -0.591720
      2          6           0        3.827162   -2.067384   -0.816581
      3          6           0        1.976871    1.689113   -3.165171
      4          6           0        3.780249    4.592575    0.231526
      5          6           0        6.060544    0.858536    2.451082
      6          7           0        2.877584   -0.068993   -1.719351
      7          6           0        3.000273   -1.444738   -1.728130
      8          6           0        2.248140   -2.072551   -2.908457
      9          6           0        1.977142   -0.798762   -3.808129
     10          6           0        2.252732    0.351210   -2.842510
     11          6           0        2.559732   -0.853504   -5.243203
     12          6           0        0.986429   -2.920470   -2.460704
     13          6           0        0.588412   -4.070875   -3.353218
     14          6           0       -0.269062   -5.186978   -2.672735
     15          8           0       -0.015027   -6.364138   -2.750014
     16          8           0       -1.390372   -4.669874   -2.154909
     17          7           0        3.074104    2.958433   -1.420675
     18          6           0        2.215752    2.901165   -2.454463
     19          6           0        1.623729    4.181381   -2.707756
     20          6           0        2.186652    5.115013   -1.775678
     21          6           0        3.051981    4.206455   -0.910331
     22          6           0        0.431296    4.399534   -3.728432
     23          6           0        1.805350    6.583019   -1.625094
     24          8           0        0.983676    7.165184   -2.346041
     25          6           0        2.566681    7.439561   -0.531041
     26          7           0        4.691438    2.508916    1.227739
     27          6           0        4.529023    3.845617    1.170101
     28          6           0        5.424361    4.486469    2.279406
     29          6           0        6.197227    3.287068    2.933426
     30          6           0        5.630991    2.144974    2.171737
     31          6           0        6.396176    5.560494    1.741379
     32          6           0        6.077593    3.234052    4.457904
     33          6           0        7.387434    3.213258    5.374104
     34          7           0        4.965476   -0.231232    0.511357
     35          6           0        5.752057   -0.335226    1.709012
     36          6           0        6.042192   -1.730871    1.912781
     37          6           0        5.344173   -2.411905    0.942071
     38          6           0        4.667892   -1.459629    0.134719
     39          6           0        6.872351   -2.376874    3.054073
     40          6           0        5.117163   -3.773854    0.446021
     41          8           0        5.621624   -4.859264    0.716814
     42          6           0        4.013311   -3.614819   -0.609822
     43          6           0        2.871206   -4.387872    0.032372
     44          8           0        2.172701   -4.006874    0.904936
     45          8           0        2.847413   -5.609738   -0.612261
     46          6           0        2.070201   -6.739544   -0.076264
     47          6           0       -2.220228   -5.575971   -1.312328
     48          6           0       -3.414371   -4.765880   -0.914700
     49          6           0       -4.287716   -5.011780    0.125001
     50          6           0       -4.316915   -6.215405    1.079856
     51          6           0       -5.379250   -3.976796    0.518683
     52          6           0       -5.061084   -3.271414    1.873814
     53          6           0       -6.152350   -3.556761    2.914122
     54          6           0       -6.610154   -2.166128    3.487697
     55          6           0       -6.677477   -2.312408    5.064440
     56          6           0       -7.938241   -1.627903    2.948832
     57          6           0       -7.848957   -0.128091    2.742277
     58          6           0       -7.214939    0.291042    1.394234
     59          6           0       -8.165407    1.159087    0.532623
     60          6           0       -7.882551    0.966323   -1.017250
     61          6           0       -8.183598    2.646201    1.077573
     62          6           0       -9.548565    3.323189    1.166191
     63          6           0       -9.622022    4.722242    0.488003
     64          6           0      -10.226689    4.561059   -0.951994
     65          6           0       -9.285955    5.060022   -2.073102
     66          6           0      -11.650168    5.225599   -1.092539
     67          1           0        1.480333    1.890430   -4.116269
     68          1           0        3.811862    5.614743    0.613588
     69          1           0        6.710641    0.649933    3.303851
     70          1           0        2.935890   -2.702541   -3.473496
     71          1           0        0.903044   -0.684600   -3.952921
     72          1           0        3.402066   -1.542989   -5.303109
     73          1           0        3.082275    0.079884   -5.450432
     74          1           0        1.836641   -1.046530   -6.035487
     75          1           0        0.111441   -2.271346   -2.471246
     76          1           0        1.162898   -3.283534   -1.448381
     77          1           0        1.592353   -4.469511   -3.500301
     78          1           0        0.081871   -3.919486   -4.306577
     79          1           0       -0.491348    4.533731   -3.165281
     80          1           0        0.437885    3.549545   -4.409799
     81          1           0        0.585689    5.230173   -4.418286
     82          1           0        3.628441    7.255667   -0.691862
     83          1           0        2.232717    7.144881    0.464819
     84          1           0        2.386957    8.499771   -0.709503
     85          1           0        4.644365    4.945503    2.885707
     86          1           0        7.223095    3.414504    2.587684
     87          1           0        5.872278    6.496791    1.934260
     88          1           0        6.615874    5.291376    0.708554
     89          1           0        7.241966    5.607219    2.428012
     90          1           0        5.633549    2.290939    4.775813
     91          1           0        5.359822    3.955846    4.845011
     92          1           0        8.260451    3.298588    4.728160
     93          1           0        7.548105    2.317792    5.975066
     94          1           0        7.377738    4.053852    6.067476
     95          1           0        7.199551   -1.554580    3.691119
     96          1           0        7.832540   -2.819556    2.791463
     97          1           0        6.183104   -3.099393    3.490986
     98          1           0        4.314975   -4.071061   -1.553363
     99          1           0        2.574258   -7.277176    0.727279
    100          1           0        1.875875   -7.506030   -0.826345
    101          1           0        1.127842   -6.320003    0.274820
    102          1           0       -1.617377   -5.921516   -0.471999
    103          1           0       -2.630933   -6.277551   -2.038550
    104          1           0       -3.519965   -3.795100   -1.399888
    105          1           0       -5.349385   -6.493000    1.290788
    106          1           0       -3.760041   -5.836169    1.936528
    107          1           0       -3.781040   -7.045177    0.619636
    108          1           0       -6.365998   -4.402588    0.334134
    109          1           0       -5.429822   -3.109210   -0.139495
    110          1           0       -4.732139   -2.252983    1.667284
    111          1           0       -4.180770   -3.657981    2.386222
    112          1           0       -5.782757   -4.213600    3.701693
    113          1           0       -7.021688   -3.919883    2.365813
    114          1           0       -5.852081   -1.414097    3.270643
    115          1           0       -6.656379   -3.375648    5.304436
    116          1           0       -7.537359   -1.805259    5.499943
    117          1           0       -5.853312   -1.806574    5.568792
    118          1           0       -8.823518   -1.820040    3.555996
    119          1           0       -8.030128   -2.152633    1.997436
    120          1           0       -7.131654    0.349059    3.409869
    121          1           0       -8.730935    0.404223    3.097533
    122          1           0       -7.097332   -0.703162    0.962718
    123          1           0       -6.229811    0.738589    1.526161
    124          1           0       -9.124793    0.653144    0.635158
    125          1           0       -6.998141    0.357822   -1.206405
    126          1           0       -7.905927    1.879052   -1.612147
    127          1           0       -8.661620    0.383560   -1.510155
    128          1           0       -7.612990    3.215307    0.344507
    129          1           0       -7.709966    2.667726    2.059191
    130          1           0       -9.672073    3.455760    2.241177
    131          1           0      -10.413071    2.690601    0.964902
    132          1           0       -8.584875    5.019533    0.334935
    133          1           0      -10.276702    5.361270    1.081339
    134          1           0      -10.360868    3.494846   -1.139405
    135          1           0       -8.679818    5.868436   -1.663543
    136          1           0       -9.814476    5.571781   -2.876403
    137          1           0       -8.723355    4.248180   -2.534448
    138          1           0      -12.308087    4.439291   -0.721766
    139          1           0      -11.879798    5.639753   -2.074388
    140          1           0      -11.892188    6.066850   -0.442881
 ---------------------------------------------------------------------

 SCF Done:  E(RwB97XD) =  -3007.83187195     A.U. after   19 cycles

 Excitation energies and oscillator strengths:

 Excited State   1:      Singlet-A      1.6663 eV  744.06 nm  f=0.3858  <S**2>=0.000
     245 -> 248       -0.17934
     246 -> 247        0.68346
     245 <- 248       -0.11316
 This state for optimization and/or second-order correction.
 Total Energy, E(TD-HF/TD-DFT) =  -3007.77063595
 Copying the excited state density for this state as the 1-particle RhoCI density.

 Excited State   2:      Singlet-A      2.1690 eV  571.62 nm  f=0.1122  <S**2>=0.000
     245 -> 247        0.64096
     246 -> 248        0.27956

 Excited State   3:      Singlet-A      3.4297 eV  361.50 nm  f=0.0188  <S**2>=0.000
     243 -> 247        0.64281
     246 -> 248       -0.22474

 Excited State   4:      Singlet-A      3.4928 eV  354.97 nm  f=0.0194  <S**2>=0.000
     240 -> 249       -0.13473
     240 -> 251       -0.12031
     241 -> 247        0.50637
     241 -> 248        0.14917
     241 -> 249       -0.26174
     241 -> 251       -0.15114
     242 -> 247       -0.16443
     246 -> 248        0.14672

 Excited State   5:      Singlet-A      3.5417 eV  350.07 nm  f=0.0025  <S**2>=0.000
     240 -> 249       -0.10435
     241 -> 247        0.11446
     242 -> 247        0.53736
     242 -> 249        0.26968
     242 -> 250        0.16442
     242 -> 251       -0.17729

 The electronic state is 1-A.
 Alpha  occ. eigenvalues --  -46.96612 -19.30120 -19.29160 -19.25093 -19.24469
 Alpha  occ. eigenvalues --  -19.24159 -19.23697 -14.46933 -14.46684 -14.45260
 Alpha  occ. eigenvalues --  -14.43654 -10.43016 -10.42621 -10.40073 -10.38559
 Alpha  occ. eigenvalues --  -10.36468 -10.36109 -10.35628 -10.35510 -10.34864
 Alpha  occ. eigenvalues --  -10.34603 -10.34580 -10.34452 -10.33731 -10.33447
 Alpha  occ. eigenvalues --  -10.32661 -10.32471 -10.32387 -10.32280 -10.31957
 Alpha  occ. eigenvalues --  -10.31849 -10.31781 -10.31708 -10.31587 -10.31585
 Alpha  occ. eigenvalues --  -10.31435 -10.31327 -10.31190 -10.30894 -10.30841
 Alpha  occ. eigenvalues --  -10.30825 -10.30768 -10.30618 -10.30570 -10.30323
 Alpha  occ. eigenvalues --  -10.30076 -10.29999 -10.29950 -10.29802 -10.29770
 Alpha  occ. eigenvalues --  -10.29611 -10.29521 -10.29328 -10.29145 -10.28846
 Alpha  occ. eigenvalues --  -10.28833 -10.28764 -10.28570 -10.28557 -10.28354
 Alpha  occ. eigenvalues --  -10.28215 -10.28206 -10.28132 -10.28102 -10.27897
 Alpha  occ. eigenvalues --  -10.27792  -3.22467  -1.96016  -1.95617  -1.95412
 Alpha  occ. eigenvalues --   -1.19063  -1.18400  -1.11512  -1.11418  -1.10836
 Alpha  occ. eigenvalues --   -1.10209  -1.07212  -1.05834  -1.05722  -1.04449
 Alpha  occ. eigenvalues --   -0.93753  -0.92159  -0.91430  -0.91390  -0.90922
 Alpha  occ. eigenvalues --   -0.90519  -0.90155  -0.89492  -0.88600  -0.88377
 Alpha  occ. eigenvalues --   -0.87990  -0.87513  -0.86317  -0.85459  -0.85170
 Alpha  occ. eigenvalues --   -0.84350  -0.83395  -0.82921  -0.82758  -0.82241
 Alpha  occ. eigenvalues --   -0.81267  -0.79792  -0.79724  -0.79116  -0.77776
 Alpha  occ. eigenvalues --   -0.77370  -0.77311  -0.76867  -0.76585  -0.75766
 Alpha  occ. eigenvalues --   -0.75182  -0.74590  -0.73957  -0.72254  -0.71652
 Alpha  occ. eigenvalues --   -0.70574  -0.70219  -0.69551  -0.68535  -0.68087
 Alpha  occ. eigenvalues --   -0.67718  -0.67521  -0.66981  -0.66519  -0.65755
 Alpha  occ. eigenvalues --   -0.65342  -0.64717  -0.63998  -0.63683  -0.62149
 Alpha  occ. eigenvalues --   -0.61803  -0.61492  -0.61050  -0.60225  -0.59763
 Alpha  occ. eigenvalues --   -0.59390  -0.59136  -0.58350  -0.57760  -0.57397
 Alpha  occ. eigenvalues --   -0.56994  -0.56822  -0.56360  -0.56289  -0.56065
 Alpha  occ. eigenvalues --   -0.55697  -0.55112  -0.54920  -0.54739  -0.54499
 Alpha  occ. eigenvalues --   -0.54243  -0.54172  -0.53913  -0.53644  -0.53350
 Alpha  occ. eigenvalues --   -0.53246  -0.53033  -0.52910  -0.52676  -0.52544
 Alpha  occ. eigenvalues --   -0.52226  -0.52124  -0.51916  -0.51471  -0.51257
 Alpha  occ. eigenvalues --   -0.51184  -0.51043  -0.50965  -0.50801  -0.50668
 Alpha  occ. eigenvalues --   -0.50553  -0.50441  -0.50069  -0.50008  -0.49892
 Alpha  occ. eigenvalues --   -0.49624  -0.49294  -0.48754  -0.48652  -0.48480
 Alpha  occ. eigenvalues --   -0.48394  -0.48336  -0.48214  -0.48091  -0.47536
 Alpha  occ. eigenvalues --   -0.47461  -0.47337  -0.47302  -0.47095  -0.46874
 Alpha  occ. eigenvalues --   -0.46681  -0.46457  -0.46058  -0.45960  -0.45845
 Alpha  occ. eigenvalues --   -0.45766  -0.45363  -0.45276  -0.45219  -0.44834
 Alpha  occ. eigenvalues --   -0.44634  -0.44317  -0.44214  -0.44138  -0.44033
 Alpha  occ. eigenvalues --   -0.43929  -0.43696  -0.43584  -0.43384  -0.42933
 Alpha  occ. eigenvalues --   -0.42557  -0.42515  -0.42088  -0.41975  -0.41877
 Alpha  occ. eigenvalues --   -0.41658  -0.41328  -0.41190  -0.40848  -0.40484
 Alpha  occ. eigenvalues --   -0.40265  -0.40144  -0.40008  -0.39183  -0.39151
 Alpha  occ. eigenvalues --   -0.38708  -0.38520  -0.38453  -0.38390  -0.38296
 Alpha  occ. eigenvalues --   -0.37603  -0.37041  -0.36658  -0.36291  -0.36215
 Alpha  occ. eigenvalues --   -0.35989  -0.35454  -0.35145  -0.33840  -0.33417
 Alpha  occ. eigenvalues --   -0.33005  -0.32331  -0.31828  -0.31413  -0.26202
 Alpha  occ. eigenvalues --   -0.23266
 Alpha virt. eigenvalues --   -0.07312  -0.00008   0.02328   0.04118   0.04332
 Alpha virt. eigenvalues --    0.07652   0.07766   0.08732   0.09007   0.09967
 Alpha virt. eigenvalues --    0.11023   0.11460   0.11774   0.11995   0.12373

 Mulliken charges:
               1
     1  Mg   0.960366
     2  C   -0.025749
     3  C   -0.105727
     4  C   -0.079447
     5  C   -0.062823
     6  N   -0.339463
     7  C   -0.025240
     8  C   -0.060587
     9  C   -0.084736
    10  C    0.077199
    11  C    0.033731
    12  C    0.026112
    13  C    0.007203
    14  C    0.177776
    15  O   -0.254792
    16  O   -0.366004
    17  N   -0.466602
    18  C    0.146167
    19  C   -0.162034
    20  C   -0.080939
    21  C    0.222773
    22  C    0.092375
    23  C    0.050838
    24  O   -0.235594
    25  C   -0.034503
    26  N   -0.351861
    27  C    0.000501
    28  C   -0.145893
    29  C   -0.006410
    30  C    0.054013
    31  C    0.031218
    32  C   -0.014386
    33  C   -0.071268
    34  N   -0.410906
    35  C    0.073834
    36  C   -0.189520
    37  C   -0.055656
    38  C    0.187924
    39  C    0.089322
    40  C    0.109410
    41  O   -0.210103
    42  C   -0.077937
    43  C    0.259615
    44  O   -0.198500
    45  O   -0.381917
    46  C    0.138873
    47  C    0.280089
    48  C   -0.161342
    49  C   -0.231232
    50  C    0.043674
    51  C    0.009186
    52  C   -0.068127
    53  C    0.044033
    54  C   -0.228158
    55  C    0.003977
    56  C    0.054006
    57  C   -0.066249
    58  C   -0.008421
    59  C   -0.156616
    60  C   -0.007260
    61  C    0.032523
    62  C   -0.054033
    63  C    0.034370
    64  C   -0.214419
    65  C   -0.013567
    66  C   -0.024606
    67  H   -0.004919
    68  H   -0.026115
    69  H   -0.004627
    70  H    0.030471
    71  H    0.031425
    72  H    0.032741
    73  H    0.026730
    74  H    0.053453
    75  H    0.034929
    76  H    0.055753
    77  H    0.037254
    78  H    0.065150
    79  H    0.074785
    80  H    0.014978
    81  H    0.056006
    82  H    0.058438
    83  H    0.070202
    84  H    0.053715
    85  H    0.041069
    86  H    0.036826
    87  H    0.036498
    88  H    0.057325
    89  H    0.041121
    90  H    0.036204
    91  H    0.031662
    92  H    0.028360
    93  H    0.043753
    94  H    0.040298
    95  H    0.011866
    96  H    0.056378
    97  H    0.072486
    98  H    0.066593
    99  H    0.056039
   100  H    0.070876
   101  H    0.042367
   102  H    0.070357
   103  H    0.064057
   104  H    0.036443
   105  H    0.050532
   106  H    0.055459
   107  H    0.038967
   108  H    0.037993
   109  H    0.011239
   110  H    0.037104
   111  H    0.027025
   112  H    0.032603
   113  H    0.020713
   114  H    0.026530
   115  H    0.028403
   116  H    0.017268
   117  H    0.023893
   118  H    0.024380
   119  H    0.003718
   120  H    0.009807
   121  H    0.014293
   122  H    0.001087
   123  H    0.029133
   124  H    0.018467
   125  H    0.027238
   126  H    0.020528
   127  H    0.016658
   128  H    0.017993
   129  H    0.028866
   130  H    0.006276
   131  H    0.020106
   132  H    0.023005
   133  H    0.028791
   134  H    0.028028
   135  H    0.025331
   136  H    0.014721
   137  H    0.040330
   138  H    0.029119
   139  H    0.033220
   140  H    0.021749
 Sum of Mulliken charges =  -0.00000

 Dipole moment (field-independent basis, Debye):
    X=              0.2785    Y=              2.9722    Z=              0.9619  Tot=              3.1364
 Quadrupole moment (field-independent basis, Debye-Ang):
   XX=           -378.6812   YY=           -431.4315   ZZ=           -384.4251
   XY=             46.1121   XZ=              2.0133   YZ=             14.8104

 Normal termination of Gaussian 16 at Wed May  4 02:35:21 2022.
