 Gaussian 16, Revision A.03,
 Gaussian 16:  ES64L-G16RevA.03 25-Dec-2016

 --------------------
 #p ZINDO=(nstates=5)
 --------------------

 ------------------------------
 step_1251_chromophore_20 ZINDO
 ------------------------------
 Symbolic Z-matrix:
 Charge =  0 Multiplicity = 1

                         Standard orientation:
 ---------------------------------------------------------------------
 Center     Atomic      Atomic             Coordinates (Angstroms)
 Number     Number       Type             X           Y           Z
 ---------------------------------------------------------------------
      1         12           0        4.122925    1.449428   -0.591720
      2          6           0        3.827162   -2.067384   -0.816581
      3          6           0        1.976871    1.689113   -3.165171
      4          6           0        3.780249    4.592575    0.231526
      5          6           0        6.060544    0.858536    2.451082
      6          7           0        2.877584   -0.068993   -1.719351
      7          6           0        3.000273   -1.444738   -1.728130
      8          6           0        2.248140   -2.072551   -2.908457
      9          6           0        1.977142   -0.798762   -3.808129
     10          6           0        2.252732    0.351210   -2.842510
     11          6           0        2.559732   -0.853504   -5.243203
     12          6           0        0.986429   -2.920470   -2.460704
     13          6           0        0.588412   -4.070875   -3.353218
     14          6           0       -0.269062   -5.186978   -2.672735
     15          8           0       -0.015027   -6.364138   -2.750014
     16          8           0       -1.390372   -4.669874   -2.154909
     17          7           0        3.074104    2.958433   -1.420675
     18          6           0        2.215752    2.901165   -2.454463
     19          6           0        1.623729    4.181381   -2.707756
     20          6           0        2.186652    5.115013   -1.775678
     21          6           0        3.051981    4.206455   -0.910331
     22          6           0        0.431296    4.399534   -3.728432
     23          6           0        1.805350    6.583019   -1.625094
     24          8           0        0.983676    7.165184   -2.346041
     25          6           0        2.566681    7.439561   -0.531041
     26          7           0        4.691438    2.508916    1.227739
     27          6           0        4.529023    3.845617    1.170101
     28          6           0        5.424361    4.486469    2.279406
     29          6           0        6.197227    3.287068    2.933426
     30          6           0        5.630991    2.144974    2.171737
     31          6           0        6.396176    5.560494    1.741379
     32          6           0        6.077593    3.234052    4.457904
     33          6           0        7.387434    3.213258    5.374104
     34          7           0        4.965476   -0.231232    0.511357
     35          6           0        5.752057   -0.335226    1.709012
     36          6           0        6.042192   -1.730871    1.912781
     37          6           0        5.344173   -2.411905    0.942071
     38          6           0        4.667892   -1.459629    0.134719
     39          6           0        6.872351   -2.376874    3.054073
     40          6           0        5.117163   -3.773854    0.446021
     41          8           0        5.621624   -4.859264    0.716814
     42          6           0        4.013311   -3.614819   -0.609822
     43          6           0        2.871206   -4.387872    0.032372
     44          8           0        2.172701   -4.006874    0.904936
     45          8           0        2.847413   -5.609738   -0.612261
     46          6           0        2.070201   -6.739544   -0.076264
     47          6           0       -2.220228   -5.575971   -1.312328
     48          6           0       -3.414371   -4.765880   -0.914700
     49          6           0       -4.287716   -5.011780    0.125001
     50          6           0       -4.316915   -6.215405    1.079856
     51          6           0       -5.379250   -3.976796    0.518683
     52          6           0       -5.061084   -3.271414    1.873814
     53          6           0       -6.152350   -3.556761    2.914122
     54          6           0       -6.610154   -2.166128    3.487697
     55          6           0       -6.677477   -2.312408    5.064440
     56          6           0       -7.938241   -1.627903    2.948832
     57          6           0       -7.848957   -0.128091    2.742277
     58          6           0       -7.214939    0.291042    1.394234
     59          6           0       -8.165407    1.159087    0.532623
     60          6           0       -7.882551    0.966323   -1.017250
     61          6           0       -8.183598    2.646201    1.077573
     62          6           0       -9.548565    3.323189    1.166191
     63          6           0       -9.622022    4.722242    0.488003
     64          6           0      -10.226689    4.561059   -0.951994
     65          6           0       -9.285955    5.060022   -2.073102
     66          6           0      -11.650168    5.225599   -1.092539
     67          1           0        1.480333    1.890430   -4.116269
     68          1           0        3.811862    5.614743    0.613588
     69          1           0        6.710641    0.649933    3.303851
     70          1           0        2.935890   -2.702541   -3.473496
     71          1           0        0.903044   -0.684600   -3.952921
     72          1           0        3.402066   -1.542989   -5.303109
     73          1           0        3.082275    0.079884   -5.450432
     74          1           0        1.836641   -1.046530   -6.035487
     75          1           0        0.111441   -2.271346   -2.471246
     76          1           0        1.162898   -3.283534   -1.448381
     77          1           0        1.592353   -4.469511   -3.500301
     78          1           0        0.081871   -3.919486   -4.306577
     79          1           0       -0.491348    4.533731   -3.165281
     80          1           0        0.437885    3.549545   -4.409799
     81          1           0        0.585689    5.230173   -4.418286
     82          1           0        3.628441    7.255667   -0.691862
     83          1           0        2.232717    7.144881    0.464819
     84          1           0        2.386957    8.499771   -0.709503
     85          1           0        4.644365    4.945503    2.885707
     86          1           0        7.223095    3.414504    2.587684
     87          1           0        5.872278    6.496791    1.934260
     88          1           0        6.615874    5.291376    0.708554
     89          1           0        7.241966    5.607219    2.428012
     90          1           0        5.633549    2.290939    4.775813
     91          1           0        5.359822    3.955846    4.845011
     92          1           0        8.260451    3.298588    4.728160
     93          1           0        7.548105    2.317792    5.975066
     94          1           0        7.377738    4.053852    6.067476
     95          1           0        7.199551   -1.554580    3.691119
     96          1           0        7.832540   -2.819556    2.791463
     97          1           0        6.183104   -3.099393    3.490986
     98          1           0        4.314975   -4.071061   -1.553363
     99          1           0        2.574258   -7.277176    0.727279
    100          1           0        1.875875   -7.506030   -0.826345
    101          1           0        1.127842   -6.320003    0.274820
    102          1           0       -1.617377   -5.921516   -0.471999
    103          1           0       -2.630933   -6.277551   -2.038550
    104          1           0       -3.519965   -3.795100   -1.399888
    105          1           0       -5.349385   -6.493000    1.290788
    106          1           0       -3.760041   -5.836169    1.936528
    107          1           0       -3.781040   -7.045177    0.619636
    108          1           0       -6.365998   -4.402588    0.334134
    109          1           0       -5.429822   -3.109210   -0.139495
    110          1           0       -4.732139   -2.252983    1.667284
    111          1           0       -4.180770   -3.657981    2.386222
    112          1           0       -5.782757   -4.213600    3.701693
    113          1           0       -7.021688   -3.919883    2.365813
    114          1           0       -5.852081   -1.414097    3.270643
    115          1           0       -6.656379   -3.375648    5.304436
    116          1           0       -7.537359   -1.805259    5.499943
    117          1           0       -5.853312   -1.806574    5.568792
    118          1           0       -8.823518   -1.820040    3.555996
    119          1           0       -8.030128   -2.152633    1.997436
    120          1           0       -7.131654    0.349059    3.409869
    121          1           0       -8.730935    0.404223    3.097533
    122          1           0       -7.097332   -0.703162    0.962718
    123          1           0       -6.229811    0.738589    1.526161
    124          1           0       -9.124793    0.653144    0.635158
    125          1           0       -6.998141    0.357822   -1.206405
    126          1           0       -7.905927    1.879052   -1.612147
    127          1           0       -8.661620    0.383560   -1.510155
    128          1           0       -7.612990    3.215307    0.344507
    129          1           0       -7.709966    2.667726    2.059191
    130          1           0       -9.672073    3.455760    2.241177
    131          1           0      -10.413071    2.690601    0.964902
    132          1           0       -8.584875    5.019533    0.334935
    133          1           0      -10.276702    5.361270    1.081339
    134          1           0      -10.360868    3.494846   -1.139405
    135          1           0       -8.679818    5.868436   -1.663543
    136          1           0       -9.814476    5.571781   -2.876403
    137          1           0       -8.723355    4.248180   -2.534448
    138          1           0      -12.308087    4.439291   -0.721766
    139          1           0      -11.879798    5.639753   -2.074388
    140          1           0      -11.892188    6.066850   -0.442881
 ---------------------------------------------------------------------

 SCF Done:  E(RZINDO/S) =  -474.073710685     A.U. after   19 cycles

 Excitation energies and oscillator strengths:

 Excited State   1:      Singlet-A      1.2538 eV  988.88 nm  f=0.5940  <S**2>=0.000
     175 ->178         0.18101
     176 ->177         0.66457
 This state for optimization and/or second-order correction.
 Total Energy, E(CIS/TDA) =  -474.027635202
 Copying the excited state density for this state as the 1-particle RhoCI density.

 Excited State   2:      Singlet-A      1.8887 eV  656.47 nm  f=0.0490  <S**2>=0.000
     175 ->177         0.55359
     176 ->178        -0.40627

 Excited State   3:      Singlet-A      2.9393 eV  421.81 nm  f=0.6693  <S**2>=0.000
     175 ->177         0.30261
     176 ->178         0.47397
     176 ->179         0.24378
     176 ->180         0.27621

 Excited State   4:      Singlet-A      3.0211 eV  410.39 nm  f=0.0984  <S**2>=0.000
     170 ->177        -0.25232
     170 ->179        -0.27575
     170 ->180         0.12781
     170 ->181         0.31068
     170 ->186        -0.10121
     170 ->188         0.14445
     170 ->202         0.10893
     175 ->177         0.12123
     176 ->178         0.13519
     176 ->179        -0.23088
     176 ->181         0.10412

 Excited State   5:      Singlet-A      3.0230 eV  410.13 nm  f=0.0023  <S**2>=0.000
     168 ->177        -0.30838
     168 ->178         0.20746
     168 ->179         0.36978
     168 ->181         0.26994
     168 ->184        -0.17643
     168 ->186         0.18782
     176 ->179        -0.10248
     176 ->180        -0.10937

 The electronic state is 1-A.
 Alpha  occ. eigenvalues --   -1.83202  -1.82121  -1.80296  -1.73670  -1.72082
 Alpha  occ. eigenvalues --   -1.70426  -1.66249  -1.60256  -1.56736  -1.56527
 Alpha  occ. eigenvalues --   -1.54029  -1.49861  -1.48926  -1.47417  -1.46437
 Alpha  occ. eigenvalues --   -1.45176  -1.44039  -1.40634  -1.37738  -1.37408
 Alpha  occ. eigenvalues --   -1.35582  -1.32585  -1.32007  -1.31024  -1.28541
 Alpha  occ. eigenvalues --   -1.27088  -1.26570  -1.22763  -1.20178  -1.18355
 Alpha  occ. eigenvalues --   -1.16986  -1.15292  -1.14935  -1.14143  -1.13361
 Alpha  occ. eigenvalues --   -1.13138  -1.09669  -1.09251  -1.05357  -1.02939
 Alpha  occ. eigenvalues --   -1.01657  -1.01462  -0.99122  -0.97756  -0.96666
 Alpha  occ. eigenvalues --   -0.95771  -0.94592  -0.94365  -0.93344  -0.92624
 Alpha  occ. eigenvalues --   -0.91639  -0.91383  -0.89241  -0.88516  -0.86567
 Alpha  occ. eigenvalues --   -0.85848  -0.84205  -0.83866  -0.81842  -0.79639
 Alpha  occ. eigenvalues --   -0.79350  -0.78708  -0.77799  -0.76658  -0.76053
 Alpha  occ. eigenvalues --   -0.75023  -0.74691  -0.74098  -0.73719  -0.73558
 Alpha  occ. eigenvalues --   -0.73302  -0.71762  -0.70974  -0.70638  -0.70596
 Alpha  occ. eigenvalues --   -0.70317  -0.69565  -0.69054  -0.68472  -0.67330
 Alpha  occ. eigenvalues --   -0.67239  -0.66882  -0.66626  -0.65468  -0.65284
 Alpha  occ. eigenvalues --   -0.64889  -0.64623  -0.64245  -0.63836  -0.63477
 Alpha  occ. eigenvalues --   -0.63169  -0.63126  -0.62872  -0.62417  -0.62031
 Alpha  occ. eigenvalues --   -0.61659  -0.61644  -0.61101  -0.60179  -0.60045
 Alpha  occ. eigenvalues --   -0.59730  -0.59133  -0.58666  -0.58296  -0.58160
 Alpha  occ. eigenvalues --   -0.57903  -0.57813  -0.57385  -0.56982  -0.56692
 Alpha  occ. eigenvalues --   -0.56274  -0.56018  -0.55553  -0.55200  -0.55089
 Alpha  occ. eigenvalues --   -0.54614  -0.54160  -0.53361  -0.53046  -0.52571
 Alpha  occ. eigenvalues --   -0.52424  -0.52212  -0.51760  -0.51707  -0.51448
 Alpha  occ. eigenvalues --   -0.51227  -0.51125  -0.50998  -0.50565  -0.50422
 Alpha  occ. eigenvalues --   -0.49787  -0.49674  -0.49294  -0.48872  -0.48656
 Alpha  occ. eigenvalues --   -0.48443  -0.48252  -0.48058  -0.47887  -0.47663
 Alpha  occ. eigenvalues --   -0.47404  -0.47239  -0.47165  -0.46757  -0.46575
 Alpha  occ. eigenvalues --   -0.46288  -0.45984  -0.45678  -0.45442  -0.45076
 Alpha  occ. eigenvalues --   -0.44975  -0.44638  -0.44253  -0.43840  -0.43704
 Alpha  occ. eigenvalues --   -0.43045  -0.42830  -0.42311  -0.42176  -0.42115
 Alpha  occ. eigenvalues --   -0.41497  -0.41330  -0.41090  -0.39149  -0.38195
 Alpha  occ. eigenvalues --   -0.38146  -0.37667  -0.36599  -0.34978  -0.34511
 Alpha  occ. eigenvalues --   -0.34196  -0.33004  -0.32390  -0.31260  -0.26914
 Alpha  occ. eigenvalues --   -0.22017
 Alpha virt. eigenvalues --   -0.08778  -0.02338  -0.00760   0.00742   0.01011
 Alpha virt. eigenvalues --    0.02626   0.02914   0.03730   0.04886   0.04905
 Alpha virt. eigenvalues --    0.05903   0.06765   0.07211   0.07593   0.07990

 Mulliken charges:
               1
     1  Mg   0.441088
     2  C   -0.041551
     3  C   -0.092641
     4  C   -0.096068
     5  C   -0.054093
     6  N   -0.291370
     7  C    0.107647
     8  C   -0.000180
     9  C    0.002265
    10  C    0.161272
    11  C   -0.047205
    12  C   -0.016590
    13  C   -0.003390
    14  C    0.467080
    15  O   -0.520302
    16  O   -0.274979
    17  N   -0.305031
    18  C    0.134964
    19  C    0.035807
    20  C   -0.055811
    21  C    0.143251
    22  C   -0.039943
    23  C    0.324600
    24  O   -0.512636
    25  C   -0.032182
    26  N   -0.271136
    27  C    0.143831
    28  C   -0.008334
    29  C    0.014375
    30  C    0.104395
    31  C   -0.055809
    32  C   -0.032874
    33  C   -0.061557
    34  N   -0.329168
    35  C    0.053903
    36  C    0.026176
    37  C   -0.056437
    38  C    0.128748
    39  C   -0.046697
    40  C    0.335997
    41  O   -0.526913
    42  C    0.045581
    43  C    0.504217
    44  O   -0.507411
    45  O   -0.282172
    46  C    0.075373
    47  C    0.108723
    48  C   -0.098560
    49  C   -0.020801
    50  C   -0.043802
    51  C   -0.030082
    52  C   -0.034233
    53  C   -0.037905
    54  C   -0.020132
    55  C   -0.069190
    56  C   -0.024126
    57  C   -0.044122
    58  C   -0.035218
    59  C   -0.016344
    60  C   -0.065981
    61  C   -0.027528
    62  C   -0.040637
    63  C   -0.035586
    64  C   -0.015754
    65  C   -0.060974
    66  C   -0.064887
    67  H    0.022919
    68  H    0.027262
    69  H    0.029689
    70  H    0.028718
    71  H    0.022123
    72  H    0.021635
    73  H    0.017442
    74  H    0.031601
    75  H    0.021075
    76  H    0.044010
    77  H    0.030226
    78  H    0.051454
    79  H    0.046700
    80  H    0.020636
    81  H    0.038532
    82  H    0.032845
    83  H    0.042951
    84  H    0.037346
    85  H    0.032443
    86  H    0.034941
    87  H    0.018925
    88  H    0.039163
    89  H    0.022076
    90  H    0.017493
    91  H    0.022884
    92  H    0.015951
    93  H    0.026215
    94  H    0.018817
    95  H    0.015300
    96  H    0.036782
    97  H    0.044326
    98  H    0.050988
    99  H    0.042502
   100  H    0.041647
   101  H    0.040493
   102  H    0.065464
   103  H    0.059440
   104  H    0.035021
   105  H    0.031401
   106  H    0.039016
   107  H    0.021136
   108  H    0.030302
   109  H    0.006459
   110  H    0.030200
   111  H    0.013233
   112  H    0.032774
   113  H    0.024053
   114  H    0.025893
   115  H    0.022701
   116  H    0.015387
   117  H    0.013540
   118  H    0.020965
   119  H    0.016680
   120  H    0.005148
   121  H    0.019817
   122  H    0.014629
   123  H    0.023901
   124  H    0.019136
   125  H    0.021196
   126  H    0.021023
   127  H    0.009840
   128  H    0.020815
   129  H    0.025955
   130  H    0.000061
   131  H    0.025654
   132  H    0.031252
   133  H    0.030153
   134  H    0.019857
   135  H    0.017745
   136  H    0.012686
   137  H    0.022844
   138  H    0.015155
   139  H    0.025172
   140  H    0.015234
 Sum of Mulliken charges =  -0.00000

 Dipole moment (field-independent basis, Debye):
    X=              1.2326    Y=              5.5259    Z=             -0.1642  Tot=              5.6641
 N-N= 4.445798337692D+03 E-N= 0.000000000000D+00  KE=-9.565881350585D+03
 Leave Link  601 at Wed May  4 02:47:56 2022, MaxMem=  6710886400 cpu:               0.8 elap:               0.1
 (Enter /sw/apps/gaussian-16.0/g16/l9999.exe)
 1\1\GINC-BP1-COMPUTE050\SP\RZINDO CIS\STO-3G\C55H74Mg1N4O6\OF15641\04-
 May-2022\0\\#p ZINDO=(nstates=5)\\step_1251_chromophore_20 ZINDO\\0,1\
 Mg,0,6.458,58.052,41.721\C,0,5.024,54.841,41.348\C,0,9.394,56.738,40.7
 52\C,0,7.465,61.125,41.255\C,0,3.053,59.25,42.298\N,0,7.061,56.018,40.
 929\C,0,6.351,54.834,40.972\C,0,7.253,53.623,40.702\C,0,8.688,54.27,40
 .868\C,0,8.384,55.765,40.81\C,0,9.59,53.634,41.956\C,0,6.939,52.91,39.
 322\C,0,7.229,51.431,39.239\C,0,6.453,50.653,38.127\O,0,5.847,49.629,3

 Normal termination of Gaussian 16 at Wed May  4 02:47:56 2022.
