 Gaussian 16, Revision A.03,
 Gaussian 16:  ES64L-G16RevA.03 25-Dec-2016

 ------------------------------
 #p blyp/Def2SVP td=(nstates=5)
 ------------------------------

 --------------------------------------------------
 step_601_chromophore_13 TDDFT with blyp functional
 --------------------------------------------------
 Symbolic Z-matrix:
 Charge =  0 Multiplicity = 1

                         Standard orientation:
 ---------------------------------------------------------------------
 Center     Atomic      Atomic             Coordinates (Angstroms)
 Number     Number       Type             X           Y           Z
 ---------------------------------------------------------------------
      1         12           0       -5.760462    0.365934   -0.155721
      2          6           0       -3.191002   -2.086497    0.079254
      3          6           0       -3.379039    2.850770    0.741293
      4          6           0       -8.218743    2.459445    0.110438
      5          6           0       -8.114243   -2.335486   -0.553565
      6          7           0       -3.541902    0.341005    0.398280
      7          6           0       -2.699314   -0.793827    0.259252
      8          6           0       -1.164531   -0.380207    0.403677
      9          6           0       -1.328699    1.141087    0.822565
     10          6           0       -2.863128    1.538004    0.639335
     11          6           0       -0.675888    1.506215    2.222235
     12          6           0       -0.303816   -0.671862   -0.795988
     13          6           0        0.833151   -1.692918   -0.497869
     14          6           0        2.220989   -1.423875   -1.018669
     15          8           0        2.509197   -0.651154   -1.870082
     16          8           0        3.102493   -2.351429   -0.440075
     17          7           0       -5.809217    2.346710    0.276924
     18          6           0       -4.780661    3.203664    0.488141
     19          6           0       -5.301280    4.542996    0.561427
     20          6           0       -6.707878    4.462845    0.587330
     21          6           0       -6.984002    3.055255    0.320946
     22          6           0       -4.399268    5.780921    0.600829
     23          6           0       -7.756526    5.611369    0.628417
     24          8           0       -8.984521    5.461673    0.674850
     25          6           0       -7.235338    6.991724    0.753677
     26          7           0       -7.837491    0.108572   -0.345173
     27          6           0       -8.630965    1.194402   -0.154004
     28          6           0      -10.096064    0.826562   -0.121314
     29          6           0      -10.054111   -0.673679   -0.573766
     30          6           0       -8.595413   -1.020597   -0.510068
     31          6           0      -10.810954    1.147031    1.217511
     32          6           0      -10.657231   -1.059324   -1.928863
     33          6           0      -10.117537   -0.470706   -3.218407
     34          7           0       -5.725994   -1.799750   -0.307883
     35          6           0       -6.748094   -2.693362   -0.537002
     36          6           0       -6.152911   -4.009674   -0.517809
     37          6           0       -4.766076   -3.845912   -0.365164
     38          6           0       -4.574058   -2.460227   -0.214746
     39          6           0       -6.878569   -5.308849   -0.657987
     40          6           0       -3.521390   -4.533128   -0.343247
     41          8           0       -3.171364   -5.696297   -0.377780
     42          6           0       -2.459257   -3.364157    0.039780
     43          6           0       -1.885050   -3.732640    1.364346
     44          8           0       -2.348654   -3.463605    2.448445
     45          8           0       -0.673468   -4.332865    1.181945
     46          6           0        0.315490   -4.551046    2.292621
     47          6           0        4.451084   -2.314402   -0.939427
     48          6           0        5.349983   -1.382168   -0.156135
     49          6           0        6.693590   -1.384347   -0.115655
     50          6           0        7.617914   -2.223643   -0.859933
     51          6           0        7.355282   -0.225305    0.698476
     52          6           0        7.137580    1.207491    0.129905
     53          6           0        8.267788    2.228646    0.129577
     54          6           0        8.898938    2.586631   -1.229954
     55          6           0        7.812387    3.357282   -2.093046
     56          6           0        9.312613    1.345599   -1.954791
     57          6           0       10.729490    1.569392   -2.573663
     58          6           0       11.829453    0.756483   -1.894368
     59          6           0       12.881667    1.598762   -1.223611
     60          6           0       13.922898    2.034110   -2.302354
     61          6           0       13.495861    0.698384   -0.199649
     62          6           0       13.070825    1.102850    1.210185
     63          6           0       12.734807   -0.187508    2.033114
     64          6           0       11.232464   -0.421739    2.116057
     65          6           0       10.708297    0.352693    3.374603
     66          6           0       10.951439   -1.999112    2.276071
     67          1           0       -2.579610    3.584115    0.863635
     68          1           0       -8.982243    3.235632    0.021498
     69          1           0       -8.909543   -3.083528   -0.552264
     70          1           0       -0.777256   -0.865336    1.299079
     71          1           0       -0.926590    1.859792    0.108875
     72          1           0        0.254526    0.975455    2.018563
     73          1           0       -1.129594    1.045433    3.099920
     74          1           0       -0.623857    2.593995    2.271987
     75          1           0        0.099979    0.300902   -1.077072
     76          1           0       -0.854042   -0.972365   -1.686760
     77          1           0        0.476737   -2.569705   -1.038512
     78          1           0        0.986108   -2.007255    0.533956
     79          1           0       -4.536724    6.362790    1.512193
     80          1           0       -4.566401    6.501273   -0.199475
     81          1           0       -3.324527    5.610310    0.670332
     82          1           0       -6.586874    7.031123    1.629695
     83          1           0       -8.045572    7.709503    0.877642
     84          1           0       -6.792163    7.155085   -0.229472
     85          1           0      -10.597174    1.437470   -0.872030
     86          1           0      -10.591571   -1.279630    0.155049
     87          1           0      -10.816736    2.217622    1.424893
     88          1           0      -10.314462    0.648666    2.050035
     89          1           0      -11.814612    0.817651    0.947404
     90          1           0      -11.684869   -0.696728   -1.950144
     91          1           0      -10.633829   -2.149091   -1.968567
     92          1           0       -9.299908    0.231816   -3.061240
     93          1           0      -10.911675    0.156039   -3.625218
     94          1           0       -9.832515   -1.293713   -3.873347
     95          1           0       -7.944779   -5.344198   -0.431476
     96          1           0       -6.241267   -6.001749   -0.109542
     97          1           0       -6.683523   -5.664614   -1.670055
     98          1           0       -1.675231   -3.322892   -0.716047
     99          1           0       -0.095602   -4.300973    3.271041
    100          1           0        1.226735   -3.980832    2.111032
    101          1           0        0.624912   -5.596564    2.259649
    102          1           0        4.529347   -2.029924   -1.988265
    103          1           0        4.939336   -3.278525   -0.802598
    104          1           0        4.764415   -0.685701    0.443913
    105          1           0        8.273285   -2.747590   -0.164010
    106          1           0        8.178986   -1.560802   -1.519090
    107          1           0        7.155133   -3.025226   -1.436304
    108          1           0        8.442582   -0.290761    0.656666
    109          1           0        7.109230   -0.291581    1.757804
    110          1           0        6.256210    1.744678    0.481105
    111          1           0        6.952111    0.913191   -0.903219
    112          1           0        9.122340    1.793131    0.647541
    113          1           0        7.893940    3.083500    0.692518
    114          1           0        9.779757    3.161510   -0.944524
    115          1           0        7.472815    2.692024   -2.887381
    116          1           0        8.175150    4.287525   -2.530713
    117          1           0        6.879088    3.532335   -1.557174
    118          1           0        8.633416    0.992589   -2.729588
    119          1           0        9.363908    0.475639   -1.299133
    120          1           0       10.993168    2.600561   -2.808420
    121          1           0       10.667997    1.120613   -3.565373
    122          1           0       12.356265    0.091917   -2.578364
    123          1           0       11.302015    0.227458   -1.100663
    124          1           0       12.409613    2.517793   -0.874705
    125          1           0       14.750688    1.354582   -2.504181
    126          1           0       14.358253    2.957100   -1.918457
    127          1           0       13.342736    2.235075   -3.203306
    128          1           0       14.568314    0.891292   -0.246491
    129          1           0       13.408934   -0.373360   -0.381855
    130          1           0       12.154286    1.690957    1.150049
    131          1           0       13.725204    1.711701    1.832656
    132          1           0       13.182022    0.012957    3.006454
    133          1           0       13.332576   -1.004764    1.627496
    134          1           0       10.840919   -0.116877    1.145285
    135          1           0        9.739589    0.844172    3.282538
    136          1           0       11.331963    1.167731    3.743035
    137          1           0       10.529597   -0.439160    4.101859
    138          1           0       11.863125   -2.542114    2.023568
    139          1           0       10.231053   -2.317431    1.522464
    140          1           0       10.514966   -2.265752    3.238736
 ---------------------------------------------------------------------

 SCF Done:  E(RB-LYP) =  -3007.36493569     A.U. after   21 cycles

 Excitation energies and oscillator strengths:

 Excited State   1:      Singlet-A      1.8097 eV  685.09 nm  f=0.3142  <S**2>=0.000
     245 -> 248       -0.17421
     246 -> 247        0.69131
     246 <- 247       -0.15569
 This state for optimization and/or second-order correction.
 Total Energy, E(TD-HF/TD-DFT) =  -3007.29842873
 Copying the excited state density for this state as the 1-particle RhoCI density.

 Excited State   2:      Singlet-A      1.9307 eV  642.16 nm  f=0.0305  <S**2>=0.000
     243 -> 247       -0.23429
     244 -> 247        0.52304
     245 -> 247       -0.39498

 Excited State   3:      Singlet-A      1.9754 eV  627.64 nm  f=0.0077  <S**2>=0.000
     243 -> 247        0.56007
     244 -> 247        0.38933
     245 -> 247        0.17036

 Excited State   4:      Singlet-A      2.0446 eV  606.40 nm  f=0.0678  <S**2>=0.000
     243 -> 247       -0.35906
     244 -> 247        0.26694
     245 -> 247        0.50134
     246 -> 248        0.17972

 Excited State   5:      Singlet-A      2.1994 eV  563.72 nm  f=0.0000  <S**2>=0.000
     242 -> 247        0.70711

 The electronic state is 1-A.
 Alpha  occ. eigenvalues --  -46.27194 -18.81986 -18.80970 -18.77693 -18.76108
 Alpha  occ. eigenvalues --  -18.75886 -18.75758 -14.03146 -14.03106 -14.01426
 Alpha  occ. eigenvalues --  -14.00621 -10.04246 -10.03137 -10.00442  -9.99598
 Alpha  occ. eigenvalues --   -9.97825  -9.97496  -9.96959  -9.96836  -9.96332
 Alpha  occ. eigenvalues --   -9.96150  -9.95780  -9.95764  -9.95283  -9.94549
 Alpha  occ. eigenvalues --   -9.94431  -9.94216  -9.94185  -9.93825  -9.93649
 Alpha  occ. eigenvalues --   -9.93542  -9.93478  -9.93414  -9.93351  -9.93298
 Alpha  occ. eigenvalues --   -9.93265  -9.93122  -9.93090  -9.92993  -9.92904
 Alpha  occ. eigenvalues --   -9.92685  -9.92524  -9.92467  -9.92434  -9.92354
 Alpha  occ. eigenvalues --   -9.92066  -9.92061  -9.91884  -9.91842  -9.91634
 Alpha  occ. eigenvalues --   -9.91377  -9.91310  -9.91145  -9.91119  -9.91011
 Alpha  occ. eigenvalues --   -9.90989  -9.90837  -9.90753  -9.90742  -9.90683
 Alpha  occ. eigenvalues --   -9.90652  -9.90642  -9.90632  -9.90479  -9.90462
 Alpha  occ. eigenvalues --   -9.90403  -2.91756  -1.72196  -1.71636  -1.71463
 Alpha  occ. eigenvalues --   -0.98523  -0.96597  -0.91640  -0.91543  -0.91245
 Alpha  occ. eigenvalues --   -0.88920  -0.86691  -0.86136  -0.85630  -0.82750
 Alpha  occ. eigenvalues --   -0.75214  -0.74351  -0.73569  -0.72836  -0.72726
 Alpha  occ. eigenvalues --   -0.72322  -0.71930  -0.71095  -0.70630  -0.70366
 Alpha  occ. eigenvalues --   -0.69821  -0.69020  -0.67924  -0.67816  -0.67300
 Alpha  occ. eigenvalues --   -0.66339  -0.66040  -0.65592  -0.65199  -0.64602
 Alpha  occ. eigenvalues --   -0.63893  -0.62812  -0.62610  -0.62209  -0.60590
 Alpha  occ. eigenvalues --   -0.60253  -0.60065  -0.59947  -0.59421  -0.58920
 Alpha  occ. eigenvalues --   -0.58386  -0.57751  -0.56438  -0.55596  -0.55050
 Alpha  occ. eigenvalues --   -0.54354  -0.54010  -0.53065  -0.52754  -0.51389
 Alpha  occ. eigenvalues --   -0.51252  -0.51110  -0.50222  -0.50165  -0.49922
 Alpha  occ. eigenvalues --   -0.49243  -0.49060  -0.47721  -0.47642  -0.47005
 Alpha  occ. eigenvalues --   -0.46519  -0.46261  -0.45259  -0.45057  -0.44563
 Alpha  occ. eigenvalues --   -0.44413  -0.43901  -0.42871  -0.42502  -0.42394
 Alpha  occ. eigenvalues --   -0.42349  -0.42135  -0.41657  -0.41456  -0.41240
 Alpha  occ. eigenvalues --   -0.41022  -0.40916  -0.40812  -0.40373  -0.40209
 Alpha  occ. eigenvalues --   -0.39883  -0.39708  -0.39628  -0.39305  -0.39204
 Alpha  occ. eigenvalues --   -0.39081  -0.38756  -0.38612  -0.38338  -0.38224
 Alpha  occ. eigenvalues --   -0.38024  -0.37754  -0.37604  -0.37393  -0.37288
 Alpha  occ. eigenvalues --   -0.37120  -0.36985  -0.36922  -0.36819  -0.36613
 Alpha  occ. eigenvalues --   -0.36454  -0.36383  -0.36359  -0.35966  -0.35829
 Alpha  occ. eigenvalues --   -0.35652  -0.35315  -0.35039  -0.34819  -0.34619
 Alpha  occ. eigenvalues --   -0.34399  -0.34293  -0.34096  -0.33888  -0.33653
 Alpha  occ. eigenvalues --   -0.33504  -0.33462  -0.33397  -0.33192  -0.33099
 Alpha  occ. eigenvalues --   -0.32936  -0.32768  -0.32643  -0.32366  -0.32270
 Alpha  occ. eigenvalues --   -0.32075  -0.31926  -0.31744  -0.31674  -0.31577
 Alpha  occ. eigenvalues --   -0.31370  -0.31155  -0.30951  -0.30937  -0.30827
 Alpha  occ. eigenvalues --   -0.30562  -0.30518  -0.30451  -0.30154  -0.30126
 Alpha  occ. eigenvalues --   -0.29846  -0.29732  -0.29463  -0.29243  -0.28590
 Alpha  occ. eigenvalues --   -0.28546  -0.28379  -0.28230  -0.28122  -0.27836
 Alpha  occ. eigenvalues --   -0.27574  -0.27493  -0.27010  -0.26877  -0.26438
 Alpha  occ. eigenvalues --   -0.26424  -0.26191  -0.25225  -0.24697  -0.24559
 Alpha  occ. eigenvalues --   -0.24532  -0.24214  -0.23705  -0.23683  -0.23535
 Alpha  occ. eigenvalues --   -0.22846  -0.22595  -0.22101  -0.21358  -0.21194
 Alpha  occ. eigenvalues --   -0.20331  -0.19850  -0.18989  -0.18862  -0.17255
 Alpha  occ. eigenvalues --   -0.15973
 Alpha virt. eigenvalues --   -0.11768  -0.06771  -0.06042  -0.04654  -0.02557
 Alpha virt. eigenvalues --   -0.02015  -0.01399  -0.01276  -0.01122   0.00179
 Alpha virt. eigenvalues --    0.01208   0.01545   0.01767   0.02257   0.02456

 Mulliken charges:
               1
     1  Mg   0.688458
     2  C    0.084683
     3  C   -0.053661
     4  C   -0.055380
     5  C   -0.086274
     6  N   -0.245670
     7  C   -0.093669
     8  C    0.023118
     9  C   -0.049342
    10  C    0.033028
    11  C    0.117026
    12  C    0.178171
    13  C    0.077217
    14  C    0.058047
    15  O   -0.138978
    16  O   -0.288632
    17  N   -0.298384
    18  C    0.133451
    19  C   -0.129205
    20  C    0.029159
    21  C    0.070370
    22  C    0.169264
    23  C   -0.075167
    24  O   -0.173280
    25  C    0.161051
    26  N   -0.229554
    27  C    0.047886
    28  C    0.021345
    29  C    0.068165
    30  C    0.004842
    31  C    0.130612
    32  C    0.062952
    33  C    0.074382
    34  N   -0.219681
    35  C    0.136664
    36  C   -0.196614
    37  C    0.114421
    38  C    0.036130
    39  C    0.188369
    40  C   -0.058366
    41  O   -0.118573
    42  C   -0.004727
    43  C    0.116804
    44  O   -0.165480
    45  O   -0.286759
    46  C    0.199494
    47  C    0.326252
    48  C   -0.118842
    49  C   -0.154596
    50  C    0.168173
    51  C    0.135419
    52  C    0.040022
    53  C    0.078378
    54  C   -0.041587
    55  C    0.120463
    56  C    0.078247
    57  C    0.095592
    58  C    0.086788
    59  C   -0.106873
    60  C    0.105082
    61  C    0.181814
    62  C    0.042570
    63  C    0.069120
    64  C   -0.103605
    65  C    0.104512
    66  C    0.091864
    67  H   -0.055313
    68  H   -0.038517
    69  H   -0.057418
    70  H   -0.014821
    71  H   -0.024432
    72  H   -0.003556
    73  H    0.010920
    74  H    0.001995
    75  H   -0.019882
    76  H   -0.015950
    77  H    0.027311
    78  H    0.006915
    79  H   -0.015114
    80  H    0.000045
    81  H   -0.022917
    82  H    0.018729
    83  H   -0.011921
    84  H    0.008053
    85  H   -0.034401
    86  H   -0.042555
    87  H    0.010385
    88  H   -0.000043
    89  H   -0.003162
    90  H   -0.026000
    91  H   -0.021982
    92  H   -0.004222
    93  H   -0.013657
    94  H    0.001826
    95  H    0.000930
    96  H    0.001216
    97  H   -0.004143
    98  H   -0.011896
    99  H    0.026960
   100  H    0.020305
   101  H    0.021646
   102  H    0.002495
   103  H   -0.003651
   104  H   -0.038794
   105  H    0.004603
   106  H    0.003578
   107  H   -0.027200
   108  H   -0.050647
   109  H   -0.019961
   110  H   -0.027237
   111  H   -0.030196
   112  H   -0.037360
   113  H   -0.035730
   114  H   -0.032312
   115  H   -0.025785
   116  H   -0.008802
   117  H   -0.020373
   118  H   -0.026372
   119  H   -0.036309
   120  H   -0.023724
   121  H   -0.060785
   122  H   -0.031559
   123  H   -0.043499
   124  H   -0.034940
   125  H   -0.011469
   126  H   -0.020824
   127  H   -0.021906
   128  H   -0.055879
   129  H   -0.026655
   130  H   -0.033344
   131  H   -0.033272
   132  H   -0.047000
   133  H   -0.036022
   134  H    0.012556
   135  H   -0.019554
   136  H   -0.006873
   137  H   -0.017717
   138  H   -0.016877
   139  H   -0.025244
   140  H   -0.007197
 Sum of Mulliken charges =  -0.00000

 Dipole moment (field-independent basis, Debye):
    X=              1.8612    Y=              2.8010    Z=             -1.0152  Tot=              3.5129
 Quadrupole moment (field-independent basis, Debye-Ang):
   XX=           -376.8135   YY=           -416.0654   ZZ=           -409.8585
   XY=              0.9975   XZ=             17.5558   YZ=              4.0471

 Normal termination of Gaussian 16 at Sat Apr 30 05:39:54 2022.
