 Gaussian 16, Revision A.03,
 Gaussian 16:  ES64L-G16RevA.03 25-Dec-2016

 -----------------------------------
 #p cam-b3lyp/Def2SVP td=(nstates=5)
 -----------------------------------

 -------------------------------------------------------
 step_601_chromophore_13 TDDFT with cam-b3lyp functional
 -------------------------------------------------------
 Symbolic Z-matrix:
 Charge =  0 Multiplicity = 1

                         Standard orientation:
 ---------------------------------------------------------------------
 Center     Atomic      Atomic             Coordinates (Angstroms)
 Number     Number       Type             X           Y           Z
 ---------------------------------------------------------------------
      1         12           0       -5.760462    0.365934   -0.155721
      2          6           0       -3.191002   -2.086497    0.079254
      3          6           0       -3.379039    2.850770    0.741293
      4          6           0       -8.218743    2.459445    0.110438
      5          6           0       -8.114243   -2.335486   -0.553565
      6          7           0       -3.541902    0.341005    0.398280
      7          6           0       -2.699314   -0.793827    0.259252
      8          6           0       -1.164531   -0.380207    0.403677
      9          6           0       -1.328699    1.141087    0.822565
     10          6           0       -2.863128    1.538004    0.639335
     11          6           0       -0.675888    1.506215    2.222235
     12          6           0       -0.303816   -0.671862   -0.795988
     13          6           0        0.833151   -1.692918   -0.497869
     14          6           0        2.220989   -1.423875   -1.018669
     15          8           0        2.509197   -0.651154   -1.870082
     16          8           0        3.102493   -2.351429   -0.440075
     17          7           0       -5.809217    2.346710    0.276924
     18          6           0       -4.780661    3.203664    0.488141
     19          6           0       -5.301280    4.542996    0.561427
     20          6           0       -6.707878    4.462845    0.587330
     21          6           0       -6.984002    3.055255    0.320946
     22          6           0       -4.399268    5.780921    0.600829
     23          6           0       -7.756526    5.611369    0.628417
     24          8           0       -8.984521    5.461673    0.674850
     25          6           0       -7.235338    6.991724    0.753677
     26          7           0       -7.837491    0.108572   -0.345173
     27          6           0       -8.630965    1.194402   -0.154004
     28          6           0      -10.096064    0.826562   -0.121314
     29          6           0      -10.054111   -0.673679   -0.573766
     30          6           0       -8.595413   -1.020597   -0.510068
     31          6           0      -10.810954    1.147031    1.217511
     32          6           0      -10.657231   -1.059324   -1.928863
     33          6           0      -10.117537   -0.470706   -3.218407
     34          7           0       -5.725994   -1.799750   -0.307883
     35          6           0       -6.748094   -2.693362   -0.537002
     36          6           0       -6.152911   -4.009674   -0.517809
     37          6           0       -4.766076   -3.845912   -0.365164
     38          6           0       -4.574058   -2.460227   -0.214746
     39          6           0       -6.878569   -5.308849   -0.657987
     40          6           0       -3.521390   -4.533128   -0.343247
     41          8           0       -3.171364   -5.696297   -0.377780
     42          6           0       -2.459257   -3.364157    0.039780
     43          6           0       -1.885050   -3.732640    1.364346
     44          8           0       -2.348654   -3.463605    2.448445
     45          8           0       -0.673468   -4.332865    1.181945
     46          6           0        0.315490   -4.551046    2.292621
     47          6           0        4.451084   -2.314402   -0.939427
     48          6           0        5.349983   -1.382168   -0.156135
     49          6           0        6.693590   -1.384347   -0.115655
     50          6           0        7.617914   -2.223643   -0.859933
     51          6           0        7.355282   -0.225305    0.698476
     52          6           0        7.137580    1.207491    0.129905
     53          6           0        8.267788    2.228646    0.129577
     54          6           0        8.898938    2.586631   -1.229954
     55          6           0        7.812387    3.357282   -2.093046
     56          6           0        9.312613    1.345599   -1.954791
     57          6           0       10.729490    1.569392   -2.573663
     58          6           0       11.829453    0.756483   -1.894368
     59          6           0       12.881667    1.598762   -1.223611
     60          6           0       13.922898    2.034110   -2.302354
     61          6           0       13.495861    0.698384   -0.199649
     62          6           0       13.070825    1.102850    1.210185
     63          6           0       12.734807   -0.187508    2.033114
     64          6           0       11.232464   -0.421739    2.116057
     65          6           0       10.708297    0.352693    3.374603
     66          6           0       10.951439   -1.999112    2.276071
     67          1           0       -2.579610    3.584115    0.863635
     68          1           0       -8.982243    3.235632    0.021498
     69          1           0       -8.909543   -3.083528   -0.552264
     70          1           0       -0.777256   -0.865336    1.299079
     71          1           0       -0.926590    1.859792    0.108875
     72          1           0        0.254526    0.975455    2.018563
     73          1           0       -1.129594    1.045433    3.099920
     74          1           0       -0.623857    2.593995    2.271987
     75          1           0        0.099979    0.300902   -1.077072
     76          1           0       -0.854042   -0.972365   -1.686760
     77          1           0        0.476737   -2.569705   -1.038512
     78          1           0        0.986108   -2.007255    0.533956
     79          1           0       -4.536724    6.362790    1.512193
     80          1           0       -4.566401    6.501273   -0.199475
     81          1           0       -3.324527    5.610310    0.670332
     82          1           0       -6.586874    7.031123    1.629695
     83          1           0       -8.045572    7.709503    0.877642
     84          1           0       -6.792163    7.155085   -0.229472
     85          1           0      -10.597174    1.437470   -0.872030
     86          1           0      -10.591571   -1.279630    0.155049
     87          1           0      -10.816736    2.217622    1.424893
     88          1           0      -10.314462    0.648666    2.050035
     89          1           0      -11.814612    0.817651    0.947404
     90          1           0      -11.684869   -0.696728   -1.950144
     91          1           0      -10.633829   -2.149091   -1.968567
     92          1           0       -9.299908    0.231816   -3.061240
     93          1           0      -10.911675    0.156039   -3.625218
     94          1           0       -9.832515   -1.293713   -3.873347
     95          1           0       -7.944779   -5.344198   -0.431476
     96          1           0       -6.241267   -6.001749   -0.109542
     97          1           0       -6.683523   -5.664614   -1.670055
     98          1           0       -1.675231   -3.322892   -0.716047
     99          1           0       -0.095602   -4.300973    3.271041
    100          1           0        1.226735   -3.980832    2.111032
    101          1           0        0.624912   -5.596564    2.259649
    102          1           0        4.529347   -2.029924   -1.988265
    103          1           0        4.939336   -3.278525   -0.802598
    104          1           0        4.764415   -0.685701    0.443913
    105          1           0        8.273285   -2.747590   -0.164010
    106          1           0        8.178986   -1.560802   -1.519090
    107          1           0        7.155133   -3.025226   -1.436304
    108          1           0        8.442582   -0.290761    0.656666
    109          1           0        7.109230   -0.291581    1.757804
    110          1           0        6.256210    1.744678    0.481105
    111          1           0        6.952111    0.913191   -0.903219
    112          1           0        9.122340    1.793131    0.647541
    113          1           0        7.893940    3.083500    0.692518
    114          1           0        9.779757    3.161510   -0.944524
    115          1           0        7.472815    2.692024   -2.887381
    116          1           0        8.175150    4.287525   -2.530713
    117          1           0        6.879088    3.532335   -1.557174
    118          1           0        8.633416    0.992589   -2.729588
    119          1           0        9.363908    0.475639   -1.299133
    120          1           0       10.993168    2.600561   -2.808420
    121          1           0       10.667997    1.120613   -3.565373
    122          1           0       12.356265    0.091917   -2.578364
    123          1           0       11.302015    0.227458   -1.100663
    124          1           0       12.409613    2.517793   -0.874705
    125          1           0       14.750688    1.354582   -2.504181
    126          1           0       14.358253    2.957100   -1.918457
    127          1           0       13.342736    2.235075   -3.203306
    128          1           0       14.568314    0.891292   -0.246491
    129          1           0       13.408934   -0.373360   -0.381855
    130          1           0       12.154286    1.690957    1.150049
    131          1           0       13.725204    1.711701    1.832656
    132          1           0       13.182022    0.012957    3.006454
    133          1           0       13.332576   -1.004764    1.627496
    134          1           0       10.840919   -0.116877    1.145285
    135          1           0        9.739589    0.844172    3.282538
    136          1           0       11.331963    1.167731    3.743035
    137          1           0       10.529597   -0.439160    4.101859
    138          1           0       11.863125   -2.542114    2.023568
    139          1           0       10.231053   -2.317431    1.522464
    140          1           0       10.514966   -2.265752    3.238736
 ---------------------------------------------------------------------

 SCF Done:  E(RCAM-B3LYP) =  -3007.16609052     A.U. after   19 cycles

 Excitation energies and oscillator strengths:

 Excited State   1:      Singlet-A      1.6908 eV  733.29 nm  f=0.3998  <S**2>=0.000
     245 -> 248       -0.16790
     246 -> 247        0.68828
     245 <- 248       -0.10447
 This state for optimization and/or second-order correction.
 Total Energy, E(TD-HF/TD-DFT) =  -3007.10395531
 Copying the excited state density for this state as the 1-particle RhoCI density.

 Excited State   2:      Singlet-A      2.2018 eV  563.09 nm  f=0.1542  <S**2>=0.000
     245 -> 247        0.65549
     246 -> 248        0.25235

 Excited State   3:      Singlet-A      3.3331 eV  371.98 nm  f=0.0042  <S**2>=0.000
     241 -> 247       -0.13658
     244 -> 247        0.67627

 Excited State   4:      Singlet-A      3.5426 eV  349.98 nm  f=0.0127  <S**2>=0.000
     241 -> 249       -0.10827
     242 -> 247        0.58369
     242 -> 249        0.26011
     242 -> 250       -0.17168

 Excited State   5:      Singlet-A      3.5803 eV  346.30 nm  f=0.1708  <S**2>=0.000
     239 -> 247        0.16694
     240 -> 247       -0.20469
     241 -> 247        0.45619
     245 -> 247        0.12433
     246 -> 248       -0.42875

 The electronic state is 1-A.
 Alpha  occ. eigenvalues --  -46.88777 -19.24875 -19.23812 -19.20756 -19.19570
 Alpha  occ. eigenvalues --  -19.18850 -19.18747 -14.42120 -14.41897 -14.40082
 Alpha  occ. eigenvalues --  -14.38887 -10.39549 -10.38444 -10.35927 -10.34835
 Alpha  occ. eigenvalues --  -10.31858 -10.31567 -10.31461 -10.31422 -10.31043
 Alpha  occ. eigenvalues --  -10.30423 -10.30347 -10.30331 -10.29163 -10.29076
 Alpha  occ. eigenvalues --  -10.28706 -10.28518 -10.28342 -10.27973 -10.27886
 Alpha  occ. eigenvalues --  -10.27646 -10.27611 -10.27593 -10.27419 -10.27407
 Alpha  occ. eigenvalues --  -10.27235 -10.27209 -10.27173 -10.27158 -10.26676
 Alpha  occ. eigenvalues --  -10.26580 -10.26478 -10.26286 -10.26145 -10.26054
 Alpha  occ. eigenvalues --  -10.26026 -10.25628 -10.25627 -10.25589 -10.25581
 Alpha  occ. eigenvalues --  -10.25304 -10.25153 -10.24786 -10.24777 -10.24662
 Alpha  occ. eigenvalues --  -10.24660 -10.24526 -10.24397 -10.24373 -10.24364
 Alpha  occ. eigenvalues --  -10.24316 -10.24311 -10.24248 -10.24085 -10.24078
 Alpha  occ. eigenvalues --  -10.24071  -3.17239  -1.92157  -1.91689  -1.91540
 Alpha  occ. eigenvalues --   -1.17088  -1.15072  -1.09868  -1.09865  -1.09455
 Alpha  occ. eigenvalues --   -1.06739  -1.04500  -1.03792  -1.03190  -1.00218
 Alpha  occ. eigenvalues --   -0.92219  -0.91275  -0.90446  -0.89603  -0.89473
 Alpha  occ. eigenvalues --   -0.89059  -0.88621  -0.87717  -0.87563  -0.86910
 Alpha  occ. eigenvalues --   -0.86259  -0.85362  -0.84173  -0.83944  -0.83461
 Alpha  occ. eigenvalues --   -0.82594  -0.82228  -0.81552  -0.80997  -0.80414
 Alpha  occ. eigenvalues --   -0.79686  -0.78645  -0.78217  -0.77707  -0.75972
 Alpha  occ. eigenvalues --   -0.75598  -0.75365  -0.75293  -0.74701  -0.74162
 Alpha  occ. eigenvalues --   -0.73418  -0.72710  -0.71347  -0.70411  -0.69665
 Alpha  occ. eigenvalues --   -0.69009  -0.68556  -0.67565  -0.67395  -0.65651
 Alpha  occ. eigenvalues --   -0.65334  -0.65186  -0.64221  -0.64067  -0.63943
 Alpha  occ. eigenvalues --   -0.63037  -0.62944  -0.61421  -0.61262  -0.60812
 Alpha  occ. eigenvalues --   -0.60080  -0.59713  -0.58770  -0.58483  -0.58096
 Alpha  occ. eigenvalues --   -0.57810  -0.57381  -0.56197  -0.55744  -0.55509
 Alpha  occ. eigenvalues --   -0.55284  -0.54944  -0.54710  -0.54626  -0.54020
 Alpha  occ. eigenvalues --   -0.53936  -0.53780  -0.53607  -0.53215  -0.53001
 Alpha  occ. eigenvalues --   -0.52640  -0.52523  -0.52234  -0.52058  -0.51926
 Alpha  occ. eigenvalues --   -0.51586  -0.51258  -0.51123  -0.50962  -0.50791
 Alpha  occ. eigenvalues --   -0.50449  -0.50313  -0.50204  -0.49753  -0.49607
 Alpha  occ. eigenvalues --   -0.49407  -0.49363  -0.49200  -0.49079  -0.49019
 Alpha  occ. eigenvalues --   -0.48867  -0.48816  -0.48435  -0.48256  -0.48032
 Alpha  occ. eigenvalues --   -0.47938  -0.47521  -0.46870  -0.46826  -0.46590
 Alpha  occ. eigenvalues --   -0.46465  -0.46096  -0.45900  -0.45602  -0.45510
 Alpha  occ. eigenvalues --   -0.45399  -0.45155  -0.45077  -0.44899  -0.44806
 Alpha  occ. eigenvalues --   -0.44699  -0.44515  -0.44202  -0.44099  -0.43946
 Alpha  occ. eigenvalues --   -0.43603  -0.43486  -0.43414  -0.43239  -0.43102
 Alpha  occ. eigenvalues --   -0.43001  -0.42891  -0.42783  -0.42352  -0.42265
 Alpha  occ. eigenvalues --   -0.42199  -0.41790  -0.41682  -0.41347  -0.41221
 Alpha  occ. eigenvalues --   -0.41109  -0.40932  -0.40861  -0.40577  -0.40344
 Alpha  occ. eigenvalues --   -0.39636  -0.39534  -0.39347  -0.39024  -0.38722
 Alpha  occ. eigenvalues --   -0.38552  -0.38417  -0.37933  -0.37739  -0.37644
 Alpha  occ. eigenvalues --   -0.37171  -0.36706  -0.35834  -0.35783  -0.35700
 Alpha  occ. eigenvalues --   -0.35586  -0.35134  -0.34847  -0.34149  -0.33995
 Alpha  occ. eigenvalues --   -0.33692  -0.33335  -0.32986  -0.31635  -0.31339
 Alpha  occ. eigenvalues --   -0.30834  -0.30463  -0.29490  -0.29370  -0.24016
 Alpha  occ. eigenvalues --   -0.21325
 Alpha virt. eigenvalues --   -0.09051  -0.01413   0.00442   0.02272   0.02943
 Alpha virt. eigenvalues --    0.05230   0.05832   0.06154   0.06509   0.06907
 Alpha virt. eigenvalues --    0.07676   0.07937   0.08570   0.08583   0.08869

 Mulliken charges:
               1
     1  Mg   0.820534
     2  C    0.052623
     3  C   -0.070536
     4  C   -0.075199
     5  C   -0.083491
     6  N   -0.317112
     7  C   -0.041982
     8  C   -0.029875
     9  C   -0.096267
    10  C    0.057311
    11  C    0.064586
    12  C    0.120342
    13  C    0.004674
    14  C    0.145913
    15  O   -0.178661
    16  O   -0.353390
    17  N   -0.388988
    18  C    0.148619
    19  C   -0.140326
    20  C   -0.031630
    21  C    0.096980
    22  C    0.109408
    23  C    0.008989
    24  O   -0.212499
    25  C    0.072214
    26  N   -0.299587
    27  C    0.067441
    28  C   -0.039334
    29  C    0.007906
    30  C    0.016383
    31  C    0.077606
    32  C    0.015580
    33  C    0.010653
    34  N   -0.307271
    35  C    0.135322
    36  C   -0.187297
    37  C    0.026596
    38  C    0.076401
    39  C    0.132870
    40  C    0.040339
    41  O   -0.159334
    42  C   -0.082675
    43  C    0.206454
    44  O   -0.203131
    45  O   -0.352491
    46  C    0.168128
    47  C    0.286812
    48  C   -0.129394
    49  C   -0.184379
    50  C    0.105289
    51  C    0.091911
    52  C   -0.018228
    53  C    0.036377
    54  C   -0.096267
    55  C    0.059630
    56  C    0.028238
    57  C    0.033781
    58  C    0.042100
    59  C   -0.163990
    60  C    0.049601
    61  C    0.115574
    62  C   -0.003528
    63  C    0.015664
    64  C   -0.159821
    65  C    0.050479
    66  C    0.043089
    67  H   -0.022645
    68  H    0.001415
    69  H   -0.021338
    70  H    0.019040
    71  H    0.008817
    72  H    0.017516
    73  H    0.035637
    74  H    0.023715
    75  H    0.014384
    76  H    0.017267
    77  H    0.057361
    78  H    0.034436
    79  H    0.013107
    80  H    0.027444
    81  H    0.007961
    82  H    0.044872
    83  H    0.025668
    84  H    0.035006
    85  H    0.001181
    86  H   -0.004512
    87  H    0.034275
    88  H    0.023846
    89  H    0.020103
    90  H    0.001932
    91  H    0.005195
    92  H    0.016984
    93  H    0.009836
    94  H    0.026019
    95  H    0.024251
    96  H    0.028034
    97  H    0.023053
    98  H    0.029100
    99  H    0.052259
   100  H    0.038417
   101  H    0.043939
   102  H    0.034570
   103  H    0.023776
   104  H   -0.006298
   105  H    0.027669
   106  H    0.025367
   107  H   -0.000599
   108  H   -0.028405
   109  H    0.009675
   110  H    0.000648
   111  H   -0.001493
   112  H   -0.015836
   113  H   -0.004870
   114  H   -0.000568
   115  H   -0.001551
   116  H    0.015603
   117  H    0.004009
   118  H    0.002490
   119  H   -0.016459
   120  H    0.003355
   121  H   -0.026770
   122  H   -0.001758
   123  H   -0.019133
   124  H   -0.003470
   125  H    0.012725
   126  H    0.004177
   127  H    0.000838
   128  H   -0.022428
   129  H    0.003477
   130  H   -0.009294
   131  H   -0.003284
   132  H   -0.015954
   133  H   -0.007930
   134  H    0.027727
   135  H    0.002842
   136  H    0.016018
   137  H    0.005670
   138  H    0.007353
   139  H   -0.006505
   140  H    0.015310
 Sum of Mulliken charges =  -0.00000

 Dipole moment (field-independent basis, Debye):
    X=              1.8535    Y=              3.7787    Z=             -0.9221  Tot=              4.3086
 Quadrupole moment (field-independent basis, Debye-Ang):
   XX=           -374.3765   YY=           -411.6437   ZZ=           -410.1230
   XY=             -4.4963   XZ=             18.1802   YZ=              4.6354

 Normal termination of Gaussian 16 at Sat Apr 30 04:34:01 2022.
