 Gaussian 16, Revision A.03,
 Gaussian 16:  ES64L-G16RevA.03 25-Dec-2016

 ---------------------------------
 #p PBE1PBE/Def2SVP td=(nstates=5)
 ---------------------------------

 -----------------------------------------------------
 step_601_chromophore_13 TDDFT with PBE1PBE functional
 -----------------------------------------------------
 Symbolic Z-matrix:
 Charge =  0 Multiplicity = 1

                         Standard orientation:
 ---------------------------------------------------------------------
 Center     Atomic      Atomic             Coordinates (Angstroms)
 Number     Number       Type             X           Y           Z
 ---------------------------------------------------------------------
      1         12           0       -5.760462    0.365934   -0.155721
      2          6           0       -3.191002   -2.086497    0.079254
      3          6           0       -3.379039    2.850770    0.741293
      4          6           0       -8.218743    2.459445    0.110438
      5          6           0       -8.114243   -2.335486   -0.553565
      6          7           0       -3.541902    0.341005    0.398280
      7          6           0       -2.699314   -0.793827    0.259252
      8          6           0       -1.164531   -0.380207    0.403677
      9          6           0       -1.328699    1.141087    0.822565
     10          6           0       -2.863128    1.538004    0.639335
     11          6           0       -0.675888    1.506215    2.222235
     12          6           0       -0.303816   -0.671862   -0.795988
     13          6           0        0.833151   -1.692918   -0.497869
     14          6           0        2.220989   -1.423875   -1.018669
     15          8           0        2.509197   -0.651154   -1.870082
     16          8           0        3.102493   -2.351429   -0.440075
     17          7           0       -5.809217    2.346710    0.276924
     18          6           0       -4.780661    3.203664    0.488141
     19          6           0       -5.301280    4.542996    0.561427
     20          6           0       -6.707878    4.462845    0.587330
     21          6           0       -6.984002    3.055255    0.320946
     22          6           0       -4.399268    5.780921    0.600829
     23          6           0       -7.756526    5.611369    0.628417
     24          8           0       -8.984521    5.461673    0.674850
     25          6           0       -7.235338    6.991724    0.753677
     26          7           0       -7.837491    0.108572   -0.345173
     27          6           0       -8.630965    1.194402   -0.154004
     28          6           0      -10.096064    0.826562   -0.121314
     29          6           0      -10.054111   -0.673679   -0.573766
     30          6           0       -8.595413   -1.020597   -0.510068
     31          6           0      -10.810954    1.147031    1.217511
     32          6           0      -10.657231   -1.059324   -1.928863
     33          6           0      -10.117537   -0.470706   -3.218407
     34          7           0       -5.725994   -1.799750   -0.307883
     35          6           0       -6.748094   -2.693362   -0.537002
     36          6           0       -6.152911   -4.009674   -0.517809
     37          6           0       -4.766076   -3.845912   -0.365164
     38          6           0       -4.574058   -2.460227   -0.214746
     39          6           0       -6.878569   -5.308849   -0.657987
     40          6           0       -3.521390   -4.533128   -0.343247
     41          8           0       -3.171364   -5.696297   -0.377780
     42          6           0       -2.459257   -3.364157    0.039780
     43          6           0       -1.885050   -3.732640    1.364346
     44          8           0       -2.348654   -3.463605    2.448445
     45          8           0       -0.673468   -4.332865    1.181945
     46          6           0        0.315490   -4.551046    2.292621
     47          6           0        4.451084   -2.314402   -0.939427
     48          6           0        5.349983   -1.382168   -0.156135
     49          6           0        6.693590   -1.384347   -0.115655
     50          6           0        7.617914   -2.223643   -0.859933
     51          6           0        7.355282   -0.225305    0.698476
     52          6           0        7.137580    1.207491    0.129905
     53          6           0        8.267788    2.228646    0.129577
     54          6           0        8.898938    2.586631   -1.229954
     55          6           0        7.812387    3.357282   -2.093046
     56          6           0        9.312613    1.345599   -1.954791
     57          6           0       10.729490    1.569392   -2.573663
     58          6           0       11.829453    0.756483   -1.894368
     59          6           0       12.881667    1.598762   -1.223611
     60          6           0       13.922898    2.034110   -2.302354
     61          6           0       13.495861    0.698384   -0.199649
     62          6           0       13.070825    1.102850    1.210185
     63          6           0       12.734807   -0.187508    2.033114
     64          6           0       11.232464   -0.421739    2.116057
     65          6           0       10.708297    0.352693    3.374603
     66          6           0       10.951439   -1.999112    2.276071
     67          1           0       -2.579610    3.584115    0.863635
     68          1           0       -8.982243    3.235632    0.021498
     69          1           0       -8.909543   -3.083528   -0.552264
     70          1           0       -0.777256   -0.865336    1.299079
     71          1           0       -0.926590    1.859792    0.108875
     72          1           0        0.254526    0.975455    2.018563
     73          1           0       -1.129594    1.045433    3.099920
     74          1           0       -0.623857    2.593995    2.271987
     75          1           0        0.099979    0.300902   -1.077072
     76          1           0       -0.854042   -0.972365   -1.686760
     77          1           0        0.476737   -2.569705   -1.038512
     78          1           0        0.986108   -2.007255    0.533956
     79          1           0       -4.536724    6.362790    1.512193
     80          1           0       -4.566401    6.501273   -0.199475
     81          1           0       -3.324527    5.610310    0.670332
     82          1           0       -6.586874    7.031123    1.629695
     83          1           0       -8.045572    7.709503    0.877642
     84          1           0       -6.792163    7.155085   -0.229472
     85          1           0      -10.597174    1.437470   -0.872030
     86          1           0      -10.591571   -1.279630    0.155049
     87          1           0      -10.816736    2.217622    1.424893
     88          1           0      -10.314462    0.648666    2.050035
     89          1           0      -11.814612    0.817651    0.947404
     90          1           0      -11.684869   -0.696728   -1.950144
     91          1           0      -10.633829   -2.149091   -1.968567
     92          1           0       -9.299908    0.231816   -3.061240
     93          1           0      -10.911675    0.156039   -3.625218
     94          1           0       -9.832515   -1.293713   -3.873347
     95          1           0       -7.944779   -5.344198   -0.431476
     96          1           0       -6.241267   -6.001749   -0.109542
     97          1           0       -6.683523   -5.664614   -1.670055
     98          1           0       -1.675231   -3.322892   -0.716047
     99          1           0       -0.095602   -4.300973    3.271041
    100          1           0        1.226735   -3.980832    2.111032
    101          1           0        0.624912   -5.596564    2.259649
    102          1           0        4.529347   -2.029924   -1.988265
    103          1           0        4.939336   -3.278525   -0.802598
    104          1           0        4.764415   -0.685701    0.443913
    105          1           0        8.273285   -2.747590   -0.164010
    106          1           0        8.178986   -1.560802   -1.519090
    107          1           0        7.155133   -3.025226   -1.436304
    108          1           0        8.442582   -0.290761    0.656666
    109          1           0        7.109230   -0.291581    1.757804
    110          1           0        6.256210    1.744678    0.481105
    111          1           0        6.952111    0.913191   -0.903219
    112          1           0        9.122340    1.793131    0.647541
    113          1           0        7.893940    3.083500    0.692518
    114          1           0        9.779757    3.161510   -0.944524
    115          1           0        7.472815    2.692024   -2.887381
    116          1           0        8.175150    4.287525   -2.530713
    117          1           0        6.879088    3.532335   -1.557174
    118          1           0        8.633416    0.992589   -2.729588
    119          1           0        9.363908    0.475639   -1.299133
    120          1           0       10.993168    2.600561   -2.808420
    121          1           0       10.667997    1.120613   -3.565373
    122          1           0       12.356265    0.091917   -2.578364
    123          1           0       11.302015    0.227458   -1.100663
    124          1           0       12.409613    2.517793   -0.874705
    125          1           0       14.750688    1.354582   -2.504181
    126          1           0       14.358253    2.957100   -1.918457
    127          1           0       13.342736    2.235075   -3.203306
    128          1           0       14.568314    0.891292   -0.246491
    129          1           0       13.408934   -0.373360   -0.381855
    130          1           0       12.154286    1.690957    1.150049
    131          1           0       13.725204    1.711701    1.832656
    132          1           0       13.182022    0.012957    3.006454
    133          1           0       13.332576   -1.004764    1.627496
    134          1           0       10.840919   -0.116877    1.145285
    135          1           0        9.739589    0.844172    3.282538
    136          1           0       11.331963    1.167731    3.743035
    137          1           0       10.529597   -0.439160    4.101859
    138          1           0       11.863125   -2.542114    2.023568
    139          1           0       10.231053   -2.317431    1.522464
    140          1           0       10.514966   -2.265752    3.238736
 ---------------------------------------------------------------------

 SCF Done:  E(RPBE1PBE) =  -3005.35533723     A.U. after   16 cycles

 Excitation energies and oscillator strengths:

 Excited State   1:      Singlet-A      1.8482 eV  670.85 nm  f=0.3844  <S**2>=0.000
     245 -> 248       -0.16170
     246 -> 247        0.69540
     246 <- 247       -0.11392
 This state for optimization and/or second-order correction.
 Total Energy, E(TD-HF/TD-DFT) =  -3005.28741793
 Copying the excited state density for this state as the 1-particle RhoCI density.

 Excited State   2:      Singlet-A      2.2100 eV  561.01 nm  f=0.1447  <S**2>=0.000
     245 -> 247        0.66349
     246 -> 248        0.22940

 Excited State   3:      Singlet-A      2.9624 eV  418.52 nm  f=0.0036  <S**2>=0.000
     242 -> 247        0.30322
     242 -> 249        0.10246
     243 -> 247        0.61740

 Excited State   4:      Singlet-A      3.0169 eV  410.97 nm  f=0.0030  <S**2>=0.000
     242 -> 247        0.61075
     243 -> 247       -0.31767

 Excited State   5:      Singlet-A      3.1226 eV  397.06 nm  f=0.0001  <S**2>=0.000
     241 -> 247        0.67049
     241 -> 248       -0.11080
     241 -> 249       -0.12683
     241 -> 250       -0.10058

 The electronic state is 1-A.
 Alpha  occ. eigenvalues --  -46.92155 -19.25600 -19.24516 -19.20991 -19.19646
 Alpha  occ. eigenvalues --  -19.19236 -19.19010 -14.41551 -14.41542 -14.39620
 Alpha  occ. eigenvalues --  -14.38630 -10.36571 -10.35493 -10.32922 -10.32098
 Alpha  occ. eigenvalues --  -10.29307 -10.29209 -10.29119 -10.28882 -10.28518
 Alpha  occ. eigenvalues --  -10.28220 -10.27929 -10.27899 -10.27116 -10.26552
 Alpha  occ. eigenvalues --  -10.26535 -10.26363 -10.26159 -10.25669 -10.25534
 Alpha  occ. eigenvalues --  -10.25491 -10.25386 -10.25188 -10.25162 -10.25019
 Alpha  occ. eigenvalues --  -10.24936 -10.24840 -10.24803 -10.24724 -10.24227
 Alpha  occ. eigenvalues --  -10.24182 -10.24134 -10.23806 -10.23486 -10.23453
 Alpha  occ. eigenvalues --  -10.23431 -10.23293 -10.23197 -10.23132 -10.23105
 Alpha  occ. eigenvalues --  -10.22845 -10.22561 -10.22348 -10.22303 -10.22266
 Alpha  occ. eigenvalues --  -10.22216 -10.22179 -10.22074 -10.21961 -10.21903
 Alpha  occ. eigenvalues --  -10.21881 -10.21773 -10.21663 -10.21657 -10.21646
 Alpha  occ. eigenvalues --  -10.21645  -3.14201  -1.87059  -1.86570  -1.86423
 Alpha  occ. eigenvalues --   -1.11899  -1.09871  -1.04760  -1.04445  -1.04360
 Alpha  occ. eigenvalues --   -1.01611  -0.99066  -0.98465  -0.97883  -0.94801
 Alpha  occ. eigenvalues --   -0.86674  -0.85371  -0.84579  -0.83827  -0.83756
 Alpha  occ. eigenvalues --   -0.83213  -0.82902  -0.81827  -0.81674  -0.81280
 Alpha  occ. eigenvalues --   -0.80652  -0.79609  -0.78356  -0.78254  -0.77750
 Alpha  occ. eigenvalues --   -0.76707  -0.76389  -0.75792  -0.75286  -0.74735
 Alpha  occ. eigenvalues --   -0.73838  -0.72885  -0.72504  -0.72041  -0.70327
 Alpha  occ. eigenvalues --   -0.69816  -0.69695  -0.69372  -0.68835  -0.68326
 Alpha  occ. eigenvalues --   -0.67837  -0.67132  -0.65747  -0.64718  -0.64025
 Alpha  occ. eigenvalues --   -0.63272  -0.63076  -0.61827  -0.61663  -0.59913
 Alpha  occ. eigenvalues --   -0.59827  -0.59686  -0.58683  -0.58604  -0.58083
 Alpha  occ. eigenvalues --   -0.57526  -0.57174  -0.55900  -0.55684  -0.55259
 Alpha  occ. eigenvalues --   -0.54417  -0.54340  -0.53335  -0.53028  -0.52590
 Alpha  occ. eigenvalues --   -0.52409  -0.51883  -0.50747  -0.50330  -0.49990
 Alpha  occ. eigenvalues --   -0.49791  -0.49326  -0.49242  -0.49128  -0.48435
 Alpha  occ. eigenvalues --   -0.48341  -0.48196  -0.48100  -0.47787  -0.47554
 Alpha  occ. eigenvalues --   -0.47205  -0.47124  -0.46762  -0.46549  -0.46544
 Alpha  occ. eigenvalues --   -0.46091  -0.45926  -0.45720  -0.45455  -0.45329
 Alpha  occ. eigenvalues --   -0.44979  -0.44832  -0.44677  -0.44359  -0.44177
 Alpha  occ. eigenvalues --   -0.44018  -0.43982  -0.43749  -0.43669  -0.43612
 Alpha  occ. eigenvalues --   -0.43501  -0.43411  -0.43062  -0.42874  -0.42715
 Alpha  occ. eigenvalues --   -0.42508  -0.42068  -0.41591  -0.41500  -0.41321
 Alpha  occ. eigenvalues --   -0.41138  -0.40787  -0.40691  -0.40369  -0.40231
 Alpha  occ. eigenvalues --   -0.40109  -0.39926  -0.39760  -0.39641  -0.39497
 Alpha  occ. eigenvalues --   -0.39404  -0.39311  -0.38925  -0.38890  -0.38773
 Alpha  occ. eigenvalues --   -0.38309  -0.38262  -0.38085  -0.37911  -0.37835
 Alpha  occ. eigenvalues --   -0.37808  -0.37699  -0.37669  -0.37092  -0.36959
 Alpha  occ. eigenvalues --   -0.36897  -0.36575  -0.36520  -0.36122  -0.36055
 Alpha  occ. eigenvalues --   -0.36020  -0.35796  -0.35635  -0.35441  -0.35070
 Alpha  occ. eigenvalues --   -0.34490  -0.34375  -0.34305  -0.33988  -0.33539
 Alpha  occ. eigenvalues --   -0.33479  -0.33294  -0.32758  -0.32657  -0.32530
 Alpha  occ. eigenvalues --   -0.32039  -0.31799  -0.30776  -0.30705  -0.30653
 Alpha  occ. eigenvalues --   -0.30635  -0.30033  -0.29708  -0.29054  -0.28887
 Alpha  occ. eigenvalues --   -0.28809  -0.28563  -0.28367  -0.27081  -0.26348
 Alpha  occ. eigenvalues --   -0.26057  -0.25592  -0.25138  -0.24772  -0.20952
 Alpha  occ. eigenvalues --   -0.18933
 Alpha virt. eigenvalues --   -0.11444  -0.05000  -0.03791  -0.02116   0.00196
 Alpha virt. eigenvalues --    0.00721   0.01661   0.01692   0.01821   0.03193
 Alpha virt. eigenvalues --    0.03743   0.04502   0.04727   0.05154   0.05264

 Mulliken charges:
               1
     1  Mg   0.966779
     2  C    0.041754
     3  C   -0.060107
     4  C   -0.070098
     5  C   -0.074771
     6  N   -0.412331
     7  C    0.034428
     8  C   -0.102133
     9  C   -0.164960
    10  C    0.094683
    11  C    0.000204
    12  C    0.074794
    13  C   -0.082826
    14  C    0.219318
    15  O   -0.213201
    16  O   -0.385650
    17  N   -0.509547
    18  C    0.174102
    19  C   -0.174040
    20  C   -0.072569
    21  C    0.127699
    22  C    0.051454
    23  C    0.058887
    24  O   -0.250594
    25  C   -0.006156
    26  N   -0.410749
    27  C    0.101504
    28  C   -0.113979
    29  C   -0.071840
    30  C    0.059705
    31  C    0.017653
    32  C   -0.046304
    33  C   -0.059977
    34  N   -0.434769
    35  C    0.165725
    36  C   -0.206182
    37  C   -0.019611
    38  C    0.129542
    39  C    0.079721
    40  C    0.125679
    41  O   -0.204578
    42  C   -0.197883
    43  C    0.304231
    44  O   -0.239790
    45  O   -0.385976
    46  C    0.115138
    47  C    0.242680
    48  C   -0.128716
    49  C   -0.238636
    50  C    0.031558
    51  C    0.021787
    52  C   -0.076290
    53  C   -0.031615
    54  C   -0.184714
    55  C    0.003361
    56  C   -0.030355
    57  C   -0.027048
    58  C   -0.019991
    59  C   -0.254090
    60  C   -0.010333
    61  C    0.058830
    62  C   -0.062512
    63  C   -0.035397
    64  C   -0.271751
    65  C   -0.006709
    66  C   -0.018120
    67  H    0.009083
    68  H    0.032213
    69  H    0.009417
    70  H    0.058541
    71  H    0.046093
    72  H    0.047342
    73  H    0.062882
    74  H    0.050996
    75  H    0.047101
    76  H    0.048515
    77  H    0.090744
    78  H    0.067968
    79  H    0.040410
    80  H    0.054286
    81  H    0.034253
    82  H    0.071025
    83  H    0.053312
    84  H    0.062795
    85  H    0.039161
    86  H    0.033919
    87  H    0.061949
    88  H    0.051575
    89  H    0.048631
    90  H    0.036182
    91  H    0.037877
    92  H    0.047219
    93  H    0.037163
    94  H    0.053130
    95  H    0.050500
    96  H    0.057024
    97  H    0.053087
    98  H    0.070965
    99  H    0.072251
   100  H    0.058781
   101  H    0.065499
   102  H    0.062259
   103  H    0.051328
   104  H    0.023274
   105  H    0.058535
   106  H    0.056371
   107  H    0.027018
   108  H    0.015911
   109  H    0.042645
   110  H    0.032267
   111  H    0.034218
   112  H    0.026693
   113  H    0.028344
   114  H    0.037379
   115  H    0.025041
   116  H    0.043189
   117  H    0.031306
   118  H    0.033315
   119  H    0.018729
   120  H    0.034034
   121  H    0.009037
   122  H    0.030844
   123  H    0.023461
   124  H    0.033710
   125  H    0.039599
   126  H    0.033296
   127  H    0.029896
   128  H    0.013398
   129  H    0.033485
   130  H    0.026047
   131  H    0.028322
   132  H    0.017704
   133  H    0.023788
   134  H    0.072876
   135  H    0.030897
   136  H    0.042078
   137  H    0.032763
   138  H    0.034267
   139  H    0.025316
   140  H    0.041158
 Sum of Mulliken charges =  -0.00000

 Dipole moment (field-independent basis, Debye):
    X=              1.8736    Y=              3.3890    Z=             -1.0142  Tot=              4.0030
 Quadrupole moment (field-independent basis, Debye-Ang):
   XX=           -368.6515   YY=           -408.9652   ZZ=           -407.7538
   XY=             -1.4237   XZ=             18.7451   YZ=              4.8267

 Normal termination of Gaussian 16 at Sat Apr 30 04:51:27 2022.
