 Gaussian 16, Revision A.03,
 Gaussian 16:  ES64L-G16RevA.03 25-Dec-2016

 --------------------------------
 #p wB97XD/Def2SVP td=(nstates=5)
 --------------------------------

 ----------------------------------------------------
 step_601_chromophore_13 TDDFT with wB97XD functional
 ----------------------------------------------------
 Symbolic Z-matrix:
 Charge =  0 Multiplicity = 1

                         Standard orientation:
 ---------------------------------------------------------------------
 Center     Atomic      Atomic             Coordinates (Angstroms)
 Number     Number       Type             X           Y           Z
 ---------------------------------------------------------------------
      1         12           0       -5.760462    0.365934   -0.155721
      2          6           0       -3.191002   -2.086497    0.079254
      3          6           0       -3.379039    2.850770    0.741293
      4          6           0       -8.218743    2.459445    0.110438
      5          6           0       -8.114243   -2.335486   -0.553565
      6          7           0       -3.541902    0.341005    0.398280
      7          6           0       -2.699314   -0.793827    0.259252
      8          6           0       -1.164531   -0.380207    0.403677
      9          6           0       -1.328699    1.141087    0.822565
     10          6           0       -2.863128    1.538004    0.639335
     11          6           0       -0.675888    1.506215    2.222235
     12          6           0       -0.303816   -0.671862   -0.795988
     13          6           0        0.833151   -1.692918   -0.497869
     14          6           0        2.220989   -1.423875   -1.018669
     15          8           0        2.509197   -0.651154   -1.870082
     16          8           0        3.102493   -2.351429   -0.440075
     17          7           0       -5.809217    2.346710    0.276924
     18          6           0       -4.780661    3.203664    0.488141
     19          6           0       -5.301280    4.542996    0.561427
     20          6           0       -6.707878    4.462845    0.587330
     21          6           0       -6.984002    3.055255    0.320946
     22          6           0       -4.399268    5.780921    0.600829
     23          6           0       -7.756526    5.611369    0.628417
     24          8           0       -8.984521    5.461673    0.674850
     25          6           0       -7.235338    6.991724    0.753677
     26          7           0       -7.837491    0.108572   -0.345173
     27          6           0       -8.630965    1.194402   -0.154004
     28          6           0      -10.096064    0.826562   -0.121314
     29          6           0      -10.054111   -0.673679   -0.573766
     30          6           0       -8.595413   -1.020597   -0.510068
     31          6           0      -10.810954    1.147031    1.217511
     32          6           0      -10.657231   -1.059324   -1.928863
     33          6           0      -10.117537   -0.470706   -3.218407
     34          7           0       -5.725994   -1.799750   -0.307883
     35          6           0       -6.748094   -2.693362   -0.537002
     36          6           0       -6.152911   -4.009674   -0.517809
     37          6           0       -4.766076   -3.845912   -0.365164
     38          6           0       -4.574058   -2.460227   -0.214746
     39          6           0       -6.878569   -5.308849   -0.657987
     40          6           0       -3.521390   -4.533128   -0.343247
     41          8           0       -3.171364   -5.696297   -0.377780
     42          6           0       -2.459257   -3.364157    0.039780
     43          6           0       -1.885050   -3.732640    1.364346
     44          8           0       -2.348654   -3.463605    2.448445
     45          8           0       -0.673468   -4.332865    1.181945
     46          6           0        0.315490   -4.551046    2.292621
     47          6           0        4.451084   -2.314402   -0.939427
     48          6           0        5.349983   -1.382168   -0.156135
     49          6           0        6.693590   -1.384347   -0.115655
     50          6           0        7.617914   -2.223643   -0.859933
     51          6           0        7.355282   -0.225305    0.698476
     52          6           0        7.137580    1.207491    0.129905
     53          6           0        8.267788    2.228646    0.129577
     54          6           0        8.898938    2.586631   -1.229954
     55          6           0        7.812387    3.357282   -2.093046
     56          6           0        9.312613    1.345599   -1.954791
     57          6           0       10.729490    1.569392   -2.573663
     58          6           0       11.829453    0.756483   -1.894368
     59          6           0       12.881667    1.598762   -1.223611
     60          6           0       13.922898    2.034110   -2.302354
     61          6           0       13.495861    0.698384   -0.199649
     62          6           0       13.070825    1.102850    1.210185
     63          6           0       12.734807   -0.187508    2.033114
     64          6           0       11.232464   -0.421739    2.116057
     65          6           0       10.708297    0.352693    3.374603
     66          6           0       10.951439   -1.999112    2.276071
     67          1           0       -2.579610    3.584115    0.863635
     68          1           0       -8.982243    3.235632    0.021498
     69          1           0       -8.909543   -3.083528   -0.552264
     70          1           0       -0.777256   -0.865336    1.299079
     71          1           0       -0.926590    1.859792    0.108875
     72          1           0        0.254526    0.975455    2.018563
     73          1           0       -1.129594    1.045433    3.099920
     74          1           0       -0.623857    2.593995    2.271987
     75          1           0        0.099979    0.300902   -1.077072
     76          1           0       -0.854042   -0.972365   -1.686760
     77          1           0        0.476737   -2.569705   -1.038512
     78          1           0        0.986108   -2.007255    0.533956
     79          1           0       -4.536724    6.362790    1.512193
     80          1           0       -4.566401    6.501273   -0.199475
     81          1           0       -3.324527    5.610310    0.670332
     82          1           0       -6.586874    7.031123    1.629695
     83          1           0       -8.045572    7.709503    0.877642
     84          1           0       -6.792163    7.155085   -0.229472
     85          1           0      -10.597174    1.437470   -0.872030
     86          1           0      -10.591571   -1.279630    0.155049
     87          1           0      -10.816736    2.217622    1.424893
     88          1           0      -10.314462    0.648666    2.050035
     89          1           0      -11.814612    0.817651    0.947404
     90          1           0      -11.684869   -0.696728   -1.950144
     91          1           0      -10.633829   -2.149091   -1.968567
     92          1           0       -9.299908    0.231816   -3.061240
     93          1           0      -10.911675    0.156039   -3.625218
     94          1           0       -9.832515   -1.293713   -3.873347
     95          1           0       -7.944779   -5.344198   -0.431476
     96          1           0       -6.241267   -6.001749   -0.109542
     97          1           0       -6.683523   -5.664614   -1.670055
     98          1           0       -1.675231   -3.322892   -0.716047
     99          1           0       -0.095602   -4.300973    3.271041
    100          1           0        1.226735   -3.980832    2.111032
    101          1           0        0.624912   -5.596564    2.259649
    102          1           0        4.529347   -2.029924   -1.988265
    103          1           0        4.939336   -3.278525   -0.802598
    104          1           0        4.764415   -0.685701    0.443913
    105          1           0        8.273285   -2.747590   -0.164010
    106          1           0        8.178986   -1.560802   -1.519090
    107          1           0        7.155133   -3.025226   -1.436304
    108          1           0        8.442582   -0.290761    0.656666
    109          1           0        7.109230   -0.291581    1.757804
    110          1           0        6.256210    1.744678    0.481105
    111          1           0        6.952111    0.913191   -0.903219
    112          1           0        9.122340    1.793131    0.647541
    113          1           0        7.893940    3.083500    0.692518
    114          1           0        9.779757    3.161510   -0.944524
    115          1           0        7.472815    2.692024   -2.887381
    116          1           0        8.175150    4.287525   -2.530713
    117          1           0        6.879088    3.532335   -1.557174
    118          1           0        8.633416    0.992589   -2.729588
    119          1           0        9.363908    0.475639   -1.299133
    120          1           0       10.993168    2.600561   -2.808420
    121          1           0       10.667997    1.120613   -3.565373
    122          1           0       12.356265    0.091917   -2.578364
    123          1           0       11.302015    0.227458   -1.100663
    124          1           0       12.409613    2.517793   -0.874705
    125          1           0       14.750688    1.354582   -2.504181
    126          1           0       14.358253    2.957100   -1.918457
    127          1           0       13.342736    2.235075   -3.203306
    128          1           0       14.568314    0.891292   -0.246491
    129          1           0       13.408934   -0.373360   -0.381855
    130          1           0       12.154286    1.690957    1.150049
    131          1           0       13.725204    1.711701    1.832656
    132          1           0       13.182022    0.012957    3.006454
    133          1           0       13.332576   -1.004764    1.627496
    134          1           0       10.840919   -0.116877    1.145285
    135          1           0        9.739589    0.844172    3.282538
    136          1           0       11.331963    1.167731    3.743035
    137          1           0       10.529597   -0.439160    4.101859
    138          1           0       11.863125   -2.542114    2.023568
    139          1           0       10.231053   -2.317431    1.522464
    140          1           0       10.514966   -2.265752    3.238736
 ---------------------------------------------------------------------

 SCF Done:  E(RwB97XD) =  -3007.87176163     A.U. after   19 cycles

 Excitation energies and oscillator strengths:

 Excited State   1:      Singlet-A      1.6339 eV  758.80 nm  f=0.3986  <S**2>=0.000
     245 -> 248       -0.17316
     246 -> 247        0.68607
     245 <- 248       -0.11331
 This state for optimization and/or second-order correction.
 Total Energy, E(TD-HF/TD-DFT) =  -3007.81171542
 Copying the excited state density for this state as the 1-particle RhoCI density.

 Excited State   2:      Singlet-A      2.1484 eV  577.11 nm  f=0.1500  <S**2>=0.000
     245 -> 247        0.65320
     246 -> 248        0.25592

 Excited State   3:      Singlet-A      3.3749 eV  367.37 nm  f=0.0028  <S**2>=0.000
     241 -> 247       -0.17996
     244 -> 247        0.65492

 Excited State   4:      Singlet-A      3.5902 eV  345.34 nm  f=0.0910  <S**2>=0.000
     239 -> 247        0.22981
     240 -> 247       -0.16118
     241 -> 247        0.39242
     242 -> 247        0.31488
     242 -> 249       -0.11902
     244 -> 247        0.12225
     246 -> 248       -0.32078

 Excited State   5:      Singlet-A      3.5994 eV  344.46 nm  f=0.1439  <S**2>=0.000
     241 -> 247       -0.18201
     242 -> 247        0.45238
     242 -> 249       -0.26630
     242 -> 250       -0.18215
     245 -> 247       -0.12301
     246 -> 248        0.33967

 The electronic state is 1-A.
 Alpha  occ. eigenvalues --  -46.95114 -19.30146 -19.29023 -19.25677 -19.24648
 Alpha  occ. eigenvalues --  -19.23868 -19.23659 -14.46736 -14.46508 -14.44719
 Alpha  occ. eigenvalues --  -14.43453 -10.43355 -10.42262 -10.39943 -10.38826
 Alpha  occ. eigenvalues --  -10.35654 -10.35600 -10.35470 -10.35347 -10.35158
 Alpha  occ. eigenvalues --  -10.34509 -10.34364 -10.34310 -10.33286 -10.33127
 Alpha  occ. eigenvalues --  -10.32677 -10.32585 -10.32402 -10.32063 -10.32045
 Alpha  occ. eigenvalues --  -10.31725 -10.31687 -10.31561 -10.31457 -10.31403
 Alpha  occ. eigenvalues --  -10.31261 -10.31232 -10.31195 -10.31138 -10.30563
 Alpha  occ. eigenvalues --  -10.30542 -10.30459 -10.30188 -10.30061 -10.29902
 Alpha  occ. eigenvalues --  -10.29873 -10.29701 -10.29583 -10.29565 -10.29424
 Alpha  occ. eigenvalues --  -10.29230 -10.28942 -10.28617 -10.28615 -10.28614
 Alpha  occ. eigenvalues --  -10.28603 -10.28458 -10.28376 -10.28304 -10.28252
 Alpha  occ. eigenvalues --  -10.28237 -10.28197 -10.28086 -10.28000 -10.27998
 Alpha  occ. eigenvalues --  -10.27994  -3.21024  -1.94631  -1.94142  -1.93991
 Alpha  occ. eigenvalues --   -1.19260  -1.17214  -1.12126  -1.12077  -1.11684
 Alpha  occ. eigenvalues --   -1.08915  -1.06537  -1.05838  -1.05206  -1.02204
 Alpha  occ. eigenvalues --   -0.94173  -0.93024  -0.92239  -0.91446  -0.91373
 Alpha  occ. eigenvalues --   -0.90859  -0.90526  -0.89550  -0.89482  -0.88846
 Alpha  occ. eigenvalues --   -0.88194  -0.87243  -0.86009  -0.85820  -0.85382
 Alpha  occ. eigenvalues --   -0.84546  -0.84094  -0.83429  -0.82898  -0.82359
 Alpha  occ. eigenvalues --   -0.81499  -0.80627  -0.80120  -0.79614  -0.77916
 Alpha  occ. eigenvalues --   -0.77453  -0.77309  -0.77075  -0.76510  -0.75986
 Alpha  occ. eigenvalues --   -0.75363  -0.74661  -0.73322  -0.72331  -0.71577
 Alpha  occ. eigenvalues --   -0.70886  -0.70545  -0.69499  -0.69331  -0.67486
 Alpha  occ. eigenvalues --   -0.67312  -0.67189  -0.66173  -0.66046  -0.65742
 Alpha  occ. eigenvalues --   -0.64949  -0.64848  -0.63280  -0.63252  -0.62846
 Alpha  occ. eigenvalues --   -0.61950  -0.61703  -0.60723  -0.60435  -0.60047
 Alpha  occ. eigenvalues --   -0.59773  -0.59326  -0.58223  -0.57721  -0.57420
 Alpha  occ. eigenvalues --   -0.57199  -0.56793  -0.56624  -0.56564  -0.55923
 Alpha  occ. eigenvalues --   -0.55803  -0.55717  -0.55511  -0.55097  -0.54905
 Alpha  occ. eigenvalues --   -0.54592  -0.54452  -0.54131  -0.53967  -0.53822
 Alpha  occ. eigenvalues --   -0.53451  -0.53183  -0.53054  -0.52825  -0.52692
 Alpha  occ. eigenvalues --   -0.52325  -0.52293  -0.52190  -0.51689  -0.51483
 Alpha  occ. eigenvalues --   -0.51341  -0.51334  -0.51062  -0.50952  -0.50906
 Alpha  occ. eigenvalues --   -0.50755  -0.50730  -0.50333  -0.50175  -0.49966
 Alpha  occ. eigenvalues --   -0.49798  -0.49509  -0.48756  -0.48727  -0.48500
 Alpha  occ. eigenvalues --   -0.48403  -0.48008  -0.47837  -0.47539  -0.47418
 Alpha  occ. eigenvalues --   -0.47297  -0.47066  -0.46941  -0.46788  -0.46687
 Alpha  occ. eigenvalues --   -0.46595  -0.46446  -0.46079  -0.46041  -0.45882
 Alpha  occ. eigenvalues --   -0.45455  -0.45427  -0.45294  -0.45182  -0.44994
 Alpha  occ. eigenvalues --   -0.44906  -0.44820  -0.44668  -0.44336  -0.44213
 Alpha  occ. eigenvalues --   -0.44051  -0.43652  -0.43603  -0.43191  -0.43132
 Alpha  occ. eigenvalues --   -0.43064  -0.42858  -0.42722  -0.42522  -0.42184
 Alpha  occ. eigenvalues --   -0.41487  -0.41429  -0.41280  -0.40901  -0.40564
 Alpha  occ. eigenvalues --   -0.40448  -0.40299  -0.39799  -0.39570  -0.39549
 Alpha  occ. eigenvalues --   -0.39016  -0.38880  -0.37772  -0.37676  -0.37611
 Alpha  occ. eigenvalues --   -0.37497  -0.36979  -0.36782  -0.35976  -0.35830
 Alpha  occ. eigenvalues --   -0.35642  -0.35313  -0.35216  -0.33787  -0.33385
 Alpha  occ. eigenvalues --   -0.33036  -0.32459  -0.31520  -0.31515  -0.25937
 Alpha  occ. eigenvalues --   -0.23126
 Alpha virt. eigenvalues --   -0.07411   0.00501   0.02483   0.04358   0.06034
 Alpha virt. eigenvalues --    0.07561   0.08343   0.08424   0.08665   0.09623
 Alpha virt. eigenvalues --    0.10208   0.10822   0.11570   0.11809   0.11914

 Mulliken charges:
               1
     1  Mg   0.957388
     2  C    0.039795
     3  C   -0.081973
     4  C   -0.083660
     5  C   -0.089619
     6  N   -0.383926
     7  C    0.002924
     8  C   -0.074595
     9  C   -0.139099
    10  C    0.081095
    11  C    0.014932
    12  C    0.080772
    13  C   -0.058235
    14  C    0.208198
    15  O   -0.210314
    16  O   -0.384563
    17  N   -0.476429
    18  C    0.169453
    19  C   -0.162474
    20  C   -0.068632
    21  C    0.120607
    22  C    0.063211
    23  C    0.056862
    24  O   -0.243565
    25  C    0.007651
    26  N   -0.373124
    27  C    0.088034
    28  C   -0.091651
    29  C   -0.044401
    30  C    0.040486
    31  C    0.028215
    32  C   -0.030734
    33  C   -0.044676
    34  N   -0.394521
    35  C    0.150118
    36  C   -0.200318
    37  C   -0.019676
    38  C    0.110863
    39  C    0.088416
    40  C    0.112847
    41  O   -0.196300
    42  C   -0.152155
    43  C    0.275274
    44  O   -0.233561
    45  O   -0.383295
    46  C    0.131009
    47  C    0.259277
    48  C   -0.143940
    49  C   -0.219691
    50  C    0.051595
    51  C    0.055978
    52  C   -0.059057
    53  C    0.001708
    54  C   -0.156299
    55  C    0.012253
    56  C    0.002300
    57  C   -0.016590
    58  C    0.009965
    59  C   -0.221356
    60  C    0.000392
    61  C    0.071893
    62  C   -0.042502
    63  C   -0.021050
    64  C   -0.220602
    65  C    0.006364
    66  C   -0.000122
    67  H    0.002083
    68  H    0.025743
    69  H    0.004844
    70  H    0.043194
    71  H    0.034296
    72  H    0.038442
    73  H    0.058402
    74  H    0.045743
    75  H    0.038906
    76  H    0.043224
    77  H    0.083133
    78  H    0.055518
    79  H    0.035104
    80  H    0.049710
    81  H    0.031664
    82  H    0.064917
    83  H    0.053066
    84  H    0.056339
    85  H    0.029346
    86  H    0.024363
    87  H    0.056680
    88  H    0.046261
    89  H    0.042483
    90  H    0.027250
    91  H    0.029475
    92  H    0.036885
    93  H    0.031779
    94  H    0.048764
    95  H    0.046110
    96  H    0.051512
    97  H    0.046932
    98  H    0.057839
    99  H    0.068980
   100  H    0.055099
   101  H    0.061661
   102  H    0.057357
   103  H    0.045333
   104  H    0.019581
   105  H    0.051241
   106  H    0.048244
   107  H    0.022194
   108  H   -0.012756
   109  H    0.036078
   110  H    0.025757
   111  H    0.015980
   112  H    0.003564
   113  H    0.021598
   114  H    0.025850
   115  H    0.018340
   116  H    0.038737
   117  H    0.025056
   118  H    0.024530
   119  H   -0.010279
   120  H    0.024452
   121  H    0.001515
   122  H    0.022304
   123  H    0.001704
   124  H    0.020106
   125  H    0.034319
   126  H    0.027462
   127  H    0.022235
   128  H    0.004619
   129  H    0.024137
   130  H    0.009724
   131  H    0.022835
   132  H    0.008533
   133  H    0.013449
   134  H    0.038911
   135  H    0.024653
   136  H    0.036087
   137  H    0.025264
   138  H    0.028006
   139  H    0.015428
   140  H    0.034931
 Sum of Mulliken charges =  -0.00000

 Dipole moment (field-independent basis, Debye):
    X=              1.8353    Y=              3.9589    Z=             -0.9316  Tot=              4.4619
 Quadrupole moment (field-independent basis, Debye-Ang):
   XX=           -368.8168   YY=           -406.9348   ZZ=           -407.3465
   XY=             -5.1709   XZ=             18.4231   YZ=              4.9068

 Normal termination of Gaussian 16 at Sat Apr 30 05:26:27 2022.
