 Gaussian 16, Revision A.03,
 Gaussian 16:  ES64L-G16RevA.03 25-Dec-2016

 --------------------
 #p ZINDO=(nstates=5)
 --------------------

 -----------------------------
 step_601_chromophore_13 ZINDO
 -----------------------------
 Symbolic Z-matrix:
 Charge =  0 Multiplicity = 1

                         Standard orientation:
 ---------------------------------------------------------------------
 Center     Atomic      Atomic             Coordinates (Angstroms)
 Number     Number       Type             X           Y           Z
 ---------------------------------------------------------------------
      1         12           0       -5.760462    0.365934   -0.155721
      2          6           0       -3.191002   -2.086497    0.079254
      3          6           0       -3.379039    2.850770    0.741293
      4          6           0       -8.218743    2.459445    0.110438
      5          6           0       -8.114243   -2.335486   -0.553565
      6          7           0       -3.541902    0.341005    0.398280
      7          6           0       -2.699314   -0.793827    0.259252
      8          6           0       -1.164531   -0.380207    0.403677
      9          6           0       -1.328699    1.141087    0.822565
     10          6           0       -2.863128    1.538004    0.639335
     11          6           0       -0.675888    1.506215    2.222235
     12          6           0       -0.303816   -0.671862   -0.795988
     13          6           0        0.833151   -1.692918   -0.497869
     14          6           0        2.220989   -1.423875   -1.018669
     15          8           0        2.509197   -0.651154   -1.870082
     16          8           0        3.102493   -2.351429   -0.440075
     17          7           0       -5.809217    2.346710    0.276924
     18          6           0       -4.780661    3.203664    0.488141
     19          6           0       -5.301280    4.542996    0.561427
     20          6           0       -6.707878    4.462845    0.587330
     21          6           0       -6.984002    3.055255    0.320946
     22          6           0       -4.399268    5.780921    0.600829
     23          6           0       -7.756526    5.611369    0.628417
     24          8           0       -8.984521    5.461673    0.674850
     25          6           0       -7.235338    6.991724    0.753677
     26          7           0       -7.837491    0.108572   -0.345173
     27          6           0       -8.630965    1.194402   -0.154004
     28          6           0      -10.096064    0.826562   -0.121314
     29          6           0      -10.054111   -0.673679   -0.573766
     30          6           0       -8.595413   -1.020597   -0.510068
     31          6           0      -10.810954    1.147031    1.217511
     32          6           0      -10.657231   -1.059324   -1.928863
     33          6           0      -10.117537   -0.470706   -3.218407
     34          7           0       -5.725994   -1.799750   -0.307883
     35          6           0       -6.748094   -2.693362   -0.537002
     36          6           0       -6.152911   -4.009674   -0.517809
     37          6           0       -4.766076   -3.845912   -0.365164
     38          6           0       -4.574058   -2.460227   -0.214746
     39          6           0       -6.878569   -5.308849   -0.657987
     40          6           0       -3.521390   -4.533128   -0.343247
     41          8           0       -3.171364   -5.696297   -0.377780
     42          6           0       -2.459257   -3.364157    0.039780
     43          6           0       -1.885050   -3.732640    1.364346
     44          8           0       -2.348654   -3.463605    2.448445
     45          8           0       -0.673468   -4.332865    1.181945
     46          6           0        0.315490   -4.551046    2.292621
     47          6           0        4.451084   -2.314402   -0.939427
     48          6           0        5.349983   -1.382168   -0.156135
     49          6           0        6.693590   -1.384347   -0.115655
     50          6           0        7.617914   -2.223643   -0.859933
     51          6           0        7.355282   -0.225305    0.698476
     52          6           0        7.137580    1.207491    0.129905
     53          6           0        8.267788    2.228646    0.129577
     54          6           0        8.898938    2.586631   -1.229954
     55          6           0        7.812387    3.357282   -2.093046
     56          6           0        9.312613    1.345599   -1.954791
     57          6           0       10.729490    1.569392   -2.573663
     58          6           0       11.829453    0.756483   -1.894368
     59          6           0       12.881667    1.598762   -1.223611
     60          6           0       13.922898    2.034110   -2.302354
     61          6           0       13.495861    0.698384   -0.199649
     62          6           0       13.070825    1.102850    1.210185
     63          6           0       12.734807   -0.187508    2.033114
     64          6           0       11.232464   -0.421739    2.116057
     65          6           0       10.708297    0.352693    3.374603
     66          6           0       10.951439   -1.999112    2.276071
     67          1           0       -2.579610    3.584115    0.863635
     68          1           0       -8.982243    3.235632    0.021498
     69          1           0       -8.909543   -3.083528   -0.552264
     70          1           0       -0.777256   -0.865336    1.299079
     71          1           0       -0.926590    1.859792    0.108875
     72          1           0        0.254526    0.975455    2.018563
     73          1           0       -1.129594    1.045433    3.099920
     74          1           0       -0.623857    2.593995    2.271987
     75          1           0        0.099979    0.300902   -1.077072
     76          1           0       -0.854042   -0.972365   -1.686760
     77          1           0        0.476737   -2.569705   -1.038512
     78          1           0        0.986108   -2.007255    0.533956
     79          1           0       -4.536724    6.362790    1.512193
     80          1           0       -4.566401    6.501273   -0.199475
     81          1           0       -3.324527    5.610310    0.670332
     82          1           0       -6.586874    7.031123    1.629695
     83          1           0       -8.045572    7.709503    0.877642
     84          1           0       -6.792163    7.155085   -0.229472
     85          1           0      -10.597174    1.437470   -0.872030
     86          1           0      -10.591571   -1.279630    0.155049
     87          1           0      -10.816736    2.217622    1.424893
     88          1           0      -10.314462    0.648666    2.050035
     89          1           0      -11.814612    0.817651    0.947404
     90          1           0      -11.684869   -0.696728   -1.950144
     91          1           0      -10.633829   -2.149091   -1.968567
     92          1           0       -9.299908    0.231816   -3.061240
     93          1           0      -10.911675    0.156039   -3.625218
     94          1           0       -9.832515   -1.293713   -3.873347
     95          1           0       -7.944779   -5.344198   -0.431476
     96          1           0       -6.241267   -6.001749   -0.109542
     97          1           0       -6.683523   -5.664614   -1.670055
     98          1           0       -1.675231   -3.322892   -0.716047
     99          1           0       -0.095602   -4.300973    3.271041
    100          1           0        1.226735   -3.980832    2.111032
    101          1           0        0.624912   -5.596564    2.259649
    102          1           0        4.529347   -2.029924   -1.988265
    103          1           0        4.939336   -3.278525   -0.802598
    104          1           0        4.764415   -0.685701    0.443913
    105          1           0        8.273285   -2.747590   -0.164010
    106          1           0        8.178986   -1.560802   -1.519090
    107          1           0        7.155133   -3.025226   -1.436304
    108          1           0        8.442582   -0.290761    0.656666
    109          1           0        7.109230   -0.291581    1.757804
    110          1           0        6.256210    1.744678    0.481105
    111          1           0        6.952111    0.913191   -0.903219
    112          1           0        9.122340    1.793131    0.647541
    113          1           0        7.893940    3.083500    0.692518
    114          1           0        9.779757    3.161510   -0.944524
    115          1           0        7.472815    2.692024   -2.887381
    116          1           0        8.175150    4.287525   -2.530713
    117          1           0        6.879088    3.532335   -1.557174
    118          1           0        8.633416    0.992589   -2.729588
    119          1           0        9.363908    0.475639   -1.299133
    120          1           0       10.993168    2.600561   -2.808420
    121          1           0       10.667997    1.120613   -3.565373
    122          1           0       12.356265    0.091917   -2.578364
    123          1           0       11.302015    0.227458   -1.100663
    124          1           0       12.409613    2.517793   -0.874705
    125          1           0       14.750688    1.354582   -2.504181
    126          1           0       14.358253    2.957100   -1.918457
    127          1           0       13.342736    2.235075   -3.203306
    128          1           0       14.568314    0.891292   -0.246491
    129          1           0       13.408934   -0.373360   -0.381855
    130          1           0       12.154286    1.690957    1.150049
    131          1           0       13.725204    1.711701    1.832656
    132          1           0       13.182022    0.012957    3.006454
    133          1           0       13.332576   -1.004764    1.627496
    134          1           0       10.840919   -0.116877    1.145285
    135          1           0        9.739589    0.844172    3.282538
    136          1           0       11.331963    1.167731    3.743035
    137          1           0       10.529597   -0.439160    4.101859
    138          1           0       11.863125   -2.542114    2.023568
    139          1           0       10.231053   -2.317431    1.522464
    140          1           0       10.514966   -2.265752    3.238736
 ---------------------------------------------------------------------

 SCF Done:  E(RZINDO/S) =  -474.423670909     A.U. after   19 cycles

 Excitation energies and oscillator strengths:

 Excited State   1:      Singlet-A      1.2358 eV 1003.24 nm  f=0.6371  <S**2>=0.000
     175 ->178        -0.17359
     176 ->177         0.66698
 This state for optimization and/or second-order correction.
 Total Energy, E(CIS/TDA) =  -474.378254759
 Copying the excited state density for this state as the 1-particle RhoCI density.

 Excited State   2:      Singlet-A      1.9513 eV  635.40 nm  f=0.0932  <S**2>=0.000
     175 ->177         0.57901
     176 ->178         0.37446

 Excited State   3:      Singlet-A      2.9741 eV  416.87 nm  f=0.0015  <S**2>=0.000
     167 ->177         0.13322
     167 ->179        -0.18099
     167 ->180        -0.17109
     167 ->185        -0.11556
     168 ->177         0.26962
     168 ->178        -0.18123
     168 ->179        -0.32520
     168 ->180        -0.29827
     168 ->185        -0.20495
     168 ->187        -0.10042

 Excited State   4:      Singlet-A      3.0351 eV  408.50 nm  f=0.5002  <S**2>=0.000
     169 ->179         0.12101
     170 ->177         0.21034
     170 ->179         0.25511
     170 ->180        -0.22976
     170 ->185         0.12259
     175 ->177        -0.24916
     176 ->178         0.40219

 Excited State   5:      Singlet-A      3.0555 eV  405.77 nm  f=0.4099  <S**2>=0.000
     170 ->177        -0.18848
     170 ->179        -0.26045
     170 ->180         0.21485
     170 ->185        -0.11780
     173 ->177        -0.13231
     175 ->177        -0.22622
     176 ->178         0.35872
     176 ->179        -0.20594
     176 ->180         0.10949

 The electronic state is 1-A.
 Alpha  occ. eigenvalues --   -1.83809  -1.82613  -1.78317  -1.73861  -1.70760
 Alpha  occ. eigenvalues --   -1.70300  -1.68352  -1.63156  -1.58956  -1.57408
 Alpha  occ. eigenvalues --   -1.55902  -1.52503  -1.48723  -1.48486  -1.47628
 Alpha  occ. eigenvalues --   -1.44223  -1.43211  -1.40799  -1.38862  -1.38794
 Alpha  occ. eigenvalues --   -1.35188  -1.33503  -1.32523  -1.31842  -1.29733
 Alpha  occ. eigenvalues --   -1.27046  -1.25659  -1.22491  -1.21216  -1.18512
 Alpha  occ. eigenvalues --   -1.16359  -1.15555  -1.15107  -1.14299  -1.13838
 Alpha  occ. eigenvalues --   -1.12082  -1.11682  -1.10628  -1.05578  -1.04215
 Alpha  occ. eigenvalues --   -1.02855  -1.00974  -0.99857  -0.98262  -0.98138
 Alpha  occ. eigenvalues --   -0.97149  -0.94954  -0.93810  -0.93235  -0.92487
 Alpha  occ. eigenvalues --   -0.90362  -0.90234  -0.88841  -0.87167  -0.85573
 Alpha  occ. eigenvalues --   -0.83913  -0.83301  -0.82621  -0.81587  -0.80416
 Alpha  occ. eigenvalues --   -0.79979  -0.78501  -0.77881  -0.77156  -0.76928
 Alpha  occ. eigenvalues --   -0.76680  -0.76011  -0.75040  -0.74572  -0.73762
 Alpha  occ. eigenvalues --   -0.73270  -0.72639  -0.72115  -0.71998  -0.70765
 Alpha  occ. eigenvalues --   -0.70284  -0.69859  -0.68946  -0.68792  -0.68026
 Alpha  occ. eigenvalues --   -0.67587  -0.66964  -0.66531  -0.65905  -0.65624
 Alpha  occ. eigenvalues --   -0.65226  -0.64463  -0.64166  -0.63813  -0.63208
 Alpha  occ. eigenvalues --   -0.62746  -0.62345  -0.62336  -0.62102  -0.61393
 Alpha  occ. eigenvalues --   -0.61210  -0.60900  -0.60769  -0.60403  -0.60140
 Alpha  occ. eigenvalues --   -0.59019  -0.58678  -0.58577  -0.58027  -0.57907
 Alpha  occ. eigenvalues --   -0.57714  -0.57456  -0.57050  -0.56826  -0.56319
 Alpha  occ. eigenvalues --   -0.55981  -0.55727  -0.55665  -0.55442  -0.54887
 Alpha  occ. eigenvalues --   -0.54077  -0.53437  -0.53138  -0.52694  -0.52419
 Alpha  occ. eigenvalues --   -0.52389  -0.52160  -0.51683  -0.51500  -0.51262
 Alpha  occ. eigenvalues --   -0.51149  -0.50964  -0.50659  -0.50477  -0.50388
 Alpha  occ. eigenvalues --   -0.50254  -0.49698  -0.49585  -0.49358  -0.49261
 Alpha  occ. eigenvalues --   -0.48975  -0.48787  -0.48471  -0.48117  -0.47537
 Alpha  occ. eigenvalues --   -0.47013  -0.46962  -0.46641  -0.46483  -0.46265
 Alpha  occ. eigenvalues --   -0.45984  -0.45666  -0.45467  -0.45299  -0.45135
 Alpha  occ. eigenvalues --   -0.44949  -0.44859  -0.44646  -0.44127  -0.43581
 Alpha  occ. eigenvalues --   -0.43079  -0.42510  -0.42490  -0.41665  -0.41277
 Alpha  occ. eigenvalues --   -0.41275  -0.41229  -0.40488  -0.39122  -0.38604
 Alpha  occ. eigenvalues --   -0.38100  -0.36421  -0.35813  -0.34715  -0.34577
 Alpha  occ. eigenvalues --   -0.34050  -0.32552  -0.31948  -0.31723  -0.26720
 Alpha  occ. eigenvalues --   -0.21898
 Alpha virt. eigenvalues --   -0.08874  -0.01671  -0.00507   0.01182   0.02403
 Alpha virt. eigenvalues --    0.02571   0.03059   0.03509   0.04752   0.05176
 Alpha virt. eigenvalues --    0.06309   0.06728   0.06804   0.07690   0.08179

 Mulliken charges:
               1
     1  Mg   0.424911
     2  C   -0.035074
     3  C   -0.102895
     4  C   -0.052913
     5  C   -0.052298
     6  N   -0.314925
     7  C    0.100935
     8  C    0.007879
     9  C   -0.007848
    10  C    0.141509
    11  C   -0.056181
    12  C   -0.014020
    13  C   -0.001145
    14  C    0.470137
    15  O   -0.497840
    16  O   -0.282071
    17  N   -0.312510
    18  C    0.138101
    19  C    0.014674
    20  C   -0.040748
    21  C    0.135274
    22  C   -0.048451
    23  C    0.331173
    24  O   -0.523751
    25  C   -0.028262
    26  N   -0.262263
    27  C    0.152936
    28  C    0.002213
    29  C    0.008475
    30  C    0.103353
    31  C   -0.048782
    32  C   -0.024445
    33  C   -0.054568
    34  N   -0.313023
    35  C    0.068290
    36  C    0.034630
    37  C   -0.064587
    38  C    0.118540
    39  C   -0.047961
    40  C    0.331472
    41  O   -0.520692
    42  C    0.055061
    43  C    0.499219
    44  O   -0.524741
    45  O   -0.286892
    46  C    0.075591
    47  C    0.102692
    48  C   -0.081360
    49  C   -0.008489
    50  C   -0.032655
    51  C   -0.028199
    52  C   -0.038746
    53  C   -0.035213
    54  C   -0.002870
    55  C   -0.061966
    56  C   -0.027591
    57  C   -0.048925
    58  C   -0.033128
    59  C   -0.011949
    60  C   -0.064506
    61  C   -0.023315
    62  C   -0.045900
    63  C   -0.039788
    64  C   -0.009202
    65  C   -0.058761
    66  C   -0.069540
    67  H    0.037336
    68  H    0.037643
    69  H    0.032757
    70  H    0.035417
    71  H    0.026124
    72  H    0.022658
    73  H    0.035338
    74  H    0.028671
    75  H    0.026516
    76  H    0.031224
    77  H    0.046786
    78  H    0.046168
    79  H    0.022803
    80  H    0.030835
    81  H    0.023454
    82  H    0.044997
    83  H    0.035390
    84  H    0.043442
    85  H    0.027626
    86  H    0.020517
    87  H    0.029370
    88  H    0.031238
    89  H    0.023070
    90  H    0.011358
    91  H    0.020648
    92  H    0.022228
    93  H    0.017064
    94  H    0.025776
    95  H    0.033827
    96  H    0.035767
    97  H    0.030397
    98  H    0.046860
    99  H    0.053844
   100  H    0.034122
   101  H    0.040013
   102  H    0.055797
   103  H    0.035696
   104  H    0.031745
   105  H    0.027174
   106  H    0.034894
   107  H    0.017012
   108  H    0.013615
   109  H    0.023125
   110  H    0.020923
   111  H    0.016018
   112  H    0.006725
   113  H    0.015098
   114  H    0.025931
   115  H    0.017969
   116  H    0.020255
   117  H    0.019891
   118  H    0.021251
   119  H    0.016581
   120  H    0.028058
   121  H   -0.002559
   122  H    0.024119
   123  H    0.014541
   124  H    0.028844
   125  H    0.026274
   126  H    0.009948
   127  H    0.017053
   128  H    0.003184
   129  H    0.031113
   130  H    0.012517
   131  H    0.022903
   132  H    0.008956
   133  H    0.017041
   134  H    0.032217
   135  H    0.011415
   136  H    0.024776
   137  H    0.022556
   138  H    0.022240
   139  H    0.009874
   140  H    0.027860
 Sum of Mulliken charges =  -0.00000

 Dipole moment (field-independent basis, Debye):
    X=              2.9189    Y=              6.0284    Z=             -1.7465  Tot=              6.9219
 N-N= 4.359237367755D+03 E-N= 0.000000000000D+00  KE=-9.393171258279D+03
 Leave Link  601 at Sat Apr 30 05:40:00 2022, MaxMem=  6710886400 cpu:               1.0 elap:               0.1
 (Enter /sw/apps/gaussian-16.0/g16/l9999.exe)
 1\1\GINC-BP1-COMPUTE082\SP\RZINDO CIS\STO-3G\C55H74Mg1N4O6\OF15641\30-
 Apr-2022\0\\#p ZINDO=(nstates=5)\\step_601_chromophore_13 ZINDO\\0,1\M
 g,0,46.192,24.376,28.456\C,0,46.598,26.635,31.177\C,0,45.279,21.844,30
 .781\C,0,46.33,22.249,26.016\C,0,47.616,26.907,26.32\N,0,46.021,24.271
 ,30.734\C,0,46.097,25.401,31.591\C,0,45.601,25.03,33.062\C,0,45.413,23
 .463,32.901\C,0,45.555,23.108,31.352\C,0,46.29,22.595,33.899\C,0,44.41
 7,25.815,33.559\C,0,44.74,26.678,34.814\C,0,43.767,26.7,35.964\O,0,42.

 Normal termination of Gaussian 16 at Sat Apr 30 05:40:00 2022.
