 Gaussian 16, Revision A.03,
 Gaussian 16:  ES64L-G16RevA.03 25-Dec-2016

 ------------------------------
 #p blyp/Def2SVP td=(nstates=5)
 ------------------------------

 -------------------------------------------------
 step_951_chromophore_6 TDDFT with blyp functional
 -------------------------------------------------
 Symbolic Z-matrix:
 Charge =  0 Multiplicity = 1

                         Standard orientation:
 ---------------------------------------------------------------------
 Center     Atomic      Atomic             Coordinates (Angstroms)
 Number     Number       Type             X           Y           Z
 ---------------------------------------------------------------------
      1         12           0       -5.212517    1.093160   -0.286878
      2          6           0       -4.319061   -2.308928   -0.367719
      3          6           0       -2.044349    2.098381    0.097611
      4          6           0       -6.286434    4.299710    0.134744
      5          6           0       -8.662502    0.041872   -0.290095
      6          7           0       -3.425641   -0.051660    0.102262
      7          6           0       -3.234891   -1.431324   -0.134532
      8          6           0       -1.742688   -1.769650   -0.086243
      9          6           0       -1.115960   -0.363887   -0.018345
     10          6           0       -2.227488    0.671139    0.126480
     11          6           0       -0.120646   -0.175628    1.139321
     12          6           0       -1.251057   -2.587281   -1.318982
     13          6           0       -0.191874   -3.748804   -1.166798
     14          6           0        0.499589   -4.017100    0.158406
     15          8           0       -0.065716   -4.410370    1.173147
     16          8           0        1.808094   -3.614032    0.029038
     17          7           0       -4.256236    2.991468   -0.088702
     18          6           0       -2.865775    3.179685   -0.023369
     19          6           0       -2.581875    4.587369    0.093678
     20          6           0       -3.821887    5.248862    0.067390
     21          6           0       -4.864196    4.148207    0.001241
     22          6           0       -1.150908    4.967716    0.320400
     23          6           0       -4.100207    6.749205    0.186314
     24          8           0       -5.230587    7.249611    0.025740
     25          6           0       -2.901569    7.758892    0.315511
     26          7           0       -7.153365    2.008509   -0.106617
     27          6           0       -7.300480    3.308934    0.186870
     28          6           0       -8.786919    3.685346    0.589609
     29          6           0       -9.514876    2.380441    0.146678
     30          6           0       -8.361655    1.380460   -0.200769
     31          6           0       -8.888846    4.075685    2.087512
     32          6           0      -10.400957    2.522881   -1.092232
     33          6           0      -11.883889    2.019942   -0.888016
     34          7           0       -6.351030   -0.793023   -0.346637
     35          6           0       -7.733222   -0.988091   -0.466748
     36          6           0       -7.927552   -2.438103   -0.519527
     37          6           0       -6.627355   -2.968232   -0.504527
     38          6           0       -5.727732   -1.957837   -0.377103
     39          6           0       -9.245064   -3.079190   -0.701665
     40          6           0       -5.871712   -4.234440   -0.660391
     41          8           0       -6.239610   -5.427655   -0.960534
     42          6           0       -4.384021   -3.823568   -0.541852
     43          6           0       -3.806758   -4.575546    0.587096
     44          8           0       -3.402330   -4.083754    1.651061
     45          8           0       -3.612480   -5.876536    0.252603
     46          6           0       -2.972368   -6.736778    1.276352
     47          6           0        2.627165   -3.852860    1.275218
     48          6           0        3.977394   -3.319967    1.111960
     49          6           0        4.908814   -3.887694    0.313735
     50          6           0        4.601581   -4.939994   -0.835712
     51          6           0        6.300126   -3.271862    0.282015
     52          6           0        6.723302   -2.153535   -0.740142
     53          6           0        8.103405   -1.639803   -0.324375
     54          6           0        8.224911   -0.236977   -0.893276
     55          6           0        8.577562   -0.151742   -2.379770
     56          6           0        8.901606    0.777218   -0.020840
     57          6           0       10.388071    0.379487    0.237668
     58          6           0       10.894474    0.296201    1.743864
     59          6           0       12.349393    0.833328    1.901106
     60          6           0       12.845356    0.473976    3.337546
     61          6           0       12.453741    2.352073    1.575036
     62          6           0       13.725312    2.689166    0.777901
     63          6           0       13.511772    3.075319   -0.702471
     64          6           0       14.675727    2.420932   -1.547571
     65          6           0       14.131714    1.306828   -2.482998
     66          6           0       15.529012    3.542713   -2.326049
     67          1           0       -0.985159    2.350181    0.012365
     68          1           0       -6.517223    5.327699    0.422912
     69          1           0       -9.720357   -0.223353   -0.347404
     70          1           0       -1.709268   -2.382075    0.814980
     71          1           0       -0.603196   -0.202140   -0.966096
     72          1           0       -0.643215    0.341123    1.943818
     73          1           0        0.687010    0.473554    0.802773
     74          1           0        0.339592   -1.074854    1.546770
     75          1           0       -0.766826   -1.956284   -2.064366
     76          1           0       -2.111954   -2.851631   -1.933653
     77          1           0        0.622444   -3.650339   -1.883971
     78          1           0       -0.630249   -4.712027   -1.427332
     79          1           0       -0.903160    6.028506    0.343607
     80          1           0       -0.477146    4.332695   -0.254478
     81          1           0       -0.804805    4.555481    1.268243
     82          1           0       -2.188962    7.605007    1.126447
     83          1           0       -3.229717    8.797501    0.293746
     84          1           0       -2.317932    7.809813   -0.604360
     85          1           0       -9.166309    4.547082    0.040231
     86          1           0      -10.086512    2.069198    1.020045
     87          1           0       -9.603188    3.454399    2.627869
     88          1           0       -8.975019    5.161481    2.130140
     89          1           0       -7.943673    3.803348    2.556787
     90          1           0       -9.950098    1.951744   -1.903124
     91          1           0      -10.398386    3.544174   -1.474265
     92          1           0      -12.388889    2.692744   -1.581432
     93          1           0      -12.349583    2.060927    0.096908
     94          1           0      -11.815182    0.997450   -1.259423
     95          1           0       -9.872127   -2.564688    0.027064
     96          1           0       -9.284203   -4.153895   -0.527129
     97          1           0       -9.713660   -2.933663   -1.674657
     98          1           0       -3.843419   -4.167465   -1.423150
     99          1           0       -3.811350   -7.098011    1.871036
    100          1           0       -2.373895   -6.160672    1.982163
    101          1           0       -2.389693   -7.580247    0.906424
    102          1           0        2.740314   -4.921980    1.456925
    103          1           0        2.067947   -3.492572    2.138440
    104          1           0        4.362387   -2.593698    1.828035
    105          1           0        4.992377   -4.470112   -1.739236
    106          1           0        3.542025   -5.116125   -1.021801
    107          1           0        5.107127   -5.900144   -0.728271
    108          1           0        6.952496   -4.143336    0.337473
    109          1           0        6.450608   -2.878559    1.286671
    110          1           0        5.877497   -1.470164   -0.808684
    111          1           0        6.862944   -2.664499   -1.692939
    112          1           0        8.939799   -2.238631   -0.685726
    113          1           0        8.199396   -1.501319    0.752885
    114          1           0        7.223877    0.188032   -0.825806
    115          1           0        8.889871   -1.084905   -2.848401
    116          1           0        9.374405    0.577364   -2.527320
    117          1           0        7.726298    0.271808   -2.912856
    118          1           0        8.364531    0.899111    0.919278
    119          1           0        8.890113    1.740728   -0.531069
    120          1           0       10.953009    1.128478   -0.317040
    121          1           0       10.592289   -0.550176   -0.293391
    122          1           0       10.871663   -0.755336    2.029141
    123          1           0       10.226950    0.826170    2.423841
    124          1           0       12.998106    0.324706    1.188273
    125          1           0       11.966313    0.318111    3.962166
    126          1           0       13.479940    1.218729    3.818548
    127          1           0       13.331806   -0.494058    3.460324
    128          1           0       12.590500    3.060192    2.392098
    129          1           0       11.505507    2.654230    1.131362
    130          1           0       14.465587    1.905185    0.937185
    131          1           0       14.233427    3.554918    1.202958
    132          1           0       13.595712    4.145905   -0.887438
    133          1           0       12.505890    2.678283   -0.837681
    134          1           0       15.384977    1.811607   -0.988626
    135          1           0       14.761437    0.418441   -2.528590
    136          1           0       13.991341    1.524167   -3.542342
    137          1           0       13.191433    0.941383   -2.070003
    138          1           0       15.663665    3.133926   -3.327208
    139          1           0       16.536428    3.629773   -1.918978
    140          1           0       15.110956    4.549618   -2.344604
 ---------------------------------------------------------------------

 SCF Done:  E(RB-LYP) =  -3007.35918601     A.U. after   23 cycles

 Excitation energies and oscillator strengths:

 Excited State   1:      Singlet-A      1.7447 eV  710.65 nm  f=0.0130  <S**2>=0.000
     244 -> 247        0.68625
     245 -> 247       -0.10756
     246 -> 247       -0.12761
 This state for optimization and/or second-order correction.
 Total Energy, E(TD-HF/TD-DFT) =  -3007.29507104
 Copying the excited state density for this state as the 1-particle RhoCI density.

 Excited State   2:      Singlet-A      1.7594 eV  704.71 nm  f=0.3081  <S**2>=0.000
     244 -> 247        0.13318
     245 -> 248        0.12291
     245 -> 249        0.12967
     246 -> 247        0.68292
     246 <- 247       -0.15484

 Excited State   3:      Singlet-A      1.9611 eV  632.23 nm  f=0.0720  <S**2>=0.000
     243 -> 247       -0.15286
     245 -> 247        0.63058
     246 -> 248       -0.16828
     246 -> 249       -0.16516

 Excited State   4:      Singlet-A      2.0759 eV  597.27 nm  f=0.0055  <S**2>=0.000
     243 -> 247        0.68784
     245 -> 247        0.13218

 Excited State   5:      Singlet-A      2.3763 eV  521.76 nm  f=0.0082  <S**2>=0.000
     242 -> 247        0.68782

 The electronic state is 1-A.
 Alpha  occ. eigenvalues --  -46.27831 -18.82731 -18.81041 -18.77378 -18.76171
 Alpha  occ. eigenvalues --  -18.75393 -18.75139 -14.03604 -14.03245 -14.01253
 Alpha  occ. eigenvalues --  -13.99996 -10.04296 -10.02957 -10.00935  -9.99577
 Alpha  occ. eigenvalues --   -9.97764  -9.97475  -9.97028  -9.96584  -9.96317
 Alpha  occ. eigenvalues --   -9.96181  -9.95979  -9.95541  -9.94883  -9.94620
 Alpha  occ. eigenvalues --   -9.93991  -9.93951  -9.93851  -9.93822  -9.93774
 Alpha  occ. eigenvalues --   -9.93734  -9.93730  -9.93697  -9.93598  -9.93592
 Alpha  occ. eigenvalues --   -9.93408  -9.93253  -9.93047  -9.92871  -9.92798
 Alpha  occ. eigenvalues --   -9.92756  -9.92573  -9.92529  -9.92418  -9.92283
 Alpha  occ. eigenvalues --   -9.92199  -9.92154  -9.92076  -9.92005  -9.91929
 Alpha  occ. eigenvalues --   -9.91909  -9.91892  -9.91839  -9.91837  -9.91806
 Alpha  occ. eigenvalues --   -9.91267  -9.91251  -9.91214  -9.91182  -9.91148
 Alpha  occ. eigenvalues --   -9.91109  -9.90934  -9.90896  -9.90763  -9.90654
 Alpha  occ. eigenvalues --   -9.90545  -2.92224  -1.72670  -1.72062  -1.71968
 Alpha  occ. eigenvalues --   -0.97469  -0.96551  -0.90647  -0.90090  -0.87887
 Alpha  occ. eigenvalues --   -0.87672  -0.86448  -0.85845  -0.85334  -0.84085
 Alpha  occ. eigenvalues --   -0.75010  -0.74415  -0.73196  -0.72521  -0.72450
 Alpha  occ. eigenvalues --   -0.72159  -0.71734  -0.70679  -0.70569  -0.70380
 Alpha  occ. eigenvalues --   -0.69497  -0.69239  -0.68233  -0.67280  -0.66891
 Alpha  occ. eigenvalues --   -0.66262  -0.65662  -0.65047  -0.64792  -0.64282
 Alpha  occ. eigenvalues --   -0.63835  -0.62851  -0.62525  -0.61441  -0.61020
 Alpha  occ. eigenvalues --   -0.60412  -0.60014  -0.59799  -0.59649  -0.59278
 Alpha  occ. eigenvalues --   -0.58317  -0.57508  -0.56551  -0.56273  -0.54271
 Alpha  occ. eigenvalues --   -0.53909  -0.53758  -0.53181  -0.52751  -0.51999
 Alpha  occ. eigenvalues --   -0.51425  -0.51032  -0.50774  -0.50032  -0.49847
 Alpha  occ. eigenvalues --   -0.49792  -0.49152  -0.47896  -0.47709  -0.47054
 Alpha  occ. eigenvalues --   -0.45960  -0.45681  -0.45610  -0.45144  -0.44508
 Alpha  occ. eigenvalues --   -0.43939  -0.43459  -0.43184  -0.42972  -0.42419
 Alpha  occ. eigenvalues --   -0.42118  -0.41693  -0.41639  -0.41445  -0.40993
 Alpha  occ. eigenvalues --   -0.40832  -0.40748  -0.40077  -0.39809  -0.39631
 Alpha  occ. eigenvalues --   -0.39540  -0.39335  -0.39255  -0.39219  -0.38919
 Alpha  occ. eigenvalues --   -0.38643  -0.38606  -0.38430  -0.38056  -0.37912
 Alpha  occ. eigenvalues --   -0.37655  -0.37564  -0.37438  -0.37375  -0.37210
 Alpha  occ. eigenvalues --   -0.36983  -0.36862  -0.36738  -0.36541  -0.36420
 Alpha  occ. eigenvalues --   -0.36318  -0.36178  -0.35780  -0.35556  -0.35527
 Alpha  occ. eigenvalues --   -0.35221  -0.34927  -0.34663  -0.34501  -0.34412
 Alpha  occ. eigenvalues --   -0.34296  -0.34251  -0.34105  -0.33939  -0.33535
 Alpha  occ. eigenvalues --   -0.33266  -0.33219  -0.33172  -0.33006  -0.32843
 Alpha  occ. eigenvalues --   -0.32823  -0.32508  -0.32432  -0.32215  -0.32165
 Alpha  occ. eigenvalues --   -0.31952  -0.31909  -0.31848  -0.31636  -0.31510
 Alpha  occ. eigenvalues --   -0.31486  -0.31178  -0.30886  -0.30753  -0.30619
 Alpha  occ. eigenvalues --   -0.30507  -0.30267  -0.30039  -0.29872  -0.29698
 Alpha  occ. eigenvalues --   -0.29551  -0.29353  -0.29164  -0.29014  -0.28900
 Alpha  occ. eigenvalues --   -0.28850  -0.28286  -0.28239  -0.27880  -0.27824
 Alpha  occ. eigenvalues --   -0.27427  -0.27370  -0.27267  -0.26903  -0.26588
 Alpha  occ. eigenvalues --   -0.26249  -0.26077  -0.25780  -0.25747  -0.25658
 Alpha  occ. eigenvalues --   -0.24937  -0.24028  -0.23680  -0.23648  -0.23206
 Alpha  occ. eigenvalues --   -0.22691  -0.22518  -0.22104  -0.21050  -0.20963
 Alpha  occ. eigenvalues --   -0.20639  -0.19796  -0.19116  -0.17957  -0.17287
 Alpha  occ. eigenvalues --   -0.15705
 Alpha virt. eigenvalues --   -0.11629  -0.06831  -0.06565  -0.05237  -0.04032
 Alpha virt. eigenvalues --   -0.03206  -0.02204  -0.01628  -0.01495   0.00088
 Alpha virt. eigenvalues --    0.01220   0.01684   0.01897   0.02332   0.02708

 Mulliken charges:
               1
     1  Mg   0.668785
     2  C    0.076111
     3  C   -0.026258
     4  C   -0.013378
     5  C   -0.070544
     6  N   -0.280047
     7  C   -0.103154
     8  C    0.087845
     9  C    0.011666
    10  C    0.040260
    11  C    0.114446
    12  C    0.112382
    13  C    0.154956
    14  C    0.062010
    15  O   -0.192023
    16  O   -0.279807
    17  N   -0.257668
    18  C    0.107489
    19  C   -0.082869
    20  C    0.015771
    21  C    0.037340
    22  C    0.191010
    23  C   -0.033903
    24  O   -0.178643
    25  C    0.094140
    26  N   -0.197985
    27  C    0.024792
    28  C   -0.018683
    29  C    0.009889
    30  C    0.060113
    31  C    0.142250
    32  C    0.072593
    33  C    0.056504
    34  N   -0.225028
    35  C    0.090349
    36  C   -0.167943
    37  C    0.110382
    38  C    0.021309
    39  C    0.151942
    40  C   -0.022898
    41  O   -0.183627
    42  C    0.040271
    43  C    0.112014
    44  O   -0.199950
    45  O   -0.257606
    46  C    0.217468
    47  C    0.310161
    48  C   -0.071696
    49  C   -0.139697
    50  C    0.114629
    51  C    0.089384
    52  C    0.124937
    53  C    0.134346
    54  C   -0.110939
    55  C    0.126835
    56  C    0.109863
    57  C    0.041100
    58  C    0.099950
    59  C   -0.053757
    60  C    0.110575
    61  C    0.101660
    62  C    0.023175
    63  C    0.145845
    64  C   -0.086867
    65  C    0.075574
    66  C    0.087826
    67  H   -0.076212
    68  H   -0.044721
    69  H   -0.055975
    70  H    0.022086
    71  H   -0.023471
    72  H   -0.005553
    73  H   -0.015522
    74  H    0.000476
    75  H   -0.036366
    76  H   -0.031601
    77  H   -0.018337
    78  H   -0.001767
    79  H   -0.010085
    80  H   -0.012273
    81  H   -0.014224
    82  H    0.015833
    83  H   -0.016019
    84  H    0.006201
    85  H   -0.022795
    86  H   -0.029280
    87  H   -0.011665
    88  H    0.008150
    89  H   -0.014456
    90  H   -0.018608
    91  H   -0.025337
    92  H   -0.004858
    93  H    0.005441
    94  H    0.002963
    95  H   -0.005793
    96  H    0.001952
    97  H    0.004360
    98  H    0.014072
    99  H    0.002564
   100  H    0.030245
   101  H    0.018286
   102  H    0.000180
   103  H   -0.000792
   104  H   -0.038870
   105  H   -0.003392
   106  H   -0.003353
   107  H    0.000664
   108  H   -0.037290
   109  H   -0.044620
   110  H   -0.016860
   111  H   -0.022964
   112  H   -0.021480
   113  H   -0.037625
   114  H   -0.049554
   115  H   -0.016426
   116  H   -0.024986
   117  H   -0.018025
   118  H   -0.036616
   119  H   -0.042614
   120  H   -0.026709
   121  H   -0.029781
   122  H   -0.031564
   123  H   -0.025582
   124  H   -0.030036
   125  H   -0.030211
   126  H   -0.015494
   127  H   -0.023915
   128  H   -0.038933
   129  H   -0.033913
   130  H   -0.024983
   131  H   -0.044231
   132  H   -0.028605
   133  H   -0.028885
   134  H   -0.022349
   135  H   -0.028226
   136  H   -0.017991
   137  H   -0.022409
   138  H   -0.022266
   139  H   -0.017212
   140  H   -0.004770
 Sum of Mulliken charges =  -0.00000

 Dipole moment (field-independent basis, Debye):
    X=              5.7115    Y=              1.8048    Z=             -1.1537  Tot=              6.1000
 Quadrupole moment (field-independent basis, Debye-Ang):
   XX=           -386.3718   YY=           -432.1830   ZZ=           -407.5885
   XY=            -20.1690   XZ=              0.3965   YZ=              3.7089

 Normal termination of Gaussian 16 at Thu May  5 16:17:29 2022.
