 Gaussian 16, Revision A.03,
 Gaussian 16:  ES64L-G16RevA.03 25-Dec-2016

 -----------------------------------
 #p cam-b3lyp/Def2SVP td=(nstates=5)
 -----------------------------------

 ------------------------------------------------------
 step_951_chromophore_6 TDDFT with cam-b3lyp functional
 ------------------------------------------------------
 Symbolic Z-matrix:
 Charge =  0 Multiplicity = 1

                         Standard orientation:
 ---------------------------------------------------------------------
 Center     Atomic      Atomic             Coordinates (Angstroms)
 Number     Number       Type             X           Y           Z
 ---------------------------------------------------------------------
      1         12           0       -5.212517    1.093160   -0.286878
      2          6           0       -4.319061   -2.308928   -0.367719
      3          6           0       -2.044349    2.098381    0.097611
      4          6           0       -6.286434    4.299710    0.134744
      5          6           0       -8.662502    0.041872   -0.290095
      6          7           0       -3.425641   -0.051660    0.102262
      7          6           0       -3.234891   -1.431324   -0.134532
      8          6           0       -1.742688   -1.769650   -0.086243
      9          6           0       -1.115960   -0.363887   -0.018345
     10          6           0       -2.227488    0.671139    0.126480
     11          6           0       -0.120646   -0.175628    1.139321
     12          6           0       -1.251057   -2.587281   -1.318982
     13          6           0       -0.191874   -3.748804   -1.166798
     14          6           0        0.499589   -4.017100    0.158406
     15          8           0       -0.065716   -4.410370    1.173147
     16          8           0        1.808094   -3.614032    0.029038
     17          7           0       -4.256236    2.991468   -0.088702
     18          6           0       -2.865775    3.179685   -0.023369
     19          6           0       -2.581875    4.587369    0.093678
     20          6           0       -3.821887    5.248862    0.067390
     21          6           0       -4.864196    4.148207    0.001241
     22          6           0       -1.150908    4.967716    0.320400
     23          6           0       -4.100207    6.749205    0.186314
     24          8           0       -5.230587    7.249611    0.025740
     25          6           0       -2.901569    7.758892    0.315511
     26          7           0       -7.153365    2.008509   -0.106617
     27          6           0       -7.300480    3.308934    0.186870
     28          6           0       -8.786919    3.685346    0.589609
     29          6           0       -9.514876    2.380441    0.146678
     30          6           0       -8.361655    1.380460   -0.200769
     31          6           0       -8.888846    4.075685    2.087512
     32          6           0      -10.400957    2.522881   -1.092232
     33          6           0      -11.883889    2.019942   -0.888016
     34          7           0       -6.351030   -0.793023   -0.346637
     35          6           0       -7.733222   -0.988091   -0.466748
     36          6           0       -7.927552   -2.438103   -0.519527
     37          6           0       -6.627355   -2.968232   -0.504527
     38          6           0       -5.727732   -1.957837   -0.377103
     39          6           0       -9.245064   -3.079190   -0.701665
     40          6           0       -5.871712   -4.234440   -0.660391
     41          8           0       -6.239610   -5.427655   -0.960534
     42          6           0       -4.384021   -3.823568   -0.541852
     43          6           0       -3.806758   -4.575546    0.587096
     44          8           0       -3.402330   -4.083754    1.651061
     45          8           0       -3.612480   -5.876536    0.252603
     46          6           0       -2.972368   -6.736778    1.276352
     47          6           0        2.627165   -3.852860    1.275218
     48          6           0        3.977394   -3.319967    1.111960
     49          6           0        4.908814   -3.887694    0.313735
     50          6           0        4.601581   -4.939994   -0.835712
     51          6           0        6.300126   -3.271862    0.282015
     52          6           0        6.723302   -2.153535   -0.740142
     53          6           0        8.103405   -1.639803   -0.324375
     54          6           0        8.224911   -0.236977   -0.893276
     55          6           0        8.577562   -0.151742   -2.379770
     56          6           0        8.901606    0.777218   -0.020840
     57          6           0       10.388071    0.379487    0.237668
     58          6           0       10.894474    0.296201    1.743864
     59          6           0       12.349393    0.833328    1.901106
     60          6           0       12.845356    0.473976    3.337546
     61          6           0       12.453741    2.352073    1.575036
     62          6           0       13.725312    2.689166    0.777901
     63          6           0       13.511772    3.075319   -0.702471
     64          6           0       14.675727    2.420932   -1.547571
     65          6           0       14.131714    1.306828   -2.482998
     66          6           0       15.529012    3.542713   -2.326049
     67          1           0       -0.985159    2.350181    0.012365
     68          1           0       -6.517223    5.327699    0.422912
     69          1           0       -9.720357   -0.223353   -0.347404
     70          1           0       -1.709268   -2.382075    0.814980
     71          1           0       -0.603196   -0.202140   -0.966096
     72          1           0       -0.643215    0.341123    1.943818
     73          1           0        0.687010    0.473554    0.802773
     74          1           0        0.339592   -1.074854    1.546770
     75          1           0       -0.766826   -1.956284   -2.064366
     76          1           0       -2.111954   -2.851631   -1.933653
     77          1           0        0.622444   -3.650339   -1.883971
     78          1           0       -0.630249   -4.712027   -1.427332
     79          1           0       -0.903160    6.028506    0.343607
     80          1           0       -0.477146    4.332695   -0.254478
     81          1           0       -0.804805    4.555481    1.268243
     82          1           0       -2.188962    7.605007    1.126447
     83          1           0       -3.229717    8.797501    0.293746
     84          1           0       -2.317932    7.809813   -0.604360
     85          1           0       -9.166309    4.547082    0.040231
     86          1           0      -10.086512    2.069198    1.020045
     87          1           0       -9.603188    3.454399    2.627869
     88          1           0       -8.975019    5.161481    2.130140
     89          1           0       -7.943673    3.803348    2.556787
     90          1           0       -9.950098    1.951744   -1.903124
     91          1           0      -10.398386    3.544174   -1.474265
     92          1           0      -12.388889    2.692744   -1.581432
     93          1           0      -12.349583    2.060927    0.096908
     94          1           0      -11.815182    0.997450   -1.259423
     95          1           0       -9.872127   -2.564688    0.027064
     96          1           0       -9.284203   -4.153895   -0.527129
     97          1           0       -9.713660   -2.933663   -1.674657
     98          1           0       -3.843419   -4.167465   -1.423150
     99          1           0       -3.811350   -7.098011    1.871036
    100          1           0       -2.373895   -6.160672    1.982163
    101          1           0       -2.389693   -7.580247    0.906424
    102          1           0        2.740314   -4.921980    1.456925
    103          1           0        2.067947   -3.492572    2.138440
    104          1           0        4.362387   -2.593698    1.828035
    105          1           0        4.992377   -4.470112   -1.739236
    106          1           0        3.542025   -5.116125   -1.021801
    107          1           0        5.107127   -5.900144   -0.728271
    108          1           0        6.952496   -4.143336    0.337473
    109          1           0        6.450608   -2.878559    1.286671
    110          1           0        5.877497   -1.470164   -0.808684
    111          1           0        6.862944   -2.664499   -1.692939
    112          1           0        8.939799   -2.238631   -0.685726
    113          1           0        8.199396   -1.501319    0.752885
    114          1           0        7.223877    0.188032   -0.825806
    115          1           0        8.889871   -1.084905   -2.848401
    116          1           0        9.374405    0.577364   -2.527320
    117          1           0        7.726298    0.271808   -2.912856
    118          1           0        8.364531    0.899111    0.919278
    119          1           0        8.890113    1.740728   -0.531069
    120          1           0       10.953009    1.128478   -0.317040
    121          1           0       10.592289   -0.550176   -0.293391
    122          1           0       10.871663   -0.755336    2.029141
    123          1           0       10.226950    0.826170    2.423841
    124          1           0       12.998106    0.324706    1.188273
    125          1           0       11.966313    0.318111    3.962166
    126          1           0       13.479940    1.218729    3.818548
    127          1           0       13.331806   -0.494058    3.460324
    128          1           0       12.590500    3.060192    2.392098
    129          1           0       11.505507    2.654230    1.131362
    130          1           0       14.465587    1.905185    0.937185
    131          1           0       14.233427    3.554918    1.202958
    132          1           0       13.595712    4.145905   -0.887438
    133          1           0       12.505890    2.678283   -0.837681
    134          1           0       15.384977    1.811607   -0.988626
    135          1           0       14.761437    0.418441   -2.528590
    136          1           0       13.991341    1.524167   -3.542342
    137          1           0       13.191433    0.941383   -2.070003
    138          1           0       15.663665    3.133926   -3.327208
    139          1           0       16.536428    3.629773   -1.918978
    140          1           0       15.110956    4.549618   -2.344604
 ---------------------------------------------------------------------

 SCF Done:  E(RCAM-B3LYP) =  -3007.14042969     A.U. after   19 cycles

 Excitation energies and oscillator strengths:

 Excited State   1:      Singlet-A      1.6815 eV  737.35 nm  f=0.3942  <S**2>=0.000
     245 -> 248        0.16921
     246 -> 247        0.68905
     245 <- 248        0.10594
 This state for optimization and/or second-order correction.
 Total Energy, E(TD-HF/TD-DFT) =  -3007.07863608
 Copying the excited state density for this state as the 1-particle RhoCI density.

 Excited State   2:      Singlet-A      2.2054 eV  562.19 nm  f=0.1022  <S**2>=0.000
     245 -> 247        0.63909
     246 -> 248       -0.29089

 Excited State   3:      Singlet-A      3.2579 eV  380.57 nm  f=0.0026  <S**2>=0.000
     242 -> 247       -0.14100
     244 -> 247        0.67184

 Excited State   4:      Singlet-A      3.3756 eV  367.29 nm  f=0.0002  <S**2>=0.000
     243 -> 247        0.52680
     243 -> 249       -0.28351
     243 -> 250       -0.30830

 Excited State   5:      Singlet-A      3.4812 eV  356.15 nm  f=0.3980  <S**2>=0.000
     239 -> 247       -0.18031
     239 -> 249       -0.11435
     242 -> 247        0.29704
     245 -> 247        0.21998
     246 -> 248        0.53907

 The electronic state is 1-A.
 Alpha  occ. eigenvalues --  -46.89406 -19.25649 -19.23791 -19.20331 -19.19834
 Alpha  occ. eigenvalues --  -19.18288 -19.18032 -14.42691 -14.41910 -14.39902
 Alpha  occ. eigenvalues --  -14.38071 -10.39597 -10.38261 -10.36671 -10.34787
 Alpha  occ. eigenvalues --  -10.32440 -10.31970 -10.31338 -10.31246 -10.31014
 Alpha  occ. eigenvalues --  -10.30389 -10.30166 -10.29958 -10.29808 -10.28679
 Alpha  occ. eigenvalues --  -10.28534 -10.28210 -10.28088 -10.27998 -10.27919
 Alpha  occ. eigenvalues --  -10.27881 -10.27848 -10.27833 -10.27641 -10.27530
 Alpha  occ. eigenvalues --  -10.27510 -10.27184 -10.26886 -10.26764 -10.26557
 Alpha  occ. eigenvalues --  -10.26523 -10.26486 -10.26336 -10.26316 -10.26190
 Alpha  occ. eigenvalues --  -10.26106 -10.25956 -10.25937 -10.25733 -10.25696
 Alpha  occ. eigenvalues --  -10.25589 -10.25588 -10.25472 -10.25375 -10.25104
 Alpha  occ. eigenvalues --  -10.25043 -10.24918 -10.24888 -10.24857 -10.24820
 Alpha  occ. eigenvalues --  -10.24764 -10.24607 -10.24525 -10.24421 -10.24286
 Alpha  occ. eigenvalues --  -10.24154  -3.17693  -1.92620  -1.92112  -1.92011
 Alpha  occ. eigenvalues --   -1.15902  -1.14893  -1.09408  -1.07923  -1.05640
 Alpha  occ. eigenvalues --   -1.05601  -1.04355  -1.03356  -1.02701  -1.01683
 Alpha  occ. eigenvalues --   -0.91943  -0.91323  -0.90026  -0.89583  -0.89211
 Alpha  occ. eigenvalues --   -0.88881  -0.88254  -0.87439  -0.87103  -0.86946
 Alpha  occ. eigenvalues --   -0.85849  -0.85492  -0.84549  -0.83299  -0.83062
 Alpha  occ. eigenvalues --   -0.82340  -0.81694  -0.81116  -0.80570  -0.80324
 Alpha  occ. eigenvalues --   -0.79600  -0.78985  -0.78074  -0.76762  -0.76401
 Alpha  occ. eigenvalues --   -0.75689  -0.75386  -0.75114  -0.74857  -0.74566
 Alpha  occ. eigenvalues --   -0.73387  -0.72407  -0.71437  -0.71096  -0.68940
 Alpha  occ. eigenvalues --   -0.68716  -0.68148  -0.67569  -0.67176  -0.66381
 Alpha  occ. eigenvalues --   -0.65687  -0.64934  -0.64788  -0.63920  -0.63874
 Alpha  occ. eigenvalues --   -0.63566  -0.63117  -0.61677  -0.61256  -0.60923
 Alpha  occ. eigenvalues --   -0.59472  -0.59181  -0.59022  -0.58389  -0.57937
 Alpha  occ. eigenvalues --   -0.57435  -0.56672  -0.56528  -0.56162  -0.55413
 Alpha  occ. eigenvalues --   -0.55230  -0.54971  -0.54474  -0.54221  -0.53799
 Alpha  occ. eigenvalues --   -0.53541  -0.53409  -0.53119  -0.52744  -0.52631
 Alpha  occ. eigenvalues --   -0.52105  -0.52015  -0.51798  -0.51735  -0.51458
 Alpha  occ. eigenvalues --   -0.51343  -0.51124  -0.50944  -0.50535  -0.50314
 Alpha  occ. eigenvalues --   -0.50239  -0.50129  -0.49892  -0.49609  -0.49519
 Alpha  occ. eigenvalues --   -0.49322  -0.49082  -0.48988  -0.48648  -0.48565
 Alpha  occ. eigenvalues --   -0.48468  -0.48238  -0.48165  -0.47954  -0.47573
 Alpha  occ. eigenvalues --   -0.47439  -0.47160  -0.46937  -0.46419  -0.46290
 Alpha  occ. eigenvalues --   -0.46234  -0.45994  -0.45959  -0.45628  -0.45248
 Alpha  occ. eigenvalues --   -0.45102  -0.44962  -0.44922  -0.44612  -0.44537
 Alpha  occ. eigenvalues --   -0.44390  -0.44172  -0.43997  -0.43931  -0.43685
 Alpha  occ. eigenvalues --   -0.43634  -0.43557  -0.43533  -0.43175  -0.43054
 Alpha  occ. eigenvalues --   -0.42895  -0.42583  -0.42446  -0.42186  -0.41970
 Alpha  occ. eigenvalues --   -0.41937  -0.41803  -0.41511  -0.41083  -0.41021
 Alpha  occ. eigenvalues --   -0.40853  -0.40677  -0.40374  -0.40192  -0.40041
 Alpha  occ. eigenvalues --   -0.39916  -0.39850  -0.39142  -0.38908  -0.38756
 Alpha  occ. eigenvalues --   -0.38382  -0.38178  -0.38054  -0.37777  -0.37507
 Alpha  occ. eigenvalues --   -0.37336  -0.36878  -0.36706  -0.36545  -0.36381
 Alpha  occ. eigenvalues --   -0.35833  -0.35044  -0.34377  -0.34073  -0.33678
 Alpha  occ. eigenvalues --   -0.33664  -0.33256  -0.32839  -0.31825  -0.31659
 Alpha  occ. eigenvalues --   -0.30839  -0.30200  -0.29814  -0.28619  -0.24137
 Alpha  occ. eigenvalues --   -0.20923
 Alpha virt. eigenvalues --   -0.08748  -0.01549  -0.00298   0.01718   0.02792
 Alpha virt. eigenvalues --    0.03359   0.04617   0.05653   0.06133   0.06535
 Alpha virt. eigenvalues --    0.07813   0.08005   0.08457   0.08823   0.09338

 Mulliken charges:
               1
     1  Mg   0.798731
     2  C    0.049710
     3  C   -0.050360
     4  C   -0.034497
     5  C   -0.072172
     6  N   -0.348919
     7  C   -0.052252
     8  C    0.029549
     9  C   -0.047401
    10  C    0.067868
    11  C    0.059883
    12  C    0.056898
    13  C    0.090459
    14  C    0.137765
    15  O   -0.232793
    16  O   -0.343855
    17  N   -0.346278
    18  C    0.123311
    19  C   -0.088853
    20  C   -0.045940
    21  C    0.071003
    22  C    0.126085
    23  C    0.038996
    24  O   -0.215439
    25  C    0.017167
    26  N   -0.273474
    27  C    0.045306
    28  C   -0.064555
    29  C   -0.047071
    30  C    0.070496
    31  C    0.082504
    32  C    0.019089
    33  C   -0.003384
    34  N   -0.311662
    35  C    0.093325
    36  C   -0.165625
    37  C    0.025698
    38  C    0.057364
    39  C    0.099287
    40  C    0.077648
    41  O   -0.222834
    42  C   -0.035376
    43  C    0.198989
    44  O   -0.239326
    45  O   -0.320189
    46  C    0.177236
    47  C    0.271025
    48  C   -0.097191
    49  C   -0.152946
    50  C    0.059214
    51  C    0.031986
    52  C    0.067461
    53  C    0.076888
    54  C   -0.169410
    55  C    0.065815
    56  C    0.062020
    57  C   -0.011680
    58  C    0.049107
    59  C   -0.109316
    60  C    0.051956
    61  C    0.042980
    62  C   -0.026979
    63  C    0.093275
    64  C   -0.149871
    65  C    0.023353
    66  C    0.031400
    67  H   -0.042050
    68  H   -0.006556
    69  H   -0.023434
    70  H    0.058136
    71  H    0.011979
    72  H    0.020826
    73  H    0.008141
    74  H    0.023132
    75  H   -0.004355
    76  H    0.000578
    77  H    0.016710
    78  H    0.027877
    79  H    0.019116
    80  H    0.017367
    81  H    0.018683
    82  H    0.042322
    83  H    0.021082
    84  H    0.035002
    85  H    0.012139
    86  H    0.004596
    87  H    0.013935
    88  H    0.030975
    89  H    0.011772
    90  H    0.012468
    91  H    0.001693
    92  H    0.018099
    93  H    0.027200
    94  H    0.023054
    95  H    0.015309
    96  H    0.028910
    97  H    0.028371
    98  H    0.054696
    99  H    0.026044
   100  H    0.056188
   101  H    0.039925
   102  H    0.029694
   103  H    0.030485
   104  H   -0.004943
   105  H    0.018573
   106  H    0.021365
   107  H    0.025145
   108  H   -0.008089
   109  H   -0.015231
   110  H    0.012055
   111  H    0.003397
   112  H    0.006203
   113  H   -0.008788
   114  H   -0.014720
   115  H    0.008106
   116  H   -0.000706
   117  H    0.007355
   118  H   -0.008217
   119  H   -0.011938
   120  H   -0.006857
   121  H   -0.002505
   122  H   -0.002635
   123  H    0.001264
   124  H    0.000205
   125  H   -0.005792
   126  H    0.008802
   127  H    0.001712
   128  H   -0.007623
   129  H   -0.005595
   130  H    0.001622
   131  H   -0.013935
   132  H    0.000093
   133  H   -0.004294
   134  H    0.009055
   135  H   -0.003436
   136  H    0.005881
   137  H   -0.002270
   138  H    0.001435
   139  H    0.006761
   140  H    0.017234
 Sum of Mulliken charges =  -0.00000

 Dipole moment (field-independent basis, Debye):
    X=              6.7448    Y=              3.0271    Z=             -1.0527  Tot=              7.4675
 Quadrupole moment (field-independent basis, Debye-Ang):
   XX=           -393.8624   YY=           -425.7334   ZZ=           -407.4512
   XY=            -24.6881   XZ=             -0.1824   YZ=              4.2735

 Normal termination of Gaussian 16 at Thu May  5 14:51:07 2022.
