 Gaussian 16, Revision A.03,
 Gaussian 16:  ES64L-G16RevA.03 25-Dec-2016

 ---------------------------------
 #p PBE1PBE/Def2SVP td=(nstates=5)
 ---------------------------------

 ----------------------------------------------------
 step_951_chromophore_6 TDDFT with PBE1PBE functional
 ----------------------------------------------------
 Symbolic Z-matrix:
 Charge =  0 Multiplicity = 1

                         Standard orientation:
 ---------------------------------------------------------------------
 Center     Atomic      Atomic             Coordinates (Angstroms)
 Number     Number       Type             X           Y           Z
 ---------------------------------------------------------------------
      1         12           0       -5.212517    1.093160   -0.286878
      2          6           0       -4.319061   -2.308928   -0.367719
      3          6           0       -2.044349    2.098381    0.097611
      4          6           0       -6.286434    4.299710    0.134744
      5          6           0       -8.662502    0.041872   -0.290095
      6          7           0       -3.425641   -0.051660    0.102262
      7          6           0       -3.234891   -1.431324   -0.134532
      8          6           0       -1.742688   -1.769650   -0.086243
      9          6           0       -1.115960   -0.363887   -0.018345
     10          6           0       -2.227488    0.671139    0.126480
     11          6           0       -0.120646   -0.175628    1.139321
     12          6           0       -1.251057   -2.587281   -1.318982
     13          6           0       -0.191874   -3.748804   -1.166798
     14          6           0        0.499589   -4.017100    0.158406
     15          8           0       -0.065716   -4.410370    1.173147
     16          8           0        1.808094   -3.614032    0.029038
     17          7           0       -4.256236    2.991468   -0.088702
     18          6           0       -2.865775    3.179685   -0.023369
     19          6           0       -2.581875    4.587369    0.093678
     20          6           0       -3.821887    5.248862    0.067390
     21          6           0       -4.864196    4.148207    0.001241
     22          6           0       -1.150908    4.967716    0.320400
     23          6           0       -4.100207    6.749205    0.186314
     24          8           0       -5.230587    7.249611    0.025740
     25          6           0       -2.901569    7.758892    0.315511
     26          7           0       -7.153365    2.008509   -0.106617
     27          6           0       -7.300480    3.308934    0.186870
     28          6           0       -8.786919    3.685346    0.589609
     29          6           0       -9.514876    2.380441    0.146678
     30          6           0       -8.361655    1.380460   -0.200769
     31          6           0       -8.888846    4.075685    2.087512
     32          6           0      -10.400957    2.522881   -1.092232
     33          6           0      -11.883889    2.019942   -0.888016
     34          7           0       -6.351030   -0.793023   -0.346637
     35          6           0       -7.733222   -0.988091   -0.466748
     36          6           0       -7.927552   -2.438103   -0.519527
     37          6           0       -6.627355   -2.968232   -0.504527
     38          6           0       -5.727732   -1.957837   -0.377103
     39          6           0       -9.245064   -3.079190   -0.701665
     40          6           0       -5.871712   -4.234440   -0.660391
     41          8           0       -6.239610   -5.427655   -0.960534
     42          6           0       -4.384021   -3.823568   -0.541852
     43          6           0       -3.806758   -4.575546    0.587096
     44          8           0       -3.402330   -4.083754    1.651061
     45          8           0       -3.612480   -5.876536    0.252603
     46          6           0       -2.972368   -6.736778    1.276352
     47          6           0        2.627165   -3.852860    1.275218
     48          6           0        3.977394   -3.319967    1.111960
     49          6           0        4.908814   -3.887694    0.313735
     50          6           0        4.601581   -4.939994   -0.835712
     51          6           0        6.300126   -3.271862    0.282015
     52          6           0        6.723302   -2.153535   -0.740142
     53          6           0        8.103405   -1.639803   -0.324375
     54          6           0        8.224911   -0.236977   -0.893276
     55          6           0        8.577562   -0.151742   -2.379770
     56          6           0        8.901606    0.777218   -0.020840
     57          6           0       10.388071    0.379487    0.237668
     58          6           0       10.894474    0.296201    1.743864
     59          6           0       12.349393    0.833328    1.901106
     60          6           0       12.845356    0.473976    3.337546
     61          6           0       12.453741    2.352073    1.575036
     62          6           0       13.725312    2.689166    0.777901
     63          6           0       13.511772    3.075319   -0.702471
     64          6           0       14.675727    2.420932   -1.547571
     65          6           0       14.131714    1.306828   -2.482998
     66          6           0       15.529012    3.542713   -2.326049
     67          1           0       -0.985159    2.350181    0.012365
     68          1           0       -6.517223    5.327699    0.422912
     69          1           0       -9.720357   -0.223353   -0.347404
     70          1           0       -1.709268   -2.382075    0.814980
     71          1           0       -0.603196   -0.202140   -0.966096
     72          1           0       -0.643215    0.341123    1.943818
     73          1           0        0.687010    0.473554    0.802773
     74          1           0        0.339592   -1.074854    1.546770
     75          1           0       -0.766826   -1.956284   -2.064366
     76          1           0       -2.111954   -2.851631   -1.933653
     77          1           0        0.622444   -3.650339   -1.883971
     78          1           0       -0.630249   -4.712027   -1.427332
     79          1           0       -0.903160    6.028506    0.343607
     80          1           0       -0.477146    4.332695   -0.254478
     81          1           0       -0.804805    4.555481    1.268243
     82          1           0       -2.188962    7.605007    1.126447
     83          1           0       -3.229717    8.797501    0.293746
     84          1           0       -2.317932    7.809813   -0.604360
     85          1           0       -9.166309    4.547082    0.040231
     86          1           0      -10.086512    2.069198    1.020045
     87          1           0       -9.603188    3.454399    2.627869
     88          1           0       -8.975019    5.161481    2.130140
     89          1           0       -7.943673    3.803348    2.556787
     90          1           0       -9.950098    1.951744   -1.903124
     91          1           0      -10.398386    3.544174   -1.474265
     92          1           0      -12.388889    2.692744   -1.581432
     93          1           0      -12.349583    2.060927    0.096908
     94          1           0      -11.815182    0.997450   -1.259423
     95          1           0       -9.872127   -2.564688    0.027064
     96          1           0       -9.284203   -4.153895   -0.527129
     97          1           0       -9.713660   -2.933663   -1.674657
     98          1           0       -3.843419   -4.167465   -1.423150
     99          1           0       -3.811350   -7.098011    1.871036
    100          1           0       -2.373895   -6.160672    1.982163
    101          1           0       -2.389693   -7.580247    0.906424
    102          1           0        2.740314   -4.921980    1.456925
    103          1           0        2.067947   -3.492572    2.138440
    104          1           0        4.362387   -2.593698    1.828035
    105          1           0        4.992377   -4.470112   -1.739236
    106          1           0        3.542025   -5.116125   -1.021801
    107          1           0        5.107127   -5.900144   -0.728271
    108          1           0        6.952496   -4.143336    0.337473
    109          1           0        6.450608   -2.878559    1.286671
    110          1           0        5.877497   -1.470164   -0.808684
    111          1           0        6.862944   -2.664499   -1.692939
    112          1           0        8.939799   -2.238631   -0.685726
    113          1           0        8.199396   -1.501319    0.752885
    114          1           0        7.223877    0.188032   -0.825806
    115          1           0        8.889871   -1.084905   -2.848401
    116          1           0        9.374405    0.577364   -2.527320
    117          1           0        7.726298    0.271808   -2.912856
    118          1           0        8.364531    0.899111    0.919278
    119          1           0        8.890113    1.740728   -0.531069
    120          1           0       10.953009    1.128478   -0.317040
    121          1           0       10.592289   -0.550176   -0.293391
    122          1           0       10.871663   -0.755336    2.029141
    123          1           0       10.226950    0.826170    2.423841
    124          1           0       12.998106    0.324706    1.188273
    125          1           0       11.966313    0.318111    3.962166
    126          1           0       13.479940    1.218729    3.818548
    127          1           0       13.331806   -0.494058    3.460324
    128          1           0       12.590500    3.060192    2.392098
    129          1           0       11.505507    2.654230    1.131362
    130          1           0       14.465587    1.905185    0.937185
    131          1           0       14.233427    3.554918    1.202958
    132          1           0       13.595712    4.145905   -0.887438
    133          1           0       12.505890    2.678283   -0.837681
    134          1           0       15.384977    1.811607   -0.988626
    135          1           0       14.761437    0.418441   -2.528590
    136          1           0       13.991341    1.524167   -3.542342
    137          1           0       13.191433    0.941383   -2.070003
    138          1           0       15.663665    3.133926   -3.327208
    139          1           0       16.536428    3.629773   -1.918978
    140          1           0       15.110956    4.549618   -2.344604
 ---------------------------------------------------------------------

 SCF Done:  E(RPBE1PBE) =  -3005.32947909     A.U. after   16 cycles

 Excitation energies and oscillator strengths:

 Excited State   1:      Singlet-A      1.8148 eV  683.18 nm  f=0.3852  <S**2>=0.000
     245 -> 248        0.16319
     246 -> 247        0.69687
     246 <- 247       -0.11440
 This state for optimization and/or second-order correction.
 Total Energy, E(TD-HF/TD-DFT) =  -3005.26278639
 Copying the excited state density for this state as the 1-particle RhoCI density.

 Excited State   2:      Singlet-A      2.1962 eV  564.55 nm  f=0.1002  <S**2>=0.000
     245 -> 247        0.65220
     246 -> 248       -0.25959

 Excited State   3:      Singlet-A      2.8399 eV  436.58 nm  f=0.0017  <S**2>=0.000
     243 -> 247        0.55394
     243 -> 249       -0.15051
     243 -> 250       -0.12755
     244 -> 247       -0.38180

 Excited State   4:      Singlet-A      2.8958 eV  428.15 nm  f=0.0041  <S**2>=0.000
     243 -> 247        0.37634
     244 -> 247        0.57758

 Excited State   5:      Singlet-A      3.1290 eV  396.24 nm  f=0.0008  <S**2>=0.000
     240 -> 247        0.56874
     240 -> 249        0.19225
     240 -> 250       -0.10268
     242 -> 247       -0.31165

 The electronic state is 1-A.
 Alpha  occ. eigenvalues --  -46.92797 -19.26331 -19.24503 -19.20594 -19.19796
 Alpha  occ. eigenvalues --  -19.18615 -19.18523 -14.42146 -14.41513 -14.39419
 Alpha  occ. eigenvalues --  -14.37921 -10.36622 -10.35316 -10.33584 -10.32169
 Alpha  occ. eigenvalues --  -10.29940 -10.29316 -10.29291 -10.28851 -10.28411
 Alpha  occ. eigenvalues --  -10.27981 -10.27709 -10.27448 -10.27082 -10.26665
 Alpha  occ. eigenvalues --  -10.26072 -10.25972 -10.25893 -10.25721 -10.25606
 Alpha  occ. eigenvalues --  -10.25532 -10.25494 -10.25477 -10.25303 -10.25079
 Alpha  occ. eigenvalues --  -10.25054 -10.25013 -10.24970 -10.24437 -10.24132
 Alpha  occ. eigenvalues --  -10.24128 -10.24042 -10.23927 -10.23881 -10.23851
 Alpha  occ. eigenvalues --  -10.23807 -10.23533 -10.23482 -10.23452 -10.23158
 Alpha  occ. eigenvalues --  -10.23154 -10.23101 -10.22952 -10.22924 -10.22780
 Alpha  occ. eigenvalues --  -10.22626 -10.22615 -10.22454 -10.22410 -10.22199
 Alpha  occ. eigenvalues --  -10.22177 -10.22173 -10.22167 -10.21956 -10.21908
 Alpha  occ. eigenvalues --  -10.21664  -3.14672  -1.87539  -1.87008  -1.86911
 Alpha  occ. eigenvalues --   -1.10679  -1.09717  -1.03881  -1.02774  -1.00532
 Alpha  occ. eigenvalues --   -1.00474  -0.98846  -0.98106  -0.97513  -0.96254
 Alpha  occ. eigenvalues --   -0.86434  -0.85440  -0.84176  -0.83703  -0.83318
 Alpha  occ. eigenvalues --   -0.83089  -0.82617  -0.81586  -0.81511  -0.81036
 Alpha  occ. eigenvalues --   -0.80253  -0.79806  -0.78745  -0.77698  -0.77297
 Alpha  occ. eigenvalues --   -0.76509  -0.75927  -0.75209  -0.74904  -0.74545
 Alpha  occ. eigenvalues --   -0.73748  -0.73010  -0.72418  -0.71168  -0.70562
 Alpha  occ. eigenvalues --   -0.70058  -0.69458  -0.69268  -0.69210  -0.68718
 Alpha  occ. eigenvalues --   -0.67700  -0.66925  -0.65847  -0.65440  -0.63186
 Alpha  occ. eigenvalues --   -0.63010  -0.62609  -0.61791  -0.61678  -0.60552
 Alpha  occ. eigenvalues --   -0.60079  -0.59463  -0.59332  -0.58520  -0.58105
 Alpha  occ. eigenvalues --   -0.57994  -0.57303  -0.55932  -0.55879  -0.55346
 Alpha  occ. eigenvalues --   -0.53915  -0.53714  -0.53652  -0.53096  -0.52609
 Alpha  occ. eigenvalues --   -0.51850  -0.51161  -0.50987  -0.50642  -0.49894
 Alpha  occ. eigenvalues --   -0.49781  -0.49569  -0.48899  -0.48658  -0.48325
 Alpha  occ. eigenvalues --   -0.48129  -0.47855  -0.47584  -0.47333  -0.47147
 Alpha  occ. eigenvalues --   -0.46790  -0.46539  -0.46388  -0.46202  -0.46018
 Alpha  occ. eigenvalues --   -0.45749  -0.45654  -0.45469  -0.45122  -0.44864
 Alpha  occ. eigenvalues --   -0.44782  -0.44518  -0.44407  -0.44292  -0.44130
 Alpha  occ. eigenvalues --   -0.43887  -0.43667  -0.43544  -0.43279  -0.43196
 Alpha  occ. eigenvalues --   -0.43068  -0.42789  -0.42763  -0.42554  -0.42306
 Alpha  occ. eigenvalues --   -0.42135  -0.41866  -0.41542  -0.41249  -0.40896
 Alpha  occ. eigenvalues --   -0.40749  -0.40614  -0.40586  -0.40495  -0.39920
 Alpha  occ. eigenvalues --   -0.39831  -0.39703  -0.39507  -0.39434  -0.39371
 Alpha  occ. eigenvalues --   -0.39086  -0.38930  -0.38898  -0.38635  -0.38536
 Alpha  occ. eigenvalues --   -0.38450  -0.38355  -0.38292  -0.37989  -0.37733
 Alpha  occ. eigenvalues --   -0.37725  -0.37270  -0.37236  -0.36892  -0.36848
 Alpha  occ. eigenvalues --   -0.36680  -0.36584  -0.36384  -0.35984  -0.35793
 Alpha  occ. eigenvalues --   -0.35716  -0.35446  -0.35247  -0.35083  -0.34876
 Alpha  occ. eigenvalues --   -0.34816  -0.34640  -0.33924  -0.33837  -0.33570
 Alpha  occ. eigenvalues --   -0.33308  -0.33018  -0.32866  -0.32531  -0.32511
 Alpha  occ. eigenvalues --   -0.32315  -0.31896  -0.31630  -0.31613  -0.31231
 Alpha  occ. eigenvalues --   -0.30914  -0.30017  -0.29283  -0.29129  -0.28994
 Alpha  occ. eigenvalues --   -0.28655  -0.28569  -0.27707  -0.27147  -0.26350
 Alpha  occ. eigenvalues --   -0.26153  -0.25808  -0.24867  -0.24539  -0.21012
 Alpha  occ. eigenvalues --   -0.18600
 Alpha virt. eigenvalues --   -0.11229  -0.05073  -0.04430  -0.02689  -0.01111
 Alpha virt. eigenvalues --   -0.00038   0.00124   0.01320   0.01572   0.03032
 Alpha virt. eigenvalues --    0.03782   0.04748   0.04885   0.05205   0.05623

 Mulliken charges:
               1
     1  Mg   0.941864
     2  C    0.028277
     3  C   -0.056902
     4  C   -0.018327
     5  C   -0.063090
     6  N   -0.452372
     7  C    0.027764
     8  C   -0.047765
     9  C   -0.130372
    10  C    0.106534
    11  C    0.001787
    12  C    0.012337
    13  C    0.017473
    14  C    0.201166
    15  O   -0.265655
    16  O   -0.371083
    17  N   -0.458127
    18  C    0.145187
    19  C   -0.122681
    20  C   -0.091044
    21  C    0.108050
    22  C    0.069610
    23  C    0.081848
    24  O   -0.252610
    25  C   -0.051964
    26  N   -0.379982
    27  C    0.068663
    28  C   -0.129502
    29  C   -0.125528
    30  C    0.098024
    31  C    0.025519
    32  C   -0.033395
    33  C   -0.077518
    34  N   -0.436007
    35  C    0.129270
    36  C   -0.185761
    37  C   -0.024688
    38  C    0.120298
    39  C    0.048152
    40  C    0.166303
    41  O   -0.263394
    42  C   -0.137719
    43  C    0.290505
    44  O   -0.273360
    45  O   -0.352365
    46  C    0.121498
    47  C    0.221107
    48  C   -0.109445
    49  C   -0.186207
    50  C   -0.005289
    51  C   -0.030229
    52  C    0.000080
    53  C    0.023298
    54  C   -0.261618
    55  C    0.011344
    56  C    0.005651
    57  C   -0.082960
    58  C   -0.006972
    59  C   -0.198714
    60  C   -0.005458
    61  C   -0.009793
    62  C   -0.085142
    63  C    0.028049
    64  C   -0.237831
    65  C   -0.037534
    66  C   -0.029418
    67  H   -0.010135
    68  H    0.025713
    69  H    0.009199
    70  H    0.096795
    71  H    0.048695
    72  H    0.049289
    73  H    0.035335
    74  H    0.052670
    75  H    0.027741
    76  H    0.032640
    77  H    0.048684
    78  H    0.059805
    79  H    0.045637
    80  H    0.044114
    81  H    0.046141
    82  H    0.066665
    83  H    0.047638
    84  H    0.060865
    85  H    0.047446
    86  H    0.041835
    87  H    0.040493
    88  H    0.057636
    89  H    0.041229
    90  H    0.045735
    91  H    0.034456
    92  H    0.046823
    93  H    0.053911
    94  H    0.050131
    95  H    0.043460
    96  H    0.057859
    97  H    0.057211
    98  H    0.091053
    99  H    0.049213
   100  H    0.077947
   101  H    0.061608
   102  H    0.057257
   103  H    0.056121
   104  H    0.024397
   105  H    0.047115
   106  H    0.049293
   107  H    0.052448
   108  H    0.025632
   109  H    0.017643
   110  H    0.042948
   111  H    0.037227
   112  H    0.037241
   113  H    0.025845
   114  H    0.026694
   115  H    0.034468
   116  H    0.027002
   117  H    0.034848
   118  H    0.024152
   119  H    0.021275
   120  H    0.034144
   121  H    0.031377
   122  H    0.030979
   123  H    0.032639
   124  H    0.038338
   125  H    0.021801
   126  H    0.035666
   127  H    0.029553
   128  H    0.024691
   129  H    0.027614
   130  H    0.032533
   131  H    0.019924
   132  H    0.032861
   133  H    0.032327
   134  H    0.045357
   135  H    0.024115
   136  H    0.032437
   137  H    0.027973
   138  H    0.029260
   139  H    0.034594
   140  H    0.042840
 Sum of Mulliken charges =  -0.00000

 Dipole moment (field-independent basis, Debye):
    X=              6.3079    Y=              2.4691    Z=             -1.1167  Tot=              6.8654
 Quadrupole moment (field-independent basis, Debye-Ang):
   XX=           -382.9911   YY=           -424.8599   ZZ=           -404.9764
   XY=            -22.7902   XZ=              0.2341   YZ=              4.6361

 Normal termination of Gaussian 16 at Thu May  5 15:14:27 2022.
