 Gaussian 16, Revision A.03,
 Gaussian 16:  ES64L-G16RevA.03 25-Dec-2016

 --------------------------------
 #p wB97XD/Def2SVP td=(nstates=5)
 --------------------------------

 ---------------------------------------------------
 step_951_chromophore_6 TDDFT with wB97XD functional
 ---------------------------------------------------
 Symbolic Z-matrix:
 Charge =  0 Multiplicity = 1

                         Standard orientation:
 ---------------------------------------------------------------------
 Center     Atomic      Atomic             Coordinates (Angstroms)
 Number     Number       Type             X           Y           Z
 ---------------------------------------------------------------------
      1         12           0       -5.212517    1.093160   -0.286878
      2          6           0       -4.319061   -2.308928   -0.367719
      3          6           0       -2.044349    2.098381    0.097611
      4          6           0       -6.286434    4.299710    0.134744
      5          6           0       -8.662502    0.041872   -0.290095
      6          7           0       -3.425641   -0.051660    0.102262
      7          6           0       -3.234891   -1.431324   -0.134532
      8          6           0       -1.742688   -1.769650   -0.086243
      9          6           0       -1.115960   -0.363887   -0.018345
     10          6           0       -2.227488    0.671139    0.126480
     11          6           0       -0.120646   -0.175628    1.139321
     12          6           0       -1.251057   -2.587281   -1.318982
     13          6           0       -0.191874   -3.748804   -1.166798
     14          6           0        0.499589   -4.017100    0.158406
     15          8           0       -0.065716   -4.410370    1.173147
     16          8           0        1.808094   -3.614032    0.029038
     17          7           0       -4.256236    2.991468   -0.088702
     18          6           0       -2.865775    3.179685   -0.023369
     19          6           0       -2.581875    4.587369    0.093678
     20          6           0       -3.821887    5.248862    0.067390
     21          6           0       -4.864196    4.148207    0.001241
     22          6           0       -1.150908    4.967716    0.320400
     23          6           0       -4.100207    6.749205    0.186314
     24          8           0       -5.230587    7.249611    0.025740
     25          6           0       -2.901569    7.758892    0.315511
     26          7           0       -7.153365    2.008509   -0.106617
     27          6           0       -7.300480    3.308934    0.186870
     28          6           0       -8.786919    3.685346    0.589609
     29          6           0       -9.514876    2.380441    0.146678
     30          6           0       -8.361655    1.380460   -0.200769
     31          6           0       -8.888846    4.075685    2.087512
     32          6           0      -10.400957    2.522881   -1.092232
     33          6           0      -11.883889    2.019942   -0.888016
     34          7           0       -6.351030   -0.793023   -0.346637
     35          6           0       -7.733222   -0.988091   -0.466748
     36          6           0       -7.927552   -2.438103   -0.519527
     37          6           0       -6.627355   -2.968232   -0.504527
     38          6           0       -5.727732   -1.957837   -0.377103
     39          6           0       -9.245064   -3.079190   -0.701665
     40          6           0       -5.871712   -4.234440   -0.660391
     41          8           0       -6.239610   -5.427655   -0.960534
     42          6           0       -4.384021   -3.823568   -0.541852
     43          6           0       -3.806758   -4.575546    0.587096
     44          8           0       -3.402330   -4.083754    1.651061
     45          8           0       -3.612480   -5.876536    0.252603
     46          6           0       -2.972368   -6.736778    1.276352
     47          6           0        2.627165   -3.852860    1.275218
     48          6           0        3.977394   -3.319967    1.111960
     49          6           0        4.908814   -3.887694    0.313735
     50          6           0        4.601581   -4.939994   -0.835712
     51          6           0        6.300126   -3.271862    0.282015
     52          6           0        6.723302   -2.153535   -0.740142
     53          6           0        8.103405   -1.639803   -0.324375
     54          6           0        8.224911   -0.236977   -0.893276
     55          6           0        8.577562   -0.151742   -2.379770
     56          6           0        8.901606    0.777218   -0.020840
     57          6           0       10.388071    0.379487    0.237668
     58          6           0       10.894474    0.296201    1.743864
     59          6           0       12.349393    0.833328    1.901106
     60          6           0       12.845356    0.473976    3.337546
     61          6           0       12.453741    2.352073    1.575036
     62          6           0       13.725312    2.689166    0.777901
     63          6           0       13.511772    3.075319   -0.702471
     64          6           0       14.675727    2.420932   -1.547571
     65          6           0       14.131714    1.306828   -2.482998
     66          6           0       15.529012    3.542713   -2.326049
     67          1           0       -0.985159    2.350181    0.012365
     68          1           0       -6.517223    5.327699    0.422912
     69          1           0       -9.720357   -0.223353   -0.347404
     70          1           0       -1.709268   -2.382075    0.814980
     71          1           0       -0.603196   -0.202140   -0.966096
     72          1           0       -0.643215    0.341123    1.943818
     73          1           0        0.687010    0.473554    0.802773
     74          1           0        0.339592   -1.074854    1.546770
     75          1           0       -0.766826   -1.956284   -2.064366
     76          1           0       -2.111954   -2.851631   -1.933653
     77          1           0        0.622444   -3.650339   -1.883971
     78          1           0       -0.630249   -4.712027   -1.427332
     79          1           0       -0.903160    6.028506    0.343607
     80          1           0       -0.477146    4.332695   -0.254478
     81          1           0       -0.804805    4.555481    1.268243
     82          1           0       -2.188962    7.605007    1.126447
     83          1           0       -3.229717    8.797501    0.293746
     84          1           0       -2.317932    7.809813   -0.604360
     85          1           0       -9.166309    4.547082    0.040231
     86          1           0      -10.086512    2.069198    1.020045
     87          1           0       -9.603188    3.454399    2.627869
     88          1           0       -8.975019    5.161481    2.130140
     89          1           0       -7.943673    3.803348    2.556787
     90          1           0       -9.950098    1.951744   -1.903124
     91          1           0      -10.398386    3.544174   -1.474265
     92          1           0      -12.388889    2.692744   -1.581432
     93          1           0      -12.349583    2.060927    0.096908
     94          1           0      -11.815182    0.997450   -1.259423
     95          1           0       -9.872127   -2.564688    0.027064
     96          1           0       -9.284203   -4.153895   -0.527129
     97          1           0       -9.713660   -2.933663   -1.674657
     98          1           0       -3.843419   -4.167465   -1.423150
     99          1           0       -3.811350   -7.098011    1.871036
    100          1           0       -2.373895   -6.160672    1.982163
    101          1           0       -2.389693   -7.580247    0.906424
    102          1           0        2.740314   -4.921980    1.456925
    103          1           0        2.067947   -3.492572    2.138440
    104          1           0        4.362387   -2.593698    1.828035
    105          1           0        4.992377   -4.470112   -1.739236
    106          1           0        3.542025   -5.116125   -1.021801
    107          1           0        5.107127   -5.900144   -0.728271
    108          1           0        6.952496   -4.143336    0.337473
    109          1           0        6.450608   -2.878559    1.286671
    110          1           0        5.877497   -1.470164   -0.808684
    111          1           0        6.862944   -2.664499   -1.692939
    112          1           0        8.939799   -2.238631   -0.685726
    113          1           0        8.199396   -1.501319    0.752885
    114          1           0        7.223877    0.188032   -0.825806
    115          1           0        8.889871   -1.084905   -2.848401
    116          1           0        9.374405    0.577364   -2.527320
    117          1           0        7.726298    0.271808   -2.912856
    118          1           0        8.364531    0.899111    0.919278
    119          1           0        8.890113    1.740728   -0.531069
    120          1           0       10.953009    1.128478   -0.317040
    121          1           0       10.592289   -0.550176   -0.293391
    122          1           0       10.871663   -0.755336    2.029141
    123          1           0       10.226950    0.826170    2.423841
    124          1           0       12.998106    0.324706    1.188273
    125          1           0       11.966313    0.318111    3.962166
    126          1           0       13.479940    1.218729    3.818548
    127          1           0       13.331806   -0.494058    3.460324
    128          1           0       12.590500    3.060192    2.392098
    129          1           0       11.505507    2.654230    1.131362
    130          1           0       14.465587    1.905185    0.937185
    131          1           0       14.233427    3.554918    1.202958
    132          1           0       13.595712    4.145905   -0.887438
    133          1           0       12.505890    2.678283   -0.837681
    134          1           0       15.384977    1.811607   -0.988626
    135          1           0       14.761437    0.418441   -2.528590
    136          1           0       13.991341    1.524167   -3.542342
    137          1           0       13.191433    0.941383   -2.070003
    138          1           0       15.663665    3.133926   -3.327208
    139          1           0       16.536428    3.629773   -1.918978
    140          1           0       15.110956    4.549618   -2.344604
 ---------------------------------------------------------------------

 SCF Done:  E(RwB97XD) =  -3007.83818863     A.U. after   20 cycles

 Excitation energies and oscillator strengths:

 Excited State   1:      Singlet-A      1.6368 eV  757.47 nm  f=0.3925  <S**2>=0.000
     245 -> 248        0.17337
     246 -> 247        0.68662
     245 <- 248        0.11409
 This state for optimization and/or second-order correction.
 Total Energy, E(TD-HF/TD-DFT) =  -3007.77803629
 Copying the excited state density for this state as the 1-particle RhoCI density.

 Excited State   2:      Singlet-A      2.1518 eV  576.19 nm  f=0.1002  <S**2>=0.000
     245 -> 247        0.63691
     246 -> 248       -0.29324

 Excited State   3:      Singlet-A      3.3066 eV  374.95 nm  f=0.0025  <S**2>=0.000
     242 -> 247       -0.17969
     244 -> 247        0.65660
     244 -> 249       -0.10754

 Excited State   4:      Singlet-A      3.4217 eV  362.34 nm  f=0.0002  <S**2>=0.000
     243 -> 247        0.50847
     243 -> 249       -0.30257
     243 -> 250       -0.33378

 Excited State   5:      Singlet-A      3.4889 eV  355.37 nm  f=0.4022  <S**2>=0.000
     239 -> 247        0.18865
     242 -> 247        0.30341
     245 -> 247        0.21706
     246 -> 248        0.53808

 The electronic state is 1-A.
 Alpha  occ. eigenvalues --  -46.95736 -19.30867 -19.28985 -19.25238 -19.24941
 Alpha  occ. eigenvalues --  -19.23200 -19.23071 -14.47345 -14.46480 -14.44527
 Alpha  occ. eigenvalues --  -14.42617 -10.43390 -10.42060 -10.40745 -10.38799
 Alpha  occ. eigenvalues --  -10.36567 -10.35856 -10.35368 -10.35328 -10.35124
 Alpha  occ. eigenvalues --  -10.34534 -10.34049 -10.33899 -10.33879 -10.32882
 Alpha  occ. eigenvalues --  -10.32465 -10.32242 -10.32233 -10.32015 -10.31959
 Alpha  occ. eigenvalues --  -10.31929 -10.31894 -10.31891 -10.31724 -10.31436
 Alpha  occ. eigenvalues --  -10.31411 -10.31224 -10.30905 -10.30692 -10.30519
 Alpha  occ. eigenvalues --  -10.30503 -10.30382 -10.30318 -10.30273 -10.30195
 Alpha  occ. eigenvalues --  -10.30184 -10.29921 -10.29870 -10.29608 -10.29598
 Alpha  occ. eigenvalues --  -10.29545 -10.29539 -10.29326 -10.29180 -10.29007
 Alpha  occ. eigenvalues --  -10.28904 -10.28900 -10.28822 -10.28793 -10.28651
 Alpha  occ. eigenvalues --  -10.28593 -10.28539 -10.28355 -10.28327 -10.28116
 Alpha  occ. eigenvalues --  -10.28100  -3.21489  -1.95101  -1.94571  -1.94470
 Alpha  occ. eigenvalues --   -1.18050  -1.17031  -1.11694  -1.10100  -1.07812
 Alpha  occ. eigenvalues --   -1.07755  -1.06441  -1.05356  -1.04696  -1.03705
 Alpha  occ. eigenvalues --   -0.93896  -0.93112  -0.91854  -0.91589  -0.90991
 Alpha  occ. eigenvalues --   -0.90736  -0.90100  -0.89443  -0.89002  -0.88722
 Alpha  occ. eigenvalues --   -0.87745  -0.87358  -0.86419  -0.85186  -0.84960
 Alpha  occ. eigenvalues --   -0.84179  -0.83616  -0.83012  -0.82478  -0.82289
 Alpha  occ. eigenvalues --   -0.81434  -0.80990  -0.79969  -0.78653  -0.78248
 Alpha  occ. eigenvalues --   -0.77617  -0.77174  -0.76941  -0.76790  -0.76398
 Alpha  occ. eigenvalues --   -0.75315  -0.74374  -0.73401  -0.73036  -0.70875
 Alpha  occ. eigenvalues --   -0.70683  -0.70042  -0.69442  -0.69193  -0.68226
 Alpha  occ. eigenvalues --   -0.67672  -0.66880  -0.66750  -0.65909  -0.65680
 Alpha  occ. eigenvalues --   -0.65545  -0.64957  -0.63550  -0.63264  -0.62967
 Alpha  occ. eigenvalues --   -0.61399  -0.61151  -0.60968  -0.60378  -0.59941
 Alpha  occ. eigenvalues --   -0.59337  -0.58618  -0.58487  -0.58073  -0.57303
 Alpha  occ. eigenvalues --   -0.57171  -0.56919  -0.56362  -0.56113  -0.55713
 Alpha  occ. eigenvalues --   -0.55429  -0.55274  -0.55119  -0.54681  -0.54538
 Alpha  occ. eigenvalues --   -0.54052  -0.53956  -0.53685  -0.53643  -0.53360
 Alpha  occ. eigenvalues --   -0.53261  -0.53037  -0.52836  -0.52445  -0.52274
 Alpha  occ. eigenvalues --   -0.52187  -0.52065  -0.51754  -0.51523  -0.51442
 Alpha  occ. eigenvalues --   -0.51218  -0.50966  -0.50890  -0.50585  -0.50495
 Alpha  occ. eigenvalues --   -0.50365  -0.50169  -0.50049  -0.49820  -0.49491
 Alpha  occ. eigenvalues --   -0.49361  -0.49082  -0.48890  -0.48353  -0.48253
 Alpha  occ. eigenvalues --   -0.48152  -0.47859  -0.47839  -0.47532  -0.47131
 Alpha  occ. eigenvalues --   -0.47001  -0.46857  -0.46767  -0.46514  -0.46469
 Alpha  occ. eigenvalues --   -0.46264  -0.46108  -0.45924  -0.45885  -0.45570
 Alpha  occ. eigenvalues --   -0.45513  -0.45473  -0.45417  -0.45137  -0.44917
 Alpha  occ. eigenvalues --   -0.44796  -0.44444  -0.44355  -0.44218  -0.43872
 Alpha  occ. eigenvalues --   -0.43831  -0.43700  -0.43463  -0.43031  -0.42891
 Alpha  occ. eigenvalues --   -0.42794  -0.42534  -0.42313  -0.42099  -0.41892
 Alpha  occ. eigenvalues --   -0.41829  -0.41711  -0.40996  -0.40784  -0.40609
 Alpha  occ. eigenvalues --   -0.40301  -0.40029  -0.39901  -0.39615  -0.39444
 Alpha  occ. eigenvalues --   -0.39368  -0.38887  -0.38557  -0.38543  -0.38224
 Alpha  occ. eigenvalues --   -0.37746  -0.37019  -0.36290  -0.35937  -0.35805
 Alpha  occ. eigenvalues --   -0.35511  -0.35321  -0.34729  -0.33955  -0.33768
 Alpha  occ. eigenvalues --   -0.32877  -0.32440  -0.31739  -0.30722  -0.26075
 Alpha  occ. eigenvalues --   -0.22734
 Alpha virt. eigenvalues --   -0.07100   0.00367   0.01737   0.03842   0.05568
 Alpha virt. eigenvalues --    0.05904   0.06897   0.08059   0.08443   0.09345
 Alpha virt. eigenvalues --    0.10273   0.11350   0.11719   0.11986   0.12345

 Mulliken charges:
               1
     1  Mg   0.933962
     2  C    0.032376
     3  C   -0.069829
     4  C   -0.041829
     5  C   -0.078206
     6  N   -0.420305
     7  C   -0.003907
     8  C   -0.020711
     9  C   -0.102652
    10  C    0.098209
    11  C    0.013261
    12  C    0.021807
    13  C    0.034553
    14  C    0.186587
    15  O   -0.261303
    16  O   -0.370345
    17  N   -0.427923
    18  C    0.141677
    19  C   -0.109379
    20  C   -0.085181
    21  C    0.100103
    22  C    0.081415
    23  C    0.079754
    24  O   -0.244447
    25  C   -0.042701
    26  N   -0.347177
    27  C    0.063827
    28  C   -0.110103
    29  C   -0.097045
    30  C    0.089683
    31  C    0.035000
    32  C   -0.022677
    33  C   -0.060353
    34  N   -0.396880
    35  C    0.110185
    36  C   -0.180802
    37  C   -0.020594
    38  C    0.096569
    39  C    0.056826
    40  C    0.147472
    41  O   -0.255859
    42  C   -0.102373
    43  C    0.266874
    44  O   -0.267500
    45  O   -0.351881
    46  C    0.137051
    47  C    0.236419
    48  C   -0.117466
    49  C   -0.178267
    50  C    0.011412
    51  C   -0.009309
    52  C    0.018499
    53  C    0.032784
    54  C   -0.221014
    55  C    0.015604
    56  C    0.019806
    57  C   -0.054953
    58  C    0.009510
    59  C   -0.166774
    60  C    0.004895
    61  C    0.003001
    62  C   -0.068754
    63  C    0.050802
    64  C   -0.212418
    65  C   -0.022660
    66  C   -0.015308
    67  H   -0.018712
    68  H    0.020109
    69  H    0.000687
    70  H    0.081290
    71  H    0.038014
    72  H    0.042104
    73  H    0.029654
    74  H    0.048114
    75  H    0.020112
    76  H    0.023326
    77  H    0.043202
    78  H    0.054312
    79  H    0.041853
    80  H    0.039693
    81  H    0.042425
    82  H    0.062952
    83  H    0.047453
    84  H    0.056479
    85  H    0.038452
    86  H    0.028465
    87  H    0.036140
    88  H    0.052959
    89  H    0.033362
    90  H    0.036652
    91  H    0.025325
    92  H    0.040662
    93  H    0.048493
    94  H    0.043285
    95  H    0.035232
    96  H    0.053656
    97  H    0.050874
    98  H    0.083373
    99  H    0.044898
   100  H    0.074067
   101  H    0.058212
   102  H    0.051540
   103  H    0.052376
   104  H    0.021685
   105  H    0.039635
   106  H    0.042510
   107  H    0.047802
   108  H    0.017175
   109  H    0.006723
   110  H    0.034724
   111  H    0.027670
   112  H    0.029855
   113  H    0.013832
   114  H    0.011591
   115  H    0.029680
   116  H    0.020678
   117  H    0.030107
   118  H    0.015450
   119  H    0.013795
   120  H    0.010977
   121  H    0.020212
   122  H    0.022542
   123  H    0.022981
   124  H    0.024330
   125  H    0.014562
   126  H    0.030487
   127  H    0.024521
   128  H    0.017718
   129  H    0.016394
   130  H    0.020876
   131  H    0.012409
   132  H    0.024753
   133  H    0.016593
   134  H    0.034150
   135  H    0.018664
   136  H    0.026632
   137  H    0.018045
   138  H    0.022285
   139  H    0.028847
   140  H    0.036985
 Sum of Mulliken charges =  -0.00000

 Dipole moment (field-independent basis, Debye):
    X=              6.9550    Y=              3.2166    Z=             -1.0521  Tot=              7.7347
 Quadrupole moment (field-independent basis, Debye-Ang):
   XX=           -390.1110   YY=           -421.1347   ZZ=           -404.5912
   XY=            -25.3640   XZ=             -0.3251   YZ=              4.6762

 Normal termination of Gaussian 16 at Thu May  5 15:58:12 2022.
