 Gaussian 16, Revision A.03,
 Gaussian 16:  ES64L-G16RevA.03 25-Dec-2016

 --------------------
 #p ZINDO=(nstates=5)
 --------------------

 ----------------------------
 step_951_chromophore_6 ZINDO
 ----------------------------
 Symbolic Z-matrix:
 Charge =  0 Multiplicity = 1

                         Standard orientation:
 ---------------------------------------------------------------------
 Center     Atomic      Atomic             Coordinates (Angstroms)
 Number     Number       Type             X           Y           Z
 ---------------------------------------------------------------------
      1         12           0       -5.212517    1.093160   -0.286878
      2          6           0       -4.319061   -2.308928   -0.367719
      3          6           0       -2.044349    2.098381    0.097611
      4          6           0       -6.286434    4.299710    0.134744
      5          6           0       -8.662502    0.041872   -0.290095
      6          7           0       -3.425641   -0.051660    0.102262
      7          6           0       -3.234891   -1.431324   -0.134532
      8          6           0       -1.742688   -1.769650   -0.086243
      9          6           0       -1.115960   -0.363887   -0.018345
     10          6           0       -2.227488    0.671139    0.126480
     11          6           0       -0.120646   -0.175628    1.139321
     12          6           0       -1.251057   -2.587281   -1.318982
     13          6           0       -0.191874   -3.748804   -1.166798
     14          6           0        0.499589   -4.017100    0.158406
     15          8           0       -0.065716   -4.410370    1.173147
     16          8           0        1.808094   -3.614032    0.029038
     17          7           0       -4.256236    2.991468   -0.088702
     18          6           0       -2.865775    3.179685   -0.023369
     19          6           0       -2.581875    4.587369    0.093678
     20          6           0       -3.821887    5.248862    0.067390
     21          6           0       -4.864196    4.148207    0.001241
     22          6           0       -1.150908    4.967716    0.320400
     23          6           0       -4.100207    6.749205    0.186314
     24          8           0       -5.230587    7.249611    0.025740
     25          6           0       -2.901569    7.758892    0.315511
     26          7           0       -7.153365    2.008509   -0.106617
     27          6           0       -7.300480    3.308934    0.186870
     28          6           0       -8.786919    3.685346    0.589609
     29          6           0       -9.514876    2.380441    0.146678
     30          6           0       -8.361655    1.380460   -0.200769
     31          6           0       -8.888846    4.075685    2.087512
     32          6           0      -10.400957    2.522881   -1.092232
     33          6           0      -11.883889    2.019942   -0.888016
     34          7           0       -6.351030   -0.793023   -0.346637
     35          6           0       -7.733222   -0.988091   -0.466748
     36          6           0       -7.927552   -2.438103   -0.519527
     37          6           0       -6.627355   -2.968232   -0.504527
     38          6           0       -5.727732   -1.957837   -0.377103
     39          6           0       -9.245064   -3.079190   -0.701665
     40          6           0       -5.871712   -4.234440   -0.660391
     41          8           0       -6.239610   -5.427655   -0.960534
     42          6           0       -4.384021   -3.823568   -0.541852
     43          6           0       -3.806758   -4.575546    0.587096
     44          8           0       -3.402330   -4.083754    1.651061
     45          8           0       -3.612480   -5.876536    0.252603
     46          6           0       -2.972368   -6.736778    1.276352
     47          6           0        2.627165   -3.852860    1.275218
     48          6           0        3.977394   -3.319967    1.111960
     49          6           0        4.908814   -3.887694    0.313735
     50          6           0        4.601581   -4.939994   -0.835712
     51          6           0        6.300126   -3.271862    0.282015
     52          6           0        6.723302   -2.153535   -0.740142
     53          6           0        8.103405   -1.639803   -0.324375
     54          6           0        8.224911   -0.236977   -0.893276
     55          6           0        8.577562   -0.151742   -2.379770
     56          6           0        8.901606    0.777218   -0.020840
     57          6           0       10.388071    0.379487    0.237668
     58          6           0       10.894474    0.296201    1.743864
     59          6           0       12.349393    0.833328    1.901106
     60          6           0       12.845356    0.473976    3.337546
     61          6           0       12.453741    2.352073    1.575036
     62          6           0       13.725312    2.689166    0.777901
     63          6           0       13.511772    3.075319   -0.702471
     64          6           0       14.675727    2.420932   -1.547571
     65          6           0       14.131714    1.306828   -2.482998
     66          6           0       15.529012    3.542713   -2.326049
     67          1           0       -0.985159    2.350181    0.012365
     68          1           0       -6.517223    5.327699    0.422912
     69          1           0       -9.720357   -0.223353   -0.347404
     70          1           0       -1.709268   -2.382075    0.814980
     71          1           0       -0.603196   -0.202140   -0.966096
     72          1           0       -0.643215    0.341123    1.943818
     73          1           0        0.687010    0.473554    0.802773
     74          1           0        0.339592   -1.074854    1.546770
     75          1           0       -0.766826   -1.956284   -2.064366
     76          1           0       -2.111954   -2.851631   -1.933653
     77          1           0        0.622444   -3.650339   -1.883971
     78          1           0       -0.630249   -4.712027   -1.427332
     79          1           0       -0.903160    6.028506    0.343607
     80          1           0       -0.477146    4.332695   -0.254478
     81          1           0       -0.804805    4.555481    1.268243
     82          1           0       -2.188962    7.605007    1.126447
     83          1           0       -3.229717    8.797501    0.293746
     84          1           0       -2.317932    7.809813   -0.604360
     85          1           0       -9.166309    4.547082    0.040231
     86          1           0      -10.086512    2.069198    1.020045
     87          1           0       -9.603188    3.454399    2.627869
     88          1           0       -8.975019    5.161481    2.130140
     89          1           0       -7.943673    3.803348    2.556787
     90          1           0       -9.950098    1.951744   -1.903124
     91          1           0      -10.398386    3.544174   -1.474265
     92          1           0      -12.388889    2.692744   -1.581432
     93          1           0      -12.349583    2.060927    0.096908
     94          1           0      -11.815182    0.997450   -1.259423
     95          1           0       -9.872127   -2.564688    0.027064
     96          1           0       -9.284203   -4.153895   -0.527129
     97          1           0       -9.713660   -2.933663   -1.674657
     98          1           0       -3.843419   -4.167465   -1.423150
     99          1           0       -3.811350   -7.098011    1.871036
    100          1           0       -2.373895   -6.160672    1.982163
    101          1           0       -2.389693   -7.580247    0.906424
    102          1           0        2.740314   -4.921980    1.456925
    103          1           0        2.067947   -3.492572    2.138440
    104          1           0        4.362387   -2.593698    1.828035
    105          1           0        4.992377   -4.470112   -1.739236
    106          1           0        3.542025   -5.116125   -1.021801
    107          1           0        5.107127   -5.900144   -0.728271
    108          1           0        6.952496   -4.143336    0.337473
    109          1           0        6.450608   -2.878559    1.286671
    110          1           0        5.877497   -1.470164   -0.808684
    111          1           0        6.862944   -2.664499   -1.692939
    112          1           0        8.939799   -2.238631   -0.685726
    113          1           0        8.199396   -1.501319    0.752885
    114          1           0        7.223877    0.188032   -0.825806
    115          1           0        8.889871   -1.084905   -2.848401
    116          1           0        9.374405    0.577364   -2.527320
    117          1           0        7.726298    0.271808   -2.912856
    118          1           0        8.364531    0.899111    0.919278
    119          1           0        8.890113    1.740728   -0.531069
    120          1           0       10.953009    1.128478   -0.317040
    121          1           0       10.592289   -0.550176   -0.293391
    122          1           0       10.871663   -0.755336    2.029141
    123          1           0       10.226950    0.826170    2.423841
    124          1           0       12.998106    0.324706    1.188273
    125          1           0       11.966313    0.318111    3.962166
    126          1           0       13.479940    1.218729    3.818548
    127          1           0       13.331806   -0.494058    3.460324
    128          1           0       12.590500    3.060192    2.392098
    129          1           0       11.505507    2.654230    1.131362
    130          1           0       14.465587    1.905185    0.937185
    131          1           0       14.233427    3.554918    1.202958
    132          1           0       13.595712    4.145905   -0.887438
    133          1           0       12.505890    2.678283   -0.837681
    134          1           0       15.384977    1.811607   -0.988626
    135          1           0       14.761437    0.418441   -2.528590
    136          1           0       13.991341    1.524167   -3.542342
    137          1           0       13.191433    0.941383   -2.070003
    138          1           0       15.663665    3.133926   -3.327208
    139          1           0       16.536428    3.629773   -1.918978
    140          1           0       15.110956    4.549618   -2.344604
 ---------------------------------------------------------------------

 SCF Done:  E(RZINDO/S) =  -473.993837382     A.U. after   19 cycles

 Excitation energies and oscillator strengths:

 Excited State   1:      Singlet-A      1.2766 eV  971.21 nm  f=0.5777  <S**2>=0.000
     175 ->178         0.15603
     176 ->177         0.67203
 This state for optimization and/or second-order correction.
 Total Energy, E(CIS/TDA) =  -473.946923382
 Copying the excited state density for this state as the 1-particle RhoCI density.

 Excited State   2:      Singlet-A      1.9320 eV  641.75 nm  f=0.0409  <S**2>=0.000
     175 ->177         0.54803
     176 ->178        -0.40197

 Excited State   3:      Singlet-A      2.9311 eV  423.00 nm  f=0.0140  <S**2>=0.000
     166 ->177        -0.12898
     166 ->179         0.19476
     167 ->177        -0.25435
     167 ->179         0.37652
     167 ->180        -0.14179
     167 ->186        -0.12954
     168 ->177         0.11107
     168 ->179        -0.14060
     176 ->179         0.26583

 Excited State   4:      Singlet-A      2.9574 eV  419.23 nm  f=0.4227  <S**2>=0.000
     167 ->179         0.10610
     175 ->177         0.26500
     176 ->178         0.45382
     176 ->179        -0.26871
     176 ->180        -0.28068

 Excited State   5:      Singlet-A      3.0080 eV  412.18 nm  f=0.6956  <S**2>=0.000
     167 ->179        -0.13127
     175 ->177         0.28355
     176 ->178         0.27617
     176 ->179         0.47898
     176 ->180         0.10549

 The electronic state is 1-A.
 Alpha  occ. eigenvalues --   -1.82747  -1.81411  -1.78855  -1.72397  -1.71486
 Alpha  occ. eigenvalues --   -1.70248  -1.67083  -1.61458  -1.56641  -1.54987
 Alpha  occ. eigenvalues --   -1.53490  -1.51012  -1.47454  -1.46460  -1.46191
 Alpha  occ. eigenvalues --   -1.42918  -1.41626  -1.40094  -1.38863  -1.37287
 Alpha  occ. eigenvalues --   -1.35887  -1.33720  -1.32515  -1.31866  -1.28433
 Alpha  occ. eigenvalues --   -1.27066  -1.24723  -1.22988  -1.21339  -1.18096
 Alpha  occ. eigenvalues --   -1.16725  -1.15926  -1.15869  -1.14780  -1.13424
 Alpha  occ. eigenvalues --   -1.12578  -1.12117  -1.11532  -1.04431  -1.03046
 Alpha  occ. eigenvalues --   -1.02580  -1.00814  -0.99348  -0.98689  -0.96698
 Alpha  occ. eigenvalues --   -0.95002  -0.94479  -0.94310  -0.93300  -0.92587
 Alpha  occ. eigenvalues --   -0.92145  -0.90635  -0.89043  -0.87834  -0.86566
 Alpha  occ. eigenvalues --   -0.84600  -0.84096  -0.83895  -0.81577  -0.80793
 Alpha  occ. eigenvalues --   -0.79455  -0.78800  -0.77763  -0.76622  -0.76194
 Alpha  occ. eigenvalues --   -0.75852  -0.75040  -0.74633  -0.74243  -0.73762
 Alpha  occ. eigenvalues --   -0.73324  -0.72537  -0.71855  -0.70988  -0.70848
 Alpha  occ. eigenvalues --   -0.70343  -0.69666  -0.68991  -0.67906  -0.67635
 Alpha  occ. eigenvalues --   -0.67315  -0.66615  -0.66420  -0.66245  -0.65021
 Alpha  occ. eigenvalues --   -0.64725  -0.64392  -0.64082  -0.63590  -0.62871
 Alpha  occ. eigenvalues --   -0.62720  -0.62437  -0.62320  -0.61716  -0.61331
 Alpha  occ. eigenvalues --   -0.61077  -0.60857  -0.60513  -0.59890  -0.59592
 Alpha  occ. eigenvalues --   -0.59343  -0.59235  -0.59058  -0.58595  -0.58476
 Alpha  occ. eigenvalues --   -0.57754  -0.57691  -0.57175  -0.56674  -0.56388
 Alpha  occ. eigenvalues --   -0.56274  -0.55703  -0.55167  -0.55069  -0.54685
 Alpha  occ. eigenvalues --   -0.54106  -0.53796  -0.53456  -0.53045  -0.52761
 Alpha  occ. eigenvalues --   -0.52620  -0.52246  -0.52142  -0.52024  -0.51779
 Alpha  occ. eigenvalues --   -0.51565  -0.51335  -0.51082  -0.50667  -0.50539
 Alpha  occ. eigenvalues --   -0.49888  -0.49645  -0.49460  -0.49245  -0.49104
 Alpha  occ. eigenvalues --   -0.48648  -0.48375  -0.48108  -0.47648  -0.47562
 Alpha  occ. eigenvalues --   -0.47433  -0.47024  -0.46969  -0.46657  -0.46197
 Alpha  occ. eigenvalues --   -0.46152  -0.46016  -0.45763  -0.45603  -0.45388
 Alpha  occ. eigenvalues --   -0.45258  -0.44466  -0.44335  -0.44150  -0.43853
 Alpha  occ. eigenvalues --   -0.43050  -0.42581  -0.42496  -0.42131  -0.41639
 Alpha  occ. eigenvalues --   -0.41518  -0.40811  -0.40155  -0.39001  -0.38732
 Alpha  occ. eigenvalues --   -0.37206  -0.36978  -0.36170  -0.34912  -0.34578
 Alpha  occ. eigenvalues --   -0.34200  -0.33106  -0.31912  -0.31229  -0.26836
 Alpha  occ. eigenvalues --   -0.21630
 Alpha virt. eigenvalues --   -0.08453  -0.01911  -0.01103   0.00724   0.01655
 Alpha virt. eigenvalues --    0.02411   0.02844   0.03634   0.03983   0.04523
 Alpha virt. eigenvalues --    0.05641   0.06290   0.06889   0.07486   0.07734

 Mulliken charges:
               1
     1  Mg   0.421860
     2  C   -0.037439
     3  C   -0.070604
     4  C   -0.100656
     5  C   -0.048477
     6  N   -0.283506
     7  C    0.094810
     8  C    0.011785
     9  C    0.020137
    10  C    0.167382
    11  C   -0.050082
    12  C   -0.022595
    13  C    0.001892
    14  C    0.468471
    15  O   -0.505755
    16  O   -0.271307
    17  N   -0.327760
    18  C    0.124629
    19  C    0.042628
    20  C   -0.033182
    21  C    0.171297
    22  C   -0.046426
    23  C    0.325986
    24  O   -0.506195
    25  C   -0.037460
    26  N   -0.264796
    27  C    0.175807
    28  C   -0.004655
    29  C   -0.004898
    30  C    0.089113
    31  C   -0.053664
    32  C   -0.031830
    33  C   -0.067359
    34  N   -0.326803
    35  C    0.049288
    36  C    0.013769
    37  C   -0.053075
    38  C    0.110031
    39  C   -0.036744
    40  C    0.320800
    41  O   -0.553436
    42  C    0.068683
    43  C    0.491230
    44  O   -0.538321
    45  O   -0.257221
    46  C    0.070285
    47  C    0.106431
    48  C   -0.080404
    49  C   -0.010494
    50  C   -0.047824
    51  C   -0.037241
    52  C   -0.020368
    53  C   -0.021913
    54  C   -0.011629
    55  C   -0.053991
    56  C   -0.028301
    57  C   -0.051071
    58  C   -0.032303
    59  C   -0.004625
    60  C   -0.063116
    61  C   -0.037240
    62  C   -0.040890
    63  C   -0.038283
    64  C   -0.017734
    65  C   -0.062030
    66  C   -0.065748
    67  H    0.014513
    68  H    0.043002
    69  H    0.028990
    70  H    0.068572
    71  H    0.029542
    72  H    0.023762
    73  H    0.011188
    74  H    0.031871
    75  H    0.012682
    76  H    0.027767
    77  H    0.026960
    78  H    0.039795
    79  H    0.033492
    80  H    0.036240
    81  H    0.031103
    82  H    0.036495
    83  H    0.036136
    84  H    0.032569
    85  H    0.032208
    86  H    0.029648
    87  H    0.030521
    88  H    0.031111
    89  H    0.016860
    90  H    0.021960
    91  H    0.016255
    92  H    0.018384
    93  H    0.032385
    94  H    0.024232
    95  H    0.019972
    96  H    0.030503
    97  H    0.029402
    98  H    0.061261
    99  H    0.035036
   100  H    0.053361
   101  H    0.040546
   102  H    0.045416
   103  H    0.046482
   104  H    0.031557
   105  H    0.020323
   106  H    0.027328
   107  H    0.031852
   108  H    0.018029
   109  H    0.009068
   110  H    0.038098
   111  H    0.019097
   112  H    0.028533
   113  H    0.020306
   114  H   -0.001091
   115  H    0.022106
   116  H    0.014774
   117  H    0.015747
   118  H    0.016241
   119  H    0.012836
   120  H    0.015403
   121  H    0.019294
   122  H    0.015322
   123  H    0.024597
   124  H    0.023562
   125  H    0.012412
   126  H    0.020553
   127  H    0.016589
   128  H    0.017493
   129  H    0.021500
   130  H    0.023098
   131  H    0.005728
   132  H    0.028044
   133  H    0.031902
   134  H    0.028899
   135  H    0.010238
   136  H    0.019980
   137  H    0.012190
   138  H    0.017344
   139  H    0.015843
   140  H    0.028117
 Sum of Mulliken charges =  -0.00000

 Dipole moment (field-independent basis, Debye):
    X=             10.2115    Y=              6.3699    Z=             -2.0049  Tot=             12.2012
 N-N= 4.282763865946D+03 E-N= 0.000000000000D+00  KE=-9.239851058327D+03
 Leave Link  601 at Thu May  5 16:17:38 2022, MaxMem=  6710886400 cpu:               0.7 elap:               0.0
 (Enter /sw/apps/gaussian-16.0/g16/l9999.exe)
 1\1\GINC-BP1-COMPUTE135\SP\RZINDO CIS\STO-3G\C55H74Mg1N4O6\OF15641\05-
 May-2022\0\\#p ZINDO=(nstates=5)\\step_951_chromophore_6 ZINDO\\0,1\Mg
 ,0,17.206,-2.654,27.69\C,0,16.308,-0.56,30.371\C,0,19.108,-4.612,29.62
 5\C,0,18.258,-4.352,24.929\C,0,15.505,-0.346,25.502\N,0,17.835,-2.399,
 29.738\C,0,17.23,-1.576,30.714\C,0,17.732,-1.961,32.108\C,0,18.518,-3.
 25,31.801\C,0,18.569,-3.455,30.29\C,0,19.958,-3.251,32.342\C,0,16.586,
 -2.188,33.14\C,0,16.725,-1.717,34.641\C,0,18.033,-1.16,35.175\O,0,18.5

 Normal termination of Gaussian 16 at Thu May  5 16:17:38 2022.
