 Gaussian 16, Revision A.03,
 Gaussian 16:  ES64L-G16RevA.03 25-Dec-2016

 ------------------------------
 #p blyp/Def2SVP td=(nstates=5)
 ------------------------------

 -------------------------------------------------
 step_701_chromophore_6 TDDFT with blyp functional
 -------------------------------------------------
 Symbolic Z-matrix:
 Charge =  0 Multiplicity = 1

                         Standard orientation:
 ---------------------------------------------------------------------
 Center     Atomic      Atomic             Coordinates (Angstroms)
 Number     Number       Type             X           Y           Z
 ---------------------------------------------------------------------
      1         12           0       -5.404381    0.856120   -0.310700
      2          6           0       -4.229160   -2.347911   -0.297679
      3          6           0       -2.149309    2.025408    0.036458
      4          6           0       -6.622377    4.084321    0.169455
      5          6           0       -8.683935   -0.352944   -0.079158
      6          7           0       -3.406744   -0.126831   -0.014339
      7          6           0       -3.157734   -1.429259   -0.313734
      8          6           0       -1.591479   -1.656056   -0.383177
      9          6           0       -0.987925   -0.215218   -0.367809
     10          6           0       -2.236024    0.624220   -0.107494
     11          6           0        0.002221    0.064391    0.808084
     12          6           0       -1.178351   -2.403172   -1.710279
     13          6           0       -0.456527   -3.759243   -1.634097
     14          6           0        0.408667   -3.967267   -0.321617
     15          8           0        0.098062   -4.756386    0.554350
     16          8           0        1.563842   -3.261006   -0.412278
     17          7           0       -4.441215    2.844904   -0.055623
     18          6           0       -3.135334    3.007304    0.038359
     19          6           0       -2.884543    4.389683    0.406574
     20          6           0       -4.117624    5.127753    0.207345
     21          6           0       -5.125020    4.024945    0.093082
     22          6           0       -1.575976    5.008720    0.650726
     23          6           0       -4.404762    6.637570    0.143438
     24          8           0       -5.503243    7.106041   -0.008810
     25          6           0       -3.371607    7.604090    0.331562
     26          7           0       -7.381624    1.798884    0.172248
     27          6           0       -7.623848    3.129913    0.236430
     28          6           0       -9.021340    3.396009    0.780607
     29          6           0       -9.736510    2.047230    0.197401
     30          6           0       -8.562161    1.068690    0.122464
     31          6           0       -9.172549    3.746128    2.259426
     32          6           0      -10.334191    2.210935   -1.215537
     33          6           0      -11.669344    3.006412   -1.393321
     34          7           0       -6.336769   -0.915634   -0.290165
     35          6           0       -7.647000   -1.292686   -0.222046
     36          6           0       -7.809746   -2.725548   -0.268371
     37          6           0       -6.474964   -3.242292   -0.290068
     38          6           0       -5.650942   -2.118416   -0.340256
     39          6           0       -9.093544   -3.398517   -0.486680
     40          6           0       -5.652105   -4.407949   -0.367821
     41          8           0       -5.946464   -5.596491   -0.305428
     42          6           0       -4.133510   -3.860534   -0.489837
     43          6           0       -3.492940   -4.744718    0.584044
     44          8           0       -3.408769   -4.449155    1.762263
     45          8           0       -2.983399   -5.877699    0.011328
     46          6           0       -2.407948   -6.856566    0.956024
     47          6           0        2.421221   -3.344672    0.852660
     48          6           0        3.640406   -2.446388    0.695703
     49          6           0        4.984672   -2.753361    0.449010
     50          6           0        5.473164   -4.124525   -0.055267
     51          6           0        6.082764   -1.649902    0.501542
     52          6           0        6.402936   -0.900421   -0.806641
     53          6           0        7.818183   -1.156048   -1.326793
     54          6           0        8.704607    0.153404   -1.340880
     55          6           0        9.715535    0.129618   -2.453495
     56          6           0        9.305635    0.630448    0.025548
     57          6           0       10.296602   -0.296391    0.689747
     58          6           0       10.656871    0.111306    2.170993
     59          6           0       12.195947    0.202567    2.347913
     60          6           0       12.507496    0.106376    3.797700
     61          6           0       12.724265    1.550350    1.712533
     62          6           0       13.673857    1.210370    0.438800
     63          6           0       13.458473    2.192003   -0.713543
     64          6           0       14.766723    2.768159   -1.424969
     65          6           0       15.044116    2.153479   -2.854864
     66          6           0       14.888852    4.297628   -1.403670
     67          1           0       -1.131346    2.417706   -0.004214
     68          1           0       -7.053933    5.086146    0.236339
     69          1           0       -9.717731   -0.701980   -0.106034
     70          1           0       -1.322143   -2.157871    0.546018
     71          1           0       -0.551933    0.102496   -1.315536
     72          1           0        0.516896   -0.824260    1.173192
     73          1           0       -0.427267    0.574663    1.669746
     74          1           0        0.841955    0.678054    0.481533
     75          1           0       -0.464777   -1.756615   -2.220869
     76          1           0       -2.071733   -2.548188   -2.316800
     77          1           0        0.244947   -3.903786   -2.456454
     78          1           0       -1.244060   -4.503132   -1.752481
     79          1           0       -1.461740    5.800560   -0.089592
     80          1           0       -0.771574    4.301517    0.446693
     81          1           0       -1.618098    5.456766    1.643007
     82          1           0       -2.871481    7.363108    1.270115
     83          1           0       -3.814595    8.597888    0.390329
     84          1           0       -2.853207    7.468545   -0.617494
     85          1           0       -9.352443    4.252640    0.192313
     86          1           0      -10.485463    1.682473    0.899626
     87          1           0       -9.982659    3.203334    2.746691
     88          1           0       -9.498668    4.784233    2.323530
     89          1           0       -8.227178    3.649229    2.792089
     90          1           0      -10.406629    1.306633   -1.819365
     91          1           0       -9.548706    2.776165   -1.718398
     92          1           0      -12.595170    2.456409   -1.218779
     93          1           0      -11.755344    3.338930   -2.427476
     94          1           0      -11.681677    3.892136   -0.758545
     95          1           0       -9.933566   -2.756249   -0.752362
     96          1           0       -9.231034   -3.833444    0.503729
     97          1           0       -8.892742   -4.192929   -1.205789
     98          1           0       -3.927524   -4.263614   -1.480787
     99          1           0       -1.808171   -6.393240    1.740128
    100          1           0       -1.854801   -7.464852    0.240862
    101          1           0       -3.147477   -7.472086    1.469273
    102          1           0        2.839834   -4.346473    0.950963
    103          1           0        1.826903   -3.186395    1.753594
    104          1           0        3.538853   -1.417556    1.041229
    105          1           0        6.143779   -4.445082    0.742189
    106          1           0        6.051994   -3.986510   -0.968184
    107          1           0        4.742525   -4.923945   -0.174349
    108          1           0        7.036600   -2.100472    0.773403
    109          1           0        5.798590   -0.839745    1.173799
    110          1           0        6.256247    0.165776   -0.630017
    111          1           0        5.612083   -1.231781   -1.479115
    112          1           0        7.507840   -1.362629   -2.351588
    113          1           0        8.451579   -1.960844   -0.953096
    114          1           0        8.058397    0.996569   -1.586507
    115          1           0       10.076373   -0.879474   -2.653466
    116          1           0       10.576887    0.767542   -2.260364
    117          1           0        9.327554    0.451562   -3.419880
    118          1           0        8.476970    0.741132    0.724436
    119          1           0        9.786634    1.608179    0.016197
    120          1           0       11.199799   -0.200418    0.086604
    121          1           0       10.009097   -1.345154    0.604624
    122          1           0       10.223089   -0.725246    2.718735
    123          1           0       10.199487    1.039270    2.513127
    124          1           0       12.581500   -0.711581    1.895546
    125          1           0       12.925744    1.016609    4.226845
    126          1           0       13.047936   -0.825676    3.964926
    127          1           0       11.567079   -0.075513    4.318314
    128          1           0       13.433977    2.079933    2.348103
    129          1           0       11.930461    2.233259    1.407847
    130          1           0       13.599156    0.152426    0.187595
    131          1           0       14.672273    1.300913    0.864403
    132          1           0       12.703018    2.941798   -0.479995
    133          1           0       12.951080    1.507081   -1.392602
    134          1           0       15.616893    2.462667   -0.815218
    135          1           0       16.116838    2.120083   -3.046948
    136          1           0       14.661281    2.881562   -3.570642
    137          1           0       14.476163    1.224007   -2.884116
    138          1           0       14.612442    4.649426   -0.409798
    139          1           0       14.148389    4.757821   -2.057763
    140          1           0       15.875220    4.687811   -1.658077
 ---------------------------------------------------------------------

 SCF Done:  E(RB-LYP) =  -3007.35983422     A.U. after   21 cycles

 Excitation energies and oscillator strengths:

 Excited State   1:      Singlet-A      1.7872 eV  693.75 nm  f=0.0070  <S**2>=0.000
     244 -> 247        0.68842
     245 -> 247       -0.11389
     246 -> 247       -0.10513
 This state for optimization and/or second-order correction.
 Total Energy, E(TD-HF/TD-DFT) =  -3007.29415698
 Copying the excited state density for this state as the 1-particle RhoCI density.

 Excited State   2:      Singlet-A      1.8091 eV  685.33 nm  f=0.2696  <S**2>=0.000
     244 -> 247        0.11248
     245 -> 248       -0.20458
     246 -> 247        0.67797
     246 <- 247       -0.14889

 Excited State   3:      Singlet-A      1.9376 eV  639.88 nm  f=0.0418  <S**2>=0.000
     243 -> 247        0.57609
     245 -> 247        0.37666
     246 -> 248        0.12478

 Excited State   4:      Singlet-A      1.9966 eV  620.98 nm  f=0.0649  <S**2>=0.000
     243 -> 247       -0.40584
     245 -> 247        0.52496
     246 -> 248        0.20994

 Excited State   5:      Singlet-A      2.4013 eV  516.31 nm  f=0.0024  <S**2>=0.000
     241 -> 247        0.62895
     242 -> 247       -0.30278

 The electronic state is 1-A.
 Alpha  occ. eigenvalues --  -46.28138 -18.82743 -18.80412 -18.76913 -18.75525
 Alpha  occ. eigenvalues --  -18.74939 -18.74710 -14.03306 -14.02516 -14.00954
 Alpha  occ. eigenvalues --  -14.00950 -10.04046 -10.02331  -9.99364  -9.98984
 Alpha  occ. eigenvalues --   -9.98843  -9.96835  -9.96552  -9.96512  -9.96442
 Alpha  occ. eigenvalues --   -9.95558  -9.95505  -9.95250  -9.95243  -9.94988
 Alpha  occ. eigenvalues --   -9.94921  -9.94538  -9.94326  -9.93840  -9.93816
 Alpha  occ. eigenvalues --   -9.93781  -9.93726  -9.93368  -9.93290  -9.93230
 Alpha  occ. eigenvalues --   -9.93213  -9.93034  -9.92966  -9.92913  -9.92775
 Alpha  occ. eigenvalues --   -9.92739  -9.92659  -9.92652  -9.92537  -9.92445
 Alpha  occ. eigenvalues --   -9.92441  -9.92434  -9.92406  -9.92369  -9.92297
 Alpha  occ. eigenvalues --   -9.92267  -9.92144  -9.91850  -9.91843  -9.91796
 Alpha  occ. eigenvalues --   -9.91509  -9.91454  -9.91438  -9.91431  -9.91406
 Alpha  occ. eigenvalues --   -9.91254  -9.91142  -9.91085  -9.91017  -9.90908
 Alpha  occ. eigenvalues --   -9.90235  -2.92536  -1.72952  -1.72410  -1.72268
 Alpha  occ. eigenvalues --   -0.97531  -0.95786  -0.92315  -0.90898  -0.89806
 Alpha  occ. eigenvalues --   -0.88067  -0.86147  -0.85740  -0.85030  -0.84571
 Alpha  occ. eigenvalues --   -0.74715  -0.73961  -0.73032  -0.72335  -0.71833
 Alpha  occ. eigenvalues --   -0.71489  -0.70975  -0.70825  -0.70801  -0.70463
 Alpha  occ. eigenvalues --   -0.70219  -0.68976  -0.68157  -0.67014  -0.66779
 Alpha  occ. eigenvalues --   -0.66566  -0.66005  -0.65623  -0.65089  -0.64707
 Alpha  occ. eigenvalues --   -0.63796  -0.62518  -0.61803  -0.61420  -0.61057
 Alpha  occ. eigenvalues --   -0.60194  -0.60144  -0.59503  -0.59319  -0.59156
 Alpha  occ. eigenvalues --   -0.58122  -0.57418  -0.56515  -0.55139  -0.54356
 Alpha  occ. eigenvalues --   -0.53764  -0.53585  -0.52691  -0.52413  -0.51857
 Alpha  occ. eigenvalues --   -0.51504  -0.50688  -0.50156  -0.50040  -0.49850
 Alpha  occ. eigenvalues --   -0.49512  -0.49244  -0.48282  -0.47015  -0.46437
 Alpha  occ. eigenvalues --   -0.45606  -0.45510  -0.44984  -0.44572  -0.44022
 Alpha  occ. eigenvalues --   -0.43551  -0.43220  -0.42942  -0.42426  -0.42034
 Alpha  occ. eigenvalues --   -0.41777  -0.41428  -0.41417  -0.41100  -0.41071
 Alpha  occ. eigenvalues --   -0.40935  -0.40673  -0.40562  -0.40316  -0.40097
 Alpha  occ. eigenvalues --   -0.39933  -0.39349  -0.39189  -0.38986  -0.38764
 Alpha  occ. eigenvalues --   -0.38734  -0.38610  -0.38432  -0.38341  -0.38082
 Alpha  occ. eigenvalues --   -0.37967  -0.37893  -0.37742  -0.37644  -0.37396
 Alpha  occ. eigenvalues --   -0.37096  -0.36975  -0.36716  -0.36425  -0.36402
 Alpha  occ. eigenvalues --   -0.36330  -0.35862  -0.35659  -0.35545  -0.35472
 Alpha  occ. eigenvalues --   -0.35302  -0.35177  -0.35077  -0.34975  -0.34839
 Alpha  occ. eigenvalues --   -0.34646  -0.34549  -0.34392  -0.33983  -0.33858
 Alpha  occ. eigenvalues --   -0.33753  -0.33525  -0.33445  -0.33018  -0.32878
 Alpha  occ. eigenvalues --   -0.32845  -0.32698  -0.32506  -0.32367  -0.32097
 Alpha  occ. eigenvalues --   -0.31944  -0.31700  -0.31593  -0.31459  -0.31331
 Alpha  occ. eigenvalues --   -0.31103  -0.30987  -0.30926  -0.30713  -0.30582
 Alpha  occ. eigenvalues --   -0.30282  -0.30188  -0.30143  -0.30018  -0.29866
 Alpha  occ. eigenvalues --   -0.29670  -0.29617  -0.29515  -0.29324  -0.29157
 Alpha  occ. eigenvalues --   -0.28583  -0.28298  -0.28276  -0.27944  -0.27936
 Alpha  occ. eigenvalues --   -0.27883  -0.27173  -0.27142  -0.26819  -0.26612
 Alpha  occ. eigenvalues --   -0.26330  -0.26255  -0.25950  -0.25606  -0.25327
 Alpha  occ. eigenvalues --   -0.25245  -0.24101  -0.23879  -0.23490  -0.23328
 Alpha  occ. eigenvalues --   -0.22985  -0.22203  -0.21604  -0.20600  -0.20462
 Alpha  occ. eigenvalues --   -0.20202  -0.19922  -0.18501  -0.17934  -0.16884
 Alpha  occ. eigenvalues --   -0.15668
 Alpha virt. eigenvalues --   -0.11414  -0.06532  -0.05920  -0.04452  -0.04256
 Alpha virt. eigenvalues --   -0.02683  -0.02479  -0.01409  -0.00498   0.00357
 Alpha virt. eigenvalues --    0.01647   0.01653   0.02068   0.02276   0.02760

 Mulliken charges:
               1
     1  Mg   0.683177
     2  C    0.102486
     3  C   -0.050514
     4  C    0.000014
     5  C   -0.081355
     6  N   -0.227037
     7  C   -0.067235
     8  C    0.064093
     9  C   -0.007286
    10  C   -0.006898
    11  C    0.111628
    12  C    0.094707
    13  C    0.144894
    14  C    0.072328
    15  O   -0.189850
    16  O   -0.277640
    17  N   -0.203620
    18  C    0.135467
    19  C   -0.198800
    20  C    0.007474
    21  C    0.053853
    22  C    0.199473
    23  C   -0.108254
    24  O   -0.148507
    25  C    0.171969
    26  N   -0.206267
    27  C   -0.037120
    28  C    0.006264
    29  C    0.032193
    30  C    0.017635
    31  C    0.172088
    32  C    0.083155
    33  C    0.074955
    34  N   -0.299530
    35  C    0.152771
    36  C   -0.195454
    37  C    0.142493
    38  C    0.059276
    39  C    0.193519
    40  C   -0.134600
    41  O   -0.133305
    42  C   -0.013906
    43  C    0.119126
    44  O   -0.180187
    45  O   -0.271835
    46  C    0.226820
    47  C    0.304952
    48  C   -0.075963
    49  C   -0.153463
    50  C    0.127899
    51  C    0.115486
    52  C    0.068225
    53  C    0.099553
    54  C   -0.040818
    55  C    0.111886
    56  C    0.075024
    57  C    0.056514
    58  C    0.096830
    59  C   -0.100352
    60  C    0.159407
    61  C    0.093915
    62  C    0.017489
    63  C    0.096228
    64  C   -0.074147
    65  C    0.101995
    66  C    0.082249
    67  H   -0.068250
    68  H   -0.048290
    69  H   -0.067557
    70  H    0.013725
    71  H   -0.009152
    72  H   -0.012949
    73  H    0.004000
    74  H   -0.017613
    75  H   -0.019200
    76  H   -0.010309
    77  H   -0.011044
    78  H   -0.005859
    79  H   -0.005279
    80  H   -0.021899
    81  H    0.012043
    82  H    0.006145
    83  H   -0.010587
    84  H    0.012083
    85  H   -0.028067
    86  H   -0.043973
    87  H   -0.010365
    88  H   -0.011468
    89  H    0.004953
    90  H   -0.021704
    91  H   -0.029496
    92  H   -0.009204
    93  H   -0.010622
    94  H   -0.012670
    95  H   -0.002551
    96  H    0.012037
    97  H    0.016068
    98  H    0.001064
    99  H    0.028442
   100  H    0.006232
   101  H    0.007612
   102  H   -0.007675
   103  H    0.018353
   104  H   -0.041262
   105  H   -0.001400
   106  H    0.007790
   107  H    0.000814
   108  H   -0.027516
   109  H   -0.023972
   110  H   -0.022379
   111  H   -0.024003
   112  H   -0.031196
   113  H   -0.010638
   114  H   -0.048579
   115  H   -0.025288
   116  H   -0.021265
   117  H   -0.024295
   118  H   -0.045827
   119  H   -0.030956
   120  H   -0.038206
   121  H   -0.036652
   122  H   -0.035626
   123  H   -0.028370
   124  H   -0.034646
   125  H   -0.017087
   126  H   -0.023942
   127  H   -0.043584
   128  H   -0.021679
   129  H   -0.017686
   130  H   -0.016378
   131  H   -0.033422
   132  H   -0.028461
   133  H   -0.024242
   134  H   -0.033340
   135  H   -0.011378
   136  H   -0.021644
   137  H   -0.005845
   138  H   -0.020189
   139  H   -0.019749
   140  H   -0.010446
 Sum of Mulliken charges =  -0.00000

 Dipole moment (field-independent basis, Debye):
    X=              4.8916    Y=              2.6777    Z=             -2.1896  Tot=              5.9910
 Quadrupole moment (field-independent basis, Debye-Ang):
   XX=           -367.8685   YY=           -439.5978   ZZ=           -406.8039
   XY=            -14.5327   XZ=              8.7911   YZ=             10.0143

 Normal termination of Gaussian 16 at Sat Apr 30 12:08:53 2022.
