 Gaussian 16, Revision A.03,
 Gaussian 16:  ES64L-G16RevA.03 25-Dec-2016

 -----------------------------------
 #p cam-b3lyp/Def2SVP td=(nstates=5)
 -----------------------------------

 ------------------------------------------------------
 step_701_chromophore_6 TDDFT with cam-b3lyp functional
 ------------------------------------------------------
 Symbolic Z-matrix:
 Charge =  0 Multiplicity = 1

                         Standard orientation:
 ---------------------------------------------------------------------
 Center     Atomic      Atomic             Coordinates (Angstroms)
 Number     Number       Type             X           Y           Z
 ---------------------------------------------------------------------
      1         12           0       -5.404381    0.856120   -0.310700
      2          6           0       -4.229160   -2.347911   -0.297679
      3          6           0       -2.149309    2.025408    0.036458
      4          6           0       -6.622377    4.084321    0.169455
      5          6           0       -8.683935   -0.352944   -0.079158
      6          7           0       -3.406744   -0.126831   -0.014339
      7          6           0       -3.157734   -1.429259   -0.313734
      8          6           0       -1.591479   -1.656056   -0.383177
      9          6           0       -0.987925   -0.215218   -0.367809
     10          6           0       -2.236024    0.624220   -0.107494
     11          6           0        0.002221    0.064391    0.808084
     12          6           0       -1.178351   -2.403172   -1.710279
     13          6           0       -0.456527   -3.759243   -1.634097
     14          6           0        0.408667   -3.967267   -0.321617
     15          8           0        0.098062   -4.756386    0.554350
     16          8           0        1.563842   -3.261006   -0.412278
     17          7           0       -4.441215    2.844904   -0.055623
     18          6           0       -3.135334    3.007304    0.038359
     19          6           0       -2.884543    4.389683    0.406574
     20          6           0       -4.117624    5.127753    0.207345
     21          6           0       -5.125020    4.024945    0.093082
     22          6           0       -1.575976    5.008720    0.650726
     23          6           0       -4.404762    6.637570    0.143438
     24          8           0       -5.503243    7.106041   -0.008810
     25          6           0       -3.371607    7.604090    0.331562
     26          7           0       -7.381624    1.798884    0.172248
     27          6           0       -7.623848    3.129913    0.236430
     28          6           0       -9.021340    3.396009    0.780607
     29          6           0       -9.736510    2.047230    0.197401
     30          6           0       -8.562161    1.068690    0.122464
     31          6           0       -9.172549    3.746128    2.259426
     32          6           0      -10.334191    2.210935   -1.215537
     33          6           0      -11.669344    3.006412   -1.393321
     34          7           0       -6.336769   -0.915634   -0.290165
     35          6           0       -7.647000   -1.292686   -0.222046
     36          6           0       -7.809746   -2.725548   -0.268371
     37          6           0       -6.474964   -3.242292   -0.290068
     38          6           0       -5.650942   -2.118416   -0.340256
     39          6           0       -9.093544   -3.398517   -0.486680
     40          6           0       -5.652105   -4.407949   -0.367821
     41          8           0       -5.946464   -5.596491   -0.305428
     42          6           0       -4.133510   -3.860534   -0.489837
     43          6           0       -3.492940   -4.744718    0.584044
     44          8           0       -3.408769   -4.449155    1.762263
     45          8           0       -2.983399   -5.877699    0.011328
     46          6           0       -2.407948   -6.856566    0.956024
     47          6           0        2.421221   -3.344672    0.852660
     48          6           0        3.640406   -2.446388    0.695703
     49          6           0        4.984672   -2.753361    0.449010
     50          6           0        5.473164   -4.124525   -0.055267
     51          6           0        6.082764   -1.649902    0.501542
     52          6           0        6.402936   -0.900421   -0.806641
     53          6           0        7.818183   -1.156048   -1.326793
     54          6           0        8.704607    0.153404   -1.340880
     55          6           0        9.715535    0.129618   -2.453495
     56          6           0        9.305635    0.630448    0.025548
     57          6           0       10.296602   -0.296391    0.689747
     58          6           0       10.656871    0.111306    2.170993
     59          6           0       12.195947    0.202567    2.347913
     60          6           0       12.507496    0.106376    3.797700
     61          6           0       12.724265    1.550350    1.712533
     62          6           0       13.673857    1.210370    0.438800
     63          6           0       13.458473    2.192003   -0.713543
     64          6           0       14.766723    2.768159   -1.424969
     65          6           0       15.044116    2.153479   -2.854864
     66          6           0       14.888852    4.297628   -1.403670
     67          1           0       -1.131346    2.417706   -0.004214
     68          1           0       -7.053933    5.086146    0.236339
     69          1           0       -9.717731   -0.701980   -0.106034
     70          1           0       -1.322143   -2.157871    0.546018
     71          1           0       -0.551933    0.102496   -1.315536
     72          1           0        0.516896   -0.824260    1.173192
     73          1           0       -0.427267    0.574663    1.669746
     74          1           0        0.841955    0.678054    0.481533
     75          1           0       -0.464777   -1.756615   -2.220869
     76          1           0       -2.071733   -2.548188   -2.316800
     77          1           0        0.244947   -3.903786   -2.456454
     78          1           0       -1.244060   -4.503132   -1.752481
     79          1           0       -1.461740    5.800560   -0.089592
     80          1           0       -0.771574    4.301517    0.446693
     81          1           0       -1.618098    5.456766    1.643007
     82          1           0       -2.871481    7.363108    1.270115
     83          1           0       -3.814595    8.597888    0.390329
     84          1           0       -2.853207    7.468545   -0.617494
     85          1           0       -9.352443    4.252640    0.192313
     86          1           0      -10.485463    1.682473    0.899626
     87          1           0       -9.982659    3.203334    2.746691
     88          1           0       -9.498668    4.784233    2.323530
     89          1           0       -8.227178    3.649229    2.792089
     90          1           0      -10.406629    1.306633   -1.819365
     91          1           0       -9.548706    2.776165   -1.718398
     92          1           0      -12.595170    2.456409   -1.218779
     93          1           0      -11.755344    3.338930   -2.427476
     94          1           0      -11.681677    3.892136   -0.758545
     95          1           0       -9.933566   -2.756249   -0.752362
     96          1           0       -9.231034   -3.833444    0.503729
     97          1           0       -8.892742   -4.192929   -1.205789
     98          1           0       -3.927524   -4.263614   -1.480787
     99          1           0       -1.808171   -6.393240    1.740128
    100          1           0       -1.854801   -7.464852    0.240862
    101          1           0       -3.147477   -7.472086    1.469273
    102          1           0        2.839834   -4.346473    0.950963
    103          1           0        1.826903   -3.186395    1.753594
    104          1           0        3.538853   -1.417556    1.041229
    105          1           0        6.143779   -4.445082    0.742189
    106          1           0        6.051994   -3.986510   -0.968184
    107          1           0        4.742525   -4.923945   -0.174349
    108          1           0        7.036600   -2.100472    0.773403
    109          1           0        5.798590   -0.839745    1.173799
    110          1           0        6.256247    0.165776   -0.630017
    111          1           0        5.612083   -1.231781   -1.479115
    112          1           0        7.507840   -1.362629   -2.351588
    113          1           0        8.451579   -1.960844   -0.953096
    114          1           0        8.058397    0.996569   -1.586507
    115          1           0       10.076373   -0.879474   -2.653466
    116          1           0       10.576887    0.767542   -2.260364
    117          1           0        9.327554    0.451562   -3.419880
    118          1           0        8.476970    0.741132    0.724436
    119          1           0        9.786634    1.608179    0.016197
    120          1           0       11.199799   -0.200418    0.086604
    121          1           0       10.009097   -1.345154    0.604624
    122          1           0       10.223089   -0.725246    2.718735
    123          1           0       10.199487    1.039270    2.513127
    124          1           0       12.581500   -0.711581    1.895546
    125          1           0       12.925744    1.016609    4.226845
    126          1           0       13.047936   -0.825676    3.964926
    127          1           0       11.567079   -0.075513    4.318314
    128          1           0       13.433977    2.079933    2.348103
    129          1           0       11.930461    2.233259    1.407847
    130          1           0       13.599156    0.152426    0.187595
    131          1           0       14.672273    1.300913    0.864403
    132          1           0       12.703018    2.941798   -0.479995
    133          1           0       12.951080    1.507081   -1.392602
    134          1           0       15.616893    2.462667   -0.815218
    135          1           0       16.116838    2.120083   -3.046948
    136          1           0       14.661281    2.881562   -3.570642
    137          1           0       14.476163    1.224007   -2.884116
    138          1           0       14.612442    4.649426   -0.409798
    139          1           0       14.148389    4.757821   -2.057763
    140          1           0       15.875220    4.687811   -1.658077
 ---------------------------------------------------------------------

 SCF Done:  E(RCAM-B3LYP) =  -3007.14128292     A.U. after   17 cycles

 Excitation energies and oscillator strengths:

 Excited State   1:      Singlet-A      1.6872 eV  734.83 nm  f=0.3703  <S**2>=0.000
     245 -> 248       -0.18851
     246 -> 247        0.68291
     245 <- 248       -0.11208
 This state for optimization and/or second-order correction.
 Total Energy, E(TD-HF/TD-DFT) =  -3007.07927765
 Copying the excited state density for this state as the 1-particle RhoCI density.

 Excited State   2:      Singlet-A      2.1560 eV  575.06 nm  f=0.1405  <S**2>=0.000
     245 -> 247        0.64782
     246 -> 248        0.27231

 Excited State   3:      Singlet-A      3.3257 eV  372.81 nm  f=0.0009  <S**2>=0.000
     244 -> 247        0.68087

 Excited State   4:      Singlet-A      3.4729 eV  357.01 nm  f=0.0659  <S**2>=0.000
     239 -> 247       -0.12977
     243 -> 247        0.59685
     246 -> 248       -0.31232

 Excited State   5:      Singlet-A      3.4877 eV  355.49 nm  f=0.0339  <S**2>=0.000
     241 -> 247        0.39695
     241 -> 249        0.20170
     241 -> 250       -0.10002
     242 -> 247        0.40093
     242 -> 249        0.18834
     243 -> 247       -0.10601
     246 -> 248       -0.12399

 The electronic state is 1-A.
 Alpha  occ. eigenvalues --  -46.89791 -19.25699 -19.23279 -19.19843 -19.18710
 Alpha  occ. eigenvalues --  -19.17955 -19.17896 -14.42225 -14.41386 -14.39443
 Alpha  occ. eigenvalues --  -14.39376 -10.39317 -10.37743 -10.34750 -10.34081
 Alpha  occ. eigenvalues --  -10.33188 -10.31430 -10.31103 -10.30989 -10.30980
 Alpha  occ. eigenvalues --  -10.29922 -10.29606 -10.29469 -10.29427 -10.29405
 Alpha  occ. eigenvalues --  -10.29191 -10.28708 -10.28346 -10.28344 -10.28072
 Alpha  occ. eigenvalues --  -10.28013 -10.27789 -10.27758 -10.27674 -10.27180
 Alpha  occ. eigenvalues --  -10.27129 -10.27075 -10.27070 -10.26995 -10.26931
 Alpha  occ. eigenvalues --  -10.26678 -10.26558 -10.26558 -10.26552 -10.26441
 Alpha  occ. eigenvalues --  -10.26206 -10.26201 -10.26137 -10.26104 -10.25991
 Alpha  occ. eigenvalues --  -10.25967 -10.25733 -10.25605 -10.25507 -10.25470
 Alpha  occ. eigenvalues --  -10.25398 -10.25346 -10.25213 -10.25164 -10.25155
 Alpha  occ. eigenvalues --  -10.25123 -10.24799 -10.24758 -10.24618 -10.24498
 Alpha  occ. eigenvalues --  -10.23785  -3.18080  -1.92977  -1.92513  -1.92402
 Alpha  occ. eigenvalues --   -1.15984  -1.14269  -1.10790  -1.09289  -1.07639
 Alpha  occ. eigenvalues --   -1.05939  -1.03863  -1.03364  -1.02689  -1.02122
 Alpha  occ. eigenvalues --   -0.91850  -0.90846  -0.89848  -0.89101  -0.88525
 Alpha  occ. eigenvalues --   -0.88215  -0.87559  -0.87512  -0.87390  -0.87010
 Alpha  occ. eigenvalues --   -0.86823  -0.85308  -0.84484  -0.83228  -0.82960
 Alpha  occ. eigenvalues --   -0.82743  -0.82056  -0.81612  -0.81007  -0.80573
 Alpha  occ. eigenvalues --   -0.79518  -0.78236  -0.77452  -0.76910  -0.76455
 Alpha  occ. eigenvalues --   -0.75541  -0.75496  -0.74800  -0.74603  -0.74405
 Alpha  occ. eigenvalues --   -0.73142  -0.72439  -0.71428  -0.69950  -0.68922
 Alpha  occ. eigenvalues --   -0.68355  -0.68196  -0.67100  -0.66847  -0.66192
 Alpha  occ. eigenvalues --   -0.65737  -0.64763  -0.64188  -0.63919  -0.63892
 Alpha  occ. eigenvalues --   -0.63306  -0.63196  -0.62054  -0.60684  -0.59965
 Alpha  occ. eigenvalues --   -0.59139  -0.59103  -0.58435  -0.57871  -0.57473
 Alpha  occ. eigenvalues --   -0.56862  -0.56756  -0.56015  -0.55613  -0.55013
 Alpha  occ. eigenvalues --   -0.54668  -0.54557  -0.54372  -0.54197  -0.53766
 Alpha  occ. eigenvalues --   -0.53671  -0.53571  -0.53412  -0.53187  -0.52739
 Alpha  occ. eigenvalues --   -0.52664  -0.52312  -0.52042  -0.51639  -0.51448
 Alpha  occ. eigenvalues --   -0.51194  -0.51122  -0.51027  -0.50727  -0.50667
 Alpha  occ. eigenvalues --   -0.50485  -0.50164  -0.50090  -0.49870  -0.49828
 Alpha  occ. eigenvalues --   -0.49590  -0.49288  -0.49137  -0.48911  -0.48517
 Alpha  occ. eigenvalues --   -0.48375  -0.48311  -0.48240  -0.47665  -0.47569
 Alpha  occ. eigenvalues --   -0.47347  -0.47130  -0.47079  -0.46969  -0.46859
 Alpha  occ. eigenvalues --   -0.46743  -0.46428  -0.46253  -0.45955  -0.45614
 Alpha  occ. eigenvalues --   -0.45519  -0.45172  -0.45118  -0.44724  -0.44635
 Alpha  occ. eigenvalues --   -0.44540  -0.44329  -0.44251  -0.44043  -0.43923
 Alpha  occ. eigenvalues --   -0.43627  -0.43313  -0.43097  -0.42909  -0.42799
 Alpha  occ. eigenvalues --   -0.42690  -0.42605  -0.42326  -0.42199  -0.42051
 Alpha  occ. eigenvalues --   -0.41948  -0.41742  -0.41424  -0.41215  -0.41174
 Alpha  occ. eigenvalues --   -0.41021  -0.40971  -0.40823  -0.40613  -0.40430
 Alpha  occ. eigenvalues --   -0.40214  -0.39404  -0.39161  -0.39014  -0.38861
 Alpha  occ. eigenvalues --   -0.38815  -0.37921  -0.37915  -0.37621  -0.37594
 Alpha  occ. eigenvalues --   -0.37366  -0.37088  -0.37005  -0.36523  -0.36276
 Alpha  occ. eigenvalues --   -0.35966  -0.34862  -0.34537  -0.34222  -0.33984
 Alpha  occ. eigenvalues --   -0.33696  -0.32976  -0.32414  -0.30705  -0.30559
 Alpha  occ. eigenvalues --   -0.30343  -0.30239  -0.29728  -0.29219  -0.23544
 Alpha  occ. eigenvalues --   -0.21009
 Alpha virt. eigenvalues --   -0.08652  -0.01425   0.00536   0.02176   0.02818
 Alpha virt. eigenvalues --    0.02922   0.05113   0.06139   0.06744   0.07352
 Alpha virt. eigenvalues --    0.07744   0.08358   0.08632   0.08953   0.09218

 Mulliken charges:
               1
     1  Mg   0.812621
     2  C    0.082165
     3  C   -0.065363
     4  C   -0.021077
     5  C   -0.089500
     6  N   -0.293270
     7  C   -0.022800
     8  C    0.001685
     9  C   -0.058101
    10  C    0.015109
    11  C    0.057139
    12  C    0.047441
    13  C    0.085228
    14  C    0.141092
    15  O   -0.231475
    16  O   -0.339698
    17  N   -0.291019
    18  C    0.148937
    19  C   -0.195537
    20  C   -0.061456
    21  C    0.082543
    22  C    0.130952
    23  C   -0.023535
    24  O   -0.189559
    25  C    0.080257
    26  N   -0.272149
    27  C   -0.015047
    28  C   -0.045499
    29  C   -0.028843
    30  C    0.035594
    31  C    0.111119
    32  C    0.026685
    33  C    0.018658
    34  N   -0.391091
    35  C    0.155653
    36  C   -0.181077
    37  C    0.063967
    38  C    0.089532
    39  C    0.133424
    40  C   -0.030954
    41  O   -0.172393
    42  C   -0.090047
    43  C    0.203363
    44  O   -0.217311
    45  O   -0.334648
    46  C    0.187859
    47  C    0.271973
    48  C   -0.094306
    49  C   -0.173873
    50  C    0.067513
    51  C    0.061095
    52  C    0.017149
    53  C    0.038162
    54  C   -0.099616
    55  C    0.054050
    56  C    0.031510
    57  C    0.009432
    58  C    0.041353
    59  C   -0.157916
    60  C    0.095147
    61  C    0.044751
    62  C   -0.030548
    63  C    0.039564
    64  C   -0.132335
    65  C    0.045909
    66  C    0.026378
    67  H   -0.035023
    68  H   -0.009199
    69  H   -0.031087
    70  H    0.046262
    71  H    0.025787
    72  H    0.007078
    73  H    0.031534
    74  H    0.006677
    75  H    0.011385
    76  H    0.019640
    77  H    0.023122
    78  H    0.024632
    79  H    0.021481
    80  H    0.006785
    81  H    0.038580
    82  H    0.032794
    83  H    0.026742
    84  H    0.038262
    85  H    0.005879
    86  H   -0.008583
    87  H    0.014348
    88  H    0.013067
    89  H    0.030769
    90  H    0.007910
    91  H   -0.001404
    92  H    0.013771
    93  H    0.013451
    94  H    0.008447
    95  H    0.022453
    96  H    0.038969
    97  H    0.042188
    98  H    0.041624
    99  H    0.053035
   100  H    0.029547
   101  H    0.030159
   102  H    0.021712
   103  H    0.046985
   104  H   -0.012627
   105  H    0.022405
   106  H    0.029766
   107  H    0.025679
   108  H   -0.000346
   109  H    0.006250
   110  H    0.006226
   111  H    0.006548
   112  H    0.000633
   113  H    0.014031
   114  H   -0.014358
   115  H   -0.001695
   116  H    0.001247
   117  H    0.002124
   118  H   -0.019628
   119  H   -0.005427
   120  H   -0.014955
   121  H   -0.010456
   122  H   -0.005183
   123  H    0.000500
   124  H   -0.002253
   125  H    0.007983
   126  H    0.001768
   127  H   -0.015633
   128  H    0.006960
   129  H    0.006122
   130  H    0.008473
   131  H   -0.004975
   132  H   -0.000743
   133  H   -0.000587
   134  H   -0.002672
   135  H    0.012703
   136  H    0.000988
   137  H    0.016535
   138  H    0.003543
   139  H    0.002552
   140  H    0.013759
 Sum of Mulliken charges =  -0.00000

 Dipole moment (field-independent basis, Debye):
    X=              5.1700    Y=              3.0747    Z=             -2.3048  Tot=              6.4416
 Quadrupole moment (field-independent basis, Debye-Ang):
   XX=           -368.0314   YY=           -436.6341   ZZ=           -406.8154
   XY=            -15.4784   XZ=              9.8059   YZ=             10.8501

 Normal termination of Gaussian 16 at Sat Apr 30 11:17:15 2022.
