 Gaussian 16, Revision A.03,
 Gaussian 16:  ES64L-G16RevA.03 25-Dec-2016

 ---------------------------------
 #p PBE1PBE/Def2SVP td=(nstates=5)
 ---------------------------------

 ----------------------------------------------------
 step_701_chromophore_6 TDDFT with PBE1PBE functional
 ----------------------------------------------------
 Symbolic Z-matrix:
 Charge =  0 Multiplicity = 1

                         Standard orientation:
 ---------------------------------------------------------------------
 Center     Atomic      Atomic             Coordinates (Angstroms)
 Number     Number       Type             X           Y           Z
 ---------------------------------------------------------------------
      1         12           0       -5.404381    0.856120   -0.310700
      2          6           0       -4.229160   -2.347911   -0.297679
      3          6           0       -2.149309    2.025408    0.036458
      4          6           0       -6.622377    4.084321    0.169455
      5          6           0       -8.683935   -0.352944   -0.079158
      6          7           0       -3.406744   -0.126831   -0.014339
      7          6           0       -3.157734   -1.429259   -0.313734
      8          6           0       -1.591479   -1.656056   -0.383177
      9          6           0       -0.987925   -0.215218   -0.367809
     10          6           0       -2.236024    0.624220   -0.107494
     11          6           0        0.002221    0.064391    0.808084
     12          6           0       -1.178351   -2.403172   -1.710279
     13          6           0       -0.456527   -3.759243   -1.634097
     14          6           0        0.408667   -3.967267   -0.321617
     15          8           0        0.098062   -4.756386    0.554350
     16          8           0        1.563842   -3.261006   -0.412278
     17          7           0       -4.441215    2.844904   -0.055623
     18          6           0       -3.135334    3.007304    0.038359
     19          6           0       -2.884543    4.389683    0.406574
     20          6           0       -4.117624    5.127753    0.207345
     21          6           0       -5.125020    4.024945    0.093082
     22          6           0       -1.575976    5.008720    0.650726
     23          6           0       -4.404762    6.637570    0.143438
     24          8           0       -5.503243    7.106041   -0.008810
     25          6           0       -3.371607    7.604090    0.331562
     26          7           0       -7.381624    1.798884    0.172248
     27          6           0       -7.623848    3.129913    0.236430
     28          6           0       -9.021340    3.396009    0.780607
     29          6           0       -9.736510    2.047230    0.197401
     30          6           0       -8.562161    1.068690    0.122464
     31          6           0       -9.172549    3.746128    2.259426
     32          6           0      -10.334191    2.210935   -1.215537
     33          6           0      -11.669344    3.006412   -1.393321
     34          7           0       -6.336769   -0.915634   -0.290165
     35          6           0       -7.647000   -1.292686   -0.222046
     36          6           0       -7.809746   -2.725548   -0.268371
     37          6           0       -6.474964   -3.242292   -0.290068
     38          6           0       -5.650942   -2.118416   -0.340256
     39          6           0       -9.093544   -3.398517   -0.486680
     40          6           0       -5.652105   -4.407949   -0.367821
     41          8           0       -5.946464   -5.596491   -0.305428
     42          6           0       -4.133510   -3.860534   -0.489837
     43          6           0       -3.492940   -4.744718    0.584044
     44          8           0       -3.408769   -4.449155    1.762263
     45          8           0       -2.983399   -5.877699    0.011328
     46          6           0       -2.407948   -6.856566    0.956024
     47          6           0        2.421221   -3.344672    0.852660
     48          6           0        3.640406   -2.446388    0.695703
     49          6           0        4.984672   -2.753361    0.449010
     50          6           0        5.473164   -4.124525   -0.055267
     51          6           0        6.082764   -1.649902    0.501542
     52          6           0        6.402936   -0.900421   -0.806641
     53          6           0        7.818183   -1.156048   -1.326793
     54          6           0        8.704607    0.153404   -1.340880
     55          6           0        9.715535    0.129618   -2.453495
     56          6           0        9.305635    0.630448    0.025548
     57          6           0       10.296602   -0.296391    0.689747
     58          6           0       10.656871    0.111306    2.170993
     59          6           0       12.195947    0.202567    2.347913
     60          6           0       12.507496    0.106376    3.797700
     61          6           0       12.724265    1.550350    1.712533
     62          6           0       13.673857    1.210370    0.438800
     63          6           0       13.458473    2.192003   -0.713543
     64          6           0       14.766723    2.768159   -1.424969
     65          6           0       15.044116    2.153479   -2.854864
     66          6           0       14.888852    4.297628   -1.403670
     67          1           0       -1.131346    2.417706   -0.004214
     68          1           0       -7.053933    5.086146    0.236339
     69          1           0       -9.717731   -0.701980   -0.106034
     70          1           0       -1.322143   -2.157871    0.546018
     71          1           0       -0.551933    0.102496   -1.315536
     72          1           0        0.516896   -0.824260    1.173192
     73          1           0       -0.427267    0.574663    1.669746
     74          1           0        0.841955    0.678054    0.481533
     75          1           0       -0.464777   -1.756615   -2.220869
     76          1           0       -2.071733   -2.548188   -2.316800
     77          1           0        0.244947   -3.903786   -2.456454
     78          1           0       -1.244060   -4.503132   -1.752481
     79          1           0       -1.461740    5.800560   -0.089592
     80          1           0       -0.771574    4.301517    0.446693
     81          1           0       -1.618098    5.456766    1.643007
     82          1           0       -2.871481    7.363108    1.270115
     83          1           0       -3.814595    8.597888    0.390329
     84          1           0       -2.853207    7.468545   -0.617494
     85          1           0       -9.352443    4.252640    0.192313
     86          1           0      -10.485463    1.682473    0.899626
     87          1           0       -9.982659    3.203334    2.746691
     88          1           0       -9.498668    4.784233    2.323530
     89          1           0       -8.227178    3.649229    2.792089
     90          1           0      -10.406629    1.306633   -1.819365
     91          1           0       -9.548706    2.776165   -1.718398
     92          1           0      -12.595170    2.456409   -1.218779
     93          1           0      -11.755344    3.338930   -2.427476
     94          1           0      -11.681677    3.892136   -0.758545
     95          1           0       -9.933566   -2.756249   -0.752362
     96          1           0       -9.231034   -3.833444    0.503729
     97          1           0       -8.892742   -4.192929   -1.205789
     98          1           0       -3.927524   -4.263614   -1.480787
     99          1           0       -1.808171   -6.393240    1.740128
    100          1           0       -1.854801   -7.464852    0.240862
    101          1           0       -3.147477   -7.472086    1.469273
    102          1           0        2.839834   -4.346473    0.950963
    103          1           0        1.826903   -3.186395    1.753594
    104          1           0        3.538853   -1.417556    1.041229
    105          1           0        6.143779   -4.445082    0.742189
    106          1           0        6.051994   -3.986510   -0.968184
    107          1           0        4.742525   -4.923945   -0.174349
    108          1           0        7.036600   -2.100472    0.773403
    109          1           0        5.798590   -0.839745    1.173799
    110          1           0        6.256247    0.165776   -0.630017
    111          1           0        5.612083   -1.231781   -1.479115
    112          1           0        7.507840   -1.362629   -2.351588
    113          1           0        8.451579   -1.960844   -0.953096
    114          1           0        8.058397    0.996569   -1.586507
    115          1           0       10.076373   -0.879474   -2.653466
    116          1           0       10.576887    0.767542   -2.260364
    117          1           0        9.327554    0.451562   -3.419880
    118          1           0        8.476970    0.741132    0.724436
    119          1           0        9.786634    1.608179    0.016197
    120          1           0       11.199799   -0.200418    0.086604
    121          1           0       10.009097   -1.345154    0.604624
    122          1           0       10.223089   -0.725246    2.718735
    123          1           0       10.199487    1.039270    2.513127
    124          1           0       12.581500   -0.711581    1.895546
    125          1           0       12.925744    1.016609    4.226845
    126          1           0       13.047936   -0.825676    3.964926
    127          1           0       11.567079   -0.075513    4.318314
    128          1           0       13.433977    2.079933    2.348103
    129          1           0       11.930461    2.233259    1.407847
    130          1           0       13.599156    0.152426    0.187595
    131          1           0       14.672273    1.300913    0.864403
    132          1           0       12.703018    2.941798   -0.479995
    133          1           0       12.951080    1.507081   -1.392602
    134          1           0       15.616893    2.462667   -0.815218
    135          1           0       16.116838    2.120083   -3.046948
    136          1           0       14.661281    2.881562   -3.570642
    137          1           0       14.476163    1.224007   -2.884116
    138          1           0       14.612442    4.649426   -0.409798
    139          1           0       14.148389    4.757821   -2.057763
    140          1           0       15.875220    4.687811   -1.658077
 ---------------------------------------------------------------------

 SCF Done:  E(RPBE1PBE) =  -3005.33202371     A.U. after   15 cycles

 Excitation energies and oscillator strengths:

 Excited State   1:      Singlet-A      1.8541 eV  668.70 nm  f=0.3549  <S**2>=0.000
     245 -> 248       -0.18316
     246 -> 247        0.69062
     246 <- 247       -0.10867
 This state for optimization and/or second-order correction.
 Total Energy, E(TD-HF/TD-DFT) =  -3005.26388637
 Copying the excited state density for this state as the 1-particle RhoCI density.

 Excited State   2:      Singlet-A      2.1765 eV  569.65 nm  f=0.1360  <S**2>=0.000
     245 -> 247        0.65794
     246 -> 248        0.25093

 Excited State   3:      Singlet-A      2.9316 eV  422.92 nm  f=0.0026  <S**2>=0.000
     244 -> 247        0.69350

 Excited State   4:      Singlet-A      2.9722 eV  417.14 nm  f=0.0014  <S**2>=0.000
     241 -> 247        0.17086
     242 -> 247        0.65670
     242 -> 249       -0.14752

 Excited State   5:      Singlet-A      3.0547 eV  405.88 nm  f=0.0002  <S**2>=0.000
     243 -> 247        0.68982

 The electronic state is 1-A.
 Alpha  occ. eigenvalues --  -46.93164 -19.26345 -19.23939 -19.20097 -19.18972
 Alpha  occ. eigenvalues --  -19.18185 -19.18084 -14.41726 -14.40884 -14.39045
 Alpha  occ. eigenvalues --  -14.39029 -10.36366 -10.34767 -10.31939 -10.31159
 Alpha  occ. eigenvalues --  -10.30541 -10.29158 -10.28817 -10.28760 -10.28698
 Alpha  occ. eigenvalues --  -10.27627 -10.27304 -10.27177 -10.27105 -10.26803
 Alpha  occ. eigenvalues --  -10.26662 -10.26496 -10.26128 -10.26001 -10.25889
 Alpha  occ. eigenvalues --  -10.25649 -10.25636 -10.25497 -10.25416 -10.24862
 Alpha  occ. eigenvalues --  -10.24773 -10.24697 -10.24660 -10.24468 -10.24311
 Alpha  occ. eigenvalues --  -10.24303 -10.24217 -10.24129 -10.24076 -10.23954
 Alpha  occ. eigenvalues --  -10.23921 -10.23825 -10.23680 -10.23577 -10.23560
 Alpha  occ. eigenvalues --  -10.23541 -10.23234 -10.23217 -10.23188 -10.23085
 Alpha  occ. eigenvalues --  -10.22903 -10.22798 -10.22733 -10.22718 -10.22699
 Alpha  occ. eigenvalues --  -10.22666 -10.22323 -10.22147 -10.21990 -10.21875
 Alpha  occ. eigenvalues --  -10.21171  -3.15041  -1.87876  -1.87391  -1.87285
 Alpha  occ. eigenvalues --   -1.10763  -1.09033  -1.05517  -1.04053  -1.02490
 Alpha  occ. eigenvalues --   -1.00769  -0.98488  -0.98039  -0.97264  -0.96746
 Alpha  occ. eigenvalues --   -0.86209  -0.84935  -0.83946  -0.83314  -0.82669
 Alpha  occ. eigenvalues --   -0.82463  -0.81822  -0.81757  -0.81493  -0.81307
 Alpha  occ. eigenvalues --   -0.81113  -0.79500  -0.78691  -0.77454  -0.77185
 Alpha  occ. eigenvalues --   -0.76899  -0.76305  -0.75808  -0.75259  -0.74817
 Alpha  occ. eigenvalues --   -0.73861  -0.72541  -0.71709  -0.71197  -0.70615
 Alpha  occ. eigenvalues --   -0.69886  -0.69582  -0.68953  -0.68945  -0.68575
 Alpha  occ. eigenvalues --   -0.67445  -0.66893  -0.65828  -0.64262  -0.63274
 Alpha  occ. eigenvalues --   -0.62685  -0.62522  -0.61465  -0.61111  -0.60387
 Alpha  occ. eigenvalues --   -0.60182  -0.59179  -0.58692  -0.58523  -0.58026
 Alpha  occ. eigenvalues --   -0.57841  -0.57379  -0.56324  -0.55251  -0.54341
 Alpha  occ. eigenvalues --   -0.53699  -0.53639  -0.53018  -0.52482  -0.52053
 Alpha  occ. eigenvalues --   -0.51229  -0.51071  -0.50590  -0.50108  -0.49491
 Alpha  occ. eigenvalues --   -0.49222  -0.48956  -0.48843  -0.48611  -0.48250
 Alpha  occ. eigenvalues --   -0.48123  -0.48072  -0.47906  -0.47676  -0.47243
 Alpha  occ. eigenvalues --   -0.47149  -0.46908  -0.46622  -0.46242  -0.45965
 Alpha  occ. eigenvalues --   -0.45693  -0.45671  -0.45596  -0.45288  -0.45180
 Alpha  occ. eigenvalues --   -0.45063  -0.44697  -0.44668  -0.44468  -0.44358
 Alpha  occ. eigenvalues --   -0.44177  -0.43885  -0.43781  -0.43543  -0.43104
 Alpha  occ. eigenvalues --   -0.42952  -0.42894  -0.42833  -0.42289  -0.42214
 Alpha  occ. eigenvalues --   -0.42010  -0.41844  -0.41724  -0.41616  -0.41536
 Alpha  occ. eigenvalues --   -0.41412  -0.41148  -0.40881  -0.40694  -0.40368
 Alpha  occ. eigenvalues --   -0.40230  -0.39926  -0.39776  -0.39417  -0.39372
 Alpha  occ. eigenvalues --   -0.39207  -0.39082  -0.38991  -0.38803  -0.38684
 Alpha  occ. eigenvalues --   -0.38427  -0.38074  -0.37829  -0.37705  -0.37536
 Alpha  occ. eigenvalues --   -0.37510  -0.37450  -0.37124  -0.36940  -0.36864
 Alpha  occ. eigenvalues --   -0.36699  -0.36534  -0.36201  -0.36023  -0.35953
 Alpha  occ. eigenvalues --   -0.35916  -0.35751  -0.35668  -0.35506  -0.35276
 Alpha  occ. eigenvalues --   -0.35117  -0.34296  -0.33965  -0.33932  -0.33676
 Alpha  occ. eigenvalues --   -0.33628  -0.32893  -0.32781  -0.32581  -0.32422
 Alpha  occ. eigenvalues --   -0.32159  -0.31976  -0.31854  -0.31602  -0.31329
 Alpha  occ. eigenvalues --   -0.30773  -0.29766  -0.29490  -0.29234  -0.29195
 Alpha  occ. eigenvalues --   -0.28574  -0.28425  -0.27359  -0.26279  -0.25901
 Alpha  occ. eigenvalues --   -0.25451  -0.25214  -0.25134  -0.24680  -0.20521
 Alpha  occ. eigenvalues --   -0.18622
 Alpha virt. eigenvalues --   -0.11048  -0.04905  -0.03645  -0.01728  -0.01576
 Alpha virt. eigenvalues --   -0.00426   0.00672   0.01587   0.02614   0.03293
 Alpha virt. eigenvalues --    0.04494   0.04769   0.04904   0.05159   0.05677

 Mulliken charges:
               1
     1  Mg   0.953382
     2  C    0.082381
     3  C   -0.055123
     4  C   -0.023722
     5  C   -0.081424
     6  N   -0.386692
     7  C    0.045048
     8  C   -0.076966
     9  C   -0.135664
    10  C    0.053928
    11  C   -0.003286
    12  C    0.001095
    13  C    0.011804
    14  C    0.201492
    15  O   -0.263484
    16  O   -0.365542
    17  N   -0.407865
    18  C    0.180281
    19  C   -0.219379
    20  C   -0.111195
    21  C    0.123610
    22  C    0.062576
    23  C    0.030819
    24  O   -0.227715
    25  C   -0.001115
    26  N   -0.365547
    27  C    0.019559
    28  C   -0.114789
    29  C   -0.116922
    30  C    0.078688
    31  C    0.053873
    32  C   -0.031531
    33  C   -0.050879
    34  N   -0.515646
    35  C    0.174611
    36  C   -0.199278
    37  C    0.027272
    38  C    0.118266
    39  C    0.075017
    40  C    0.061843
    41  O   -0.215644
    42  C   -0.195393
    43  C    0.293585
    44  O   -0.253330
    45  O   -0.366561
    46  C    0.133179
    47  C    0.223215
    48  C   -0.101594
    49  C   -0.220457
    50  C    0.005094
    51  C   -0.000788
    52  C   -0.038407
    53  C   -0.021676
    54  C   -0.188638
    55  C   -0.009518
    56  C   -0.025468
    57  C   -0.052411
    58  C   -0.015540
    59  C   -0.249799
    60  C    0.037920
    61  C   -0.003024
    62  C   -0.090390
    63  C   -0.023093
    64  C   -0.219482
    65  C   -0.018170
    66  C   -0.036216
    67  H   -0.002196
    68  H    0.022498
    69  H    0.000910
    70  H    0.083024
    71  H    0.060449
    72  H    0.040815
    73  H    0.058829
    74  H    0.034169
    75  H    0.043207
    76  H    0.052045
    77  H    0.055318
    78  H    0.058921
    79  H    0.050309
    80  H    0.035324
    81  H    0.066654
    82  H    0.059995
    83  H    0.054913
    84  H    0.065644
    85  H    0.042639
    86  H    0.027808
    87  H    0.041643
    88  H    0.040253
    89  H    0.058170
    90  H    0.040564
    91  H    0.033489
    92  H    0.041609
    93  H    0.041541
    94  H    0.036106
    95  H    0.048223
    96  H    0.068221
    97  H    0.069991
    98  H    0.079208
    99  H    0.074327
   100  H    0.051079
   101  H    0.052653
   102  H    0.049339
   103  H    0.070932
   104  H    0.017041
   105  H    0.050922
   106  H    0.057783
   107  H    0.051735
   108  H    0.033757
   109  H    0.037705
   110  H    0.037121
   111  H    0.039660
   112  H    0.035111
   113  H    0.043208
   114  H    0.025149
   115  H    0.025983
   116  H    0.033381
   117  H    0.030449
   118  H    0.015475
   119  H    0.028129
   120  H    0.024211
   121  H    0.021819
   122  H    0.028825
   123  H    0.031927
   124  H    0.035092
   125  H    0.034666
   126  H    0.029701
   127  H    0.012835
   128  H    0.039355
   129  H    0.036284
   130  H    0.037150
   131  H    0.027977
   132  H    0.029987
   133  H    0.037012
   134  H    0.036048
   135  H    0.040059
   136  H    0.029047
   137  H    0.043631
   138  H    0.032260
   139  H    0.030422
   140  H    0.041289
 Sum of Mulliken charges =  -0.00000

 Dipole moment (field-independent basis, Debye):
    X=              5.1211    Y=              3.0777    Z=             -2.3288  Tot=              6.4125
 Quadrupole moment (field-independent basis, Debye-Ang):
   XX=           -361.4107   YY=           -433.5362   ZZ=           -404.4196
   XY=            -15.7437   XZ=              9.8150   YZ=             11.0528

 Normal termination of Gaussian 16 at Sat Apr 30 11:32:50 2022.
