 Gaussian 16, Revision A.03,
 Gaussian 16:  ES64L-G16RevA.03 25-Dec-2016

 --------------------------------
 #p wB97XD/Def2SVP td=(nstates=5)
 --------------------------------

 ---------------------------------------------------
 step_701_chromophore_6 TDDFT with wB97XD functional
 ---------------------------------------------------
 Symbolic Z-matrix:
 Charge =  0 Multiplicity = 1

                         Standard orientation:
 ---------------------------------------------------------------------
 Center     Atomic      Atomic             Coordinates (Angstroms)
 Number     Number       Type             X           Y           Z
 ---------------------------------------------------------------------
      1         12           0       -5.404381    0.856120   -0.310700
      2          6           0       -4.229160   -2.347911   -0.297679
      3          6           0       -2.149309    2.025408    0.036458
      4          6           0       -6.622377    4.084321    0.169455
      5          6           0       -8.683935   -0.352944   -0.079158
      6          7           0       -3.406744   -0.126831   -0.014339
      7          6           0       -3.157734   -1.429259   -0.313734
      8          6           0       -1.591479   -1.656056   -0.383177
      9          6           0       -0.987925   -0.215218   -0.367809
     10          6           0       -2.236024    0.624220   -0.107494
     11          6           0        0.002221    0.064391    0.808084
     12          6           0       -1.178351   -2.403172   -1.710279
     13          6           0       -0.456527   -3.759243   -1.634097
     14          6           0        0.408667   -3.967267   -0.321617
     15          8           0        0.098062   -4.756386    0.554350
     16          8           0        1.563842   -3.261006   -0.412278
     17          7           0       -4.441215    2.844904   -0.055623
     18          6           0       -3.135334    3.007304    0.038359
     19          6           0       -2.884543    4.389683    0.406574
     20          6           0       -4.117624    5.127753    0.207345
     21          6           0       -5.125020    4.024945    0.093082
     22          6           0       -1.575976    5.008720    0.650726
     23          6           0       -4.404762    6.637570    0.143438
     24          8           0       -5.503243    7.106041   -0.008810
     25          6           0       -3.371607    7.604090    0.331562
     26          7           0       -7.381624    1.798884    0.172248
     27          6           0       -7.623848    3.129913    0.236430
     28          6           0       -9.021340    3.396009    0.780607
     29          6           0       -9.736510    2.047230    0.197401
     30          6           0       -8.562161    1.068690    0.122464
     31          6           0       -9.172549    3.746128    2.259426
     32          6           0      -10.334191    2.210935   -1.215537
     33          6           0      -11.669344    3.006412   -1.393321
     34          7           0       -6.336769   -0.915634   -0.290165
     35          6           0       -7.647000   -1.292686   -0.222046
     36          6           0       -7.809746   -2.725548   -0.268371
     37          6           0       -6.474964   -3.242292   -0.290068
     38          6           0       -5.650942   -2.118416   -0.340256
     39          6           0       -9.093544   -3.398517   -0.486680
     40          6           0       -5.652105   -4.407949   -0.367821
     41          8           0       -5.946464   -5.596491   -0.305428
     42          6           0       -4.133510   -3.860534   -0.489837
     43          6           0       -3.492940   -4.744718    0.584044
     44          8           0       -3.408769   -4.449155    1.762263
     45          8           0       -2.983399   -5.877699    0.011328
     46          6           0       -2.407948   -6.856566    0.956024
     47          6           0        2.421221   -3.344672    0.852660
     48          6           0        3.640406   -2.446388    0.695703
     49          6           0        4.984672   -2.753361    0.449010
     50          6           0        5.473164   -4.124525   -0.055267
     51          6           0        6.082764   -1.649902    0.501542
     52          6           0        6.402936   -0.900421   -0.806641
     53          6           0        7.818183   -1.156048   -1.326793
     54          6           0        8.704607    0.153404   -1.340880
     55          6           0        9.715535    0.129618   -2.453495
     56          6           0        9.305635    0.630448    0.025548
     57          6           0       10.296602   -0.296391    0.689747
     58          6           0       10.656871    0.111306    2.170993
     59          6           0       12.195947    0.202567    2.347913
     60          6           0       12.507496    0.106376    3.797700
     61          6           0       12.724265    1.550350    1.712533
     62          6           0       13.673857    1.210370    0.438800
     63          6           0       13.458473    2.192003   -0.713543
     64          6           0       14.766723    2.768159   -1.424969
     65          6           0       15.044116    2.153479   -2.854864
     66          6           0       14.888852    4.297628   -1.403670
     67          1           0       -1.131346    2.417706   -0.004214
     68          1           0       -7.053933    5.086146    0.236339
     69          1           0       -9.717731   -0.701980   -0.106034
     70          1           0       -1.322143   -2.157871    0.546018
     71          1           0       -0.551933    0.102496   -1.315536
     72          1           0        0.516896   -0.824260    1.173192
     73          1           0       -0.427267    0.574663    1.669746
     74          1           0        0.841955    0.678054    0.481533
     75          1           0       -0.464777   -1.756615   -2.220869
     76          1           0       -2.071733   -2.548188   -2.316800
     77          1           0        0.244947   -3.903786   -2.456454
     78          1           0       -1.244060   -4.503132   -1.752481
     79          1           0       -1.461740    5.800560   -0.089592
     80          1           0       -0.771574    4.301517    0.446693
     81          1           0       -1.618098    5.456766    1.643007
     82          1           0       -2.871481    7.363108    1.270115
     83          1           0       -3.814595    8.597888    0.390329
     84          1           0       -2.853207    7.468545   -0.617494
     85          1           0       -9.352443    4.252640    0.192313
     86          1           0      -10.485463    1.682473    0.899626
     87          1           0       -9.982659    3.203334    2.746691
     88          1           0       -9.498668    4.784233    2.323530
     89          1           0       -8.227178    3.649229    2.792089
     90          1           0      -10.406629    1.306633   -1.819365
     91          1           0       -9.548706    2.776165   -1.718398
     92          1           0      -12.595170    2.456409   -1.218779
     93          1           0      -11.755344    3.338930   -2.427476
     94          1           0      -11.681677    3.892136   -0.758545
     95          1           0       -9.933566   -2.756249   -0.752362
     96          1           0       -9.231034   -3.833444    0.503729
     97          1           0       -8.892742   -4.192929   -1.205789
     98          1           0       -3.927524   -4.263614   -1.480787
     99          1           0       -1.808171   -6.393240    1.740128
    100          1           0       -1.854801   -7.464852    0.240862
    101          1           0       -3.147477   -7.472086    1.469273
    102          1           0        2.839834   -4.346473    0.950963
    103          1           0        1.826903   -3.186395    1.753594
    104          1           0        3.538853   -1.417556    1.041229
    105          1           0        6.143779   -4.445082    0.742189
    106          1           0        6.051994   -3.986510   -0.968184
    107          1           0        4.742525   -4.923945   -0.174349
    108          1           0        7.036600   -2.100472    0.773403
    109          1           0        5.798590   -0.839745    1.173799
    110          1           0        6.256247    0.165776   -0.630017
    111          1           0        5.612083   -1.231781   -1.479115
    112          1           0        7.507840   -1.362629   -2.351588
    113          1           0        8.451579   -1.960844   -0.953096
    114          1           0        8.058397    0.996569   -1.586507
    115          1           0       10.076373   -0.879474   -2.653466
    116          1           0       10.576887    0.767542   -2.260364
    117          1           0        9.327554    0.451562   -3.419880
    118          1           0        8.476970    0.741132    0.724436
    119          1           0        9.786634    1.608179    0.016197
    120          1           0       11.199799   -0.200418    0.086604
    121          1           0       10.009097   -1.345154    0.604624
    122          1           0       10.223089   -0.725246    2.718735
    123          1           0       10.199487    1.039270    2.513127
    124          1           0       12.581500   -0.711581    1.895546
    125          1           0       12.925744    1.016609    4.226845
    126          1           0       13.047936   -0.825676    3.964926
    127          1           0       11.567079   -0.075513    4.318314
    128          1           0       13.433977    2.079933    2.348103
    129          1           0       11.930461    2.233259    1.407847
    130          1           0       13.599156    0.152426    0.187595
    131          1           0       14.672273    1.300913    0.864403
    132          1           0       12.703018    2.941798   -0.479995
    133          1           0       12.951080    1.507081   -1.392602
    134          1           0       15.616893    2.462667   -0.815218
    135          1           0       16.116838    2.120083   -3.046948
    136          1           0       14.661281    2.881562   -3.570642
    137          1           0       14.476163    1.224007   -2.884116
    138          1           0       14.612442    4.649426   -0.409798
    139          1           0       14.148389    4.757821   -2.057763
    140          1           0       15.875220    4.687811   -1.658077
 ---------------------------------------------------------------------

 SCF Done:  E(RwB97XD) =  -3007.84267561     A.U. after   20 cycles

 Excitation energies and oscillator strengths:

 Excited State   1:      Singlet-A      1.6249 eV  763.01 nm  f=0.3687  <S**2>=0.000
     245 -> 248       -0.19470
     246 -> 247        0.68064
     245 <- 248       -0.12200
 This state for optimization and/or second-order correction.
 Total Energy, E(TD-HF/TD-DFT) =  -3007.78296047
 Copying the excited state density for this state as the 1-particle RhoCI density.

 Excited State   2:      Singlet-A      2.0983 eV  590.88 nm  f=0.1355  <S**2>=0.000
     245 -> 247        0.64548
     246 -> 248        0.27623
     246 <- 248        0.10247

 Excited State   3:      Singlet-A      3.3638 eV  368.58 nm  f=0.0018  <S**2>=0.000
     243 -> 247       -0.10585
     244 -> 247        0.66276

 Excited State   4:      Singlet-A      3.4884 eV  355.42 nm  f=0.1279  <S**2>=0.000
     239 -> 247       -0.13175
     241 -> 247        0.12340
     243 -> 247        0.53896
     245 -> 247        0.10876
     246 -> 248       -0.37830

 Excited State   5:      Singlet-A      3.5274 eV  351.49 nm  f=0.0309  <S**2>=0.000
     241 -> 247        0.44291
     241 -> 249       -0.25926
     241 -> 250       -0.16695
     242 -> 247        0.28933
     242 -> 249       -0.16047
     243 -> 247       -0.19718

 The electronic state is 1-A.
 Alpha  occ. eigenvalues --  -46.96110 -19.30918 -19.28495 -19.24750 -19.23771
 Alpha  occ. eigenvalues --  -19.22896 -19.22891 -14.46810 -14.45978 -14.44002
 Alpha  occ. eigenvalues --  -14.43985 -10.43140 -10.41600 -10.38782 -10.37996
 Alpha  occ. eigenvalues --  -10.37113 -10.35471 -10.35178 -10.35017 -10.35008
 Alpha  occ. eigenvalues --  -10.33936 -10.33662 -10.33481 -10.33434 -10.33185
 Alpha  occ. eigenvalues --  -10.33177 -10.32775 -10.32471 -10.32381 -10.32212
 Alpha  occ. eigenvalues --  -10.32136 -10.31839 -10.31839 -10.31720 -10.31247
 Alpha  occ. eigenvalues --  -10.31148 -10.31125 -10.31046 -10.30906 -10.30769
 Alpha  occ. eigenvalues --  -10.30715 -10.30624 -10.30507 -10.30478 -10.30376
 Alpha  occ. eigenvalues --  -10.30210 -10.30100 -10.30071 -10.29974 -10.29938
 Alpha  occ. eigenvalues --  -10.29928 -10.29563 -10.29562 -10.29483 -10.29401
 Alpha  occ. eigenvalues --  -10.29290 -10.29246 -10.29145 -10.29096 -10.29081
 Alpha  occ. eigenvalues --  -10.29075 -10.28723 -10.28571 -10.28427 -10.28321
 Alpha  occ. eigenvalues --  -10.27593  -3.21883  -1.95461  -1.94978  -1.94861
 Alpha  occ. eigenvalues --   -1.18147  -1.16432  -1.12985  -1.11533  -1.09824
 Alpha  occ. eigenvalues --   -1.08132  -1.05873  -1.05400  -1.04679  -1.04138
 Alpha  occ. eigenvalues --   -0.93839  -0.92625  -0.91627  -0.90949  -0.90338
 Alpha  occ. eigenvalues --   -0.90113  -0.89477  -0.89379  -0.89159  -0.88925
 Alpha  occ. eigenvalues --   -0.88748  -0.87169  -0.86354  -0.85128  -0.84862
 Alpha  occ. eigenvalues --   -0.84582  -0.83948  -0.83469  -0.82899  -0.82475
 Alpha  occ. eigenvalues --   -0.81478  -0.80178  -0.79369  -0.78806  -0.78304
 Alpha  occ. eigenvalues --   -0.77488  -0.77284  -0.76627  -0.76549  -0.76239
 Alpha  occ. eigenvalues --   -0.75067  -0.74434  -0.73386  -0.71880  -0.70834
 Alpha  occ. eigenvalues --   -0.70237  -0.70162  -0.69049  -0.68759  -0.68041
 Alpha  occ. eigenvalues --   -0.67698  -0.66696  -0.66161  -0.65926  -0.65705
 Alpha  occ. eigenvalues --   -0.65302  -0.65019  -0.63923  -0.62677  -0.61877
 Alpha  occ. eigenvalues --   -0.61129  -0.61082  -0.60429  -0.59843  -0.59461
 Alpha  occ. eigenvalues --   -0.58790  -0.58631  -0.57986  -0.57551  -0.56936
 Alpha  occ. eigenvalues --   -0.56617  -0.56440  -0.56295  -0.56129  -0.55684
 Alpha  occ. eigenvalues --   -0.55562  -0.55487  -0.55332  -0.55070  -0.54621
 Alpha  occ. eigenvalues --   -0.54555  -0.54258  -0.53954  -0.53590  -0.53344
 Alpha  occ. eigenvalues --   -0.53107  -0.52996  -0.52962  -0.52674  -0.52541
 Alpha  occ. eigenvalues --   -0.52420  -0.52032  -0.51996  -0.51792  -0.51709
 Alpha  occ. eigenvalues --   -0.51511  -0.51182  -0.51080  -0.50826  -0.50415
 Alpha  occ. eigenvalues --   -0.50309  -0.50197  -0.50143  -0.49590  -0.49462
 Alpha  occ. eigenvalues --   -0.49258  -0.49060  -0.48956  -0.48868  -0.48795
 Alpha  occ. eigenvalues --   -0.48645  -0.48351  -0.48112  -0.47862  -0.47507
 Alpha  occ. eigenvalues --   -0.47416  -0.47071  -0.46975  -0.46626  -0.46572
 Alpha  occ. eigenvalues --   -0.46406  -0.46253  -0.46144  -0.45952  -0.45834
 Alpha  occ. eigenvalues --   -0.45571  -0.45231  -0.44959  -0.44833  -0.44655
 Alpha  occ. eigenvalues --   -0.44640  -0.44504  -0.44245  -0.44069  -0.44010
 Alpha  occ. eigenvalues --   -0.43898  -0.43692  -0.43298  -0.43161  -0.43034
 Alpha  occ. eigenvalues --   -0.42965  -0.42835  -0.42678  -0.42530  -0.42308
 Alpha  occ. eigenvalues --   -0.42120  -0.41291  -0.41003  -0.40907  -0.40718
 Alpha  occ. eigenvalues --   -0.40656  -0.39809  -0.39794  -0.39513  -0.39468
 Alpha  occ. eigenvalues --   -0.39222  -0.39039  -0.38885  -0.38670  -0.38210
 Alpha  occ. eigenvalues --   -0.37810  -0.36855  -0.36378  -0.36067  -0.35981
 Alpha  occ. eigenvalues --   -0.35619  -0.35161  -0.34421  -0.32892  -0.32587
 Alpha  occ. eigenvalues --   -0.32331  -0.32228  -0.31906  -0.31384  -0.25447
 Alpha  occ. eigenvalues --   -0.22800
 Alpha virt. eigenvalues --   -0.07009   0.00472   0.02635   0.04745   0.05036
 Alpha virt. eigenvalues --    0.05501   0.07444   0.08425   0.09327   0.09758
 Alpha virt. eigenvalues --    0.11110   0.11296   0.11745   0.11934   0.12398

 Mulliken charges:
               1
     1  Mg   0.947338
     2  C    0.072928
     3  C   -0.073139
     4  C   -0.033973
     5  C   -0.098738
     6  N   -0.358219
     7  C    0.018300
     8  C   -0.053816
     9  C   -0.109911
    10  C    0.043202
    11  C    0.011842
    12  C    0.011912
    13  C    0.031208
    14  C    0.187938
    15  O   -0.259714
    16  O   -0.365072
    17  N   -0.373109
    18  C    0.168836
    19  C   -0.208120
    20  C   -0.105837
    21  C    0.110203
    22  C    0.077108
    23  C    0.029790
    24  O   -0.222386
    25  C    0.010505
    26  N   -0.336989
    27  C    0.005221
    28  C   -0.090038
    29  C   -0.084596
    30  C    0.061170
    31  C    0.060948
    32  C   -0.018742
    33  C   -0.034819
    34  N   -0.482156
    35  C    0.168774
    36  C   -0.191461
    37  C    0.024192
    38  C    0.112483
    39  C    0.085031
    40  C    0.045835
    41  O   -0.207599
    42  C   -0.156846
    43  C    0.269093
    44  O   -0.246830
    45  O   -0.363943
    46  C    0.145617
    47  C    0.238288
    48  C   -0.111681
    49  C   -0.203461
    50  C    0.017777
    51  C    0.018758
    52  C   -0.025196
    53  C   -0.008361
    54  C   -0.155346
    55  C    0.003817
    56  C   -0.007258
    57  C   -0.027958
    58  C   -0.002317
    59  C   -0.214482
    60  C    0.047471
    61  C    0.008306
    62  C   -0.073580
    63  C   -0.001507
    64  C   -0.192769
    65  C   -0.002936
    66  C   -0.023060
    67  H   -0.012911
    68  H    0.017608
    69  H   -0.004832
    70  H    0.071510
    71  H    0.051566
    72  H    0.029795
    73  H    0.052763
    74  H    0.028422
    75  H    0.035594
    76  H    0.043764
    77  H    0.050743
    78  H    0.049224
    79  H    0.042877
    80  H    0.031741
    81  H    0.061605
    82  H    0.054231
    83  H    0.054212
    84  H    0.059756
    85  H    0.030702
    86  H    0.018922
    87  H    0.036337
    88  H    0.035228
    89  H    0.052846
    90  H    0.032843
    91  H    0.022264
    92  H    0.035823
    93  H    0.035868
    94  H    0.028646
    95  H    0.043938
    96  H    0.062689
    97  H    0.065674
    98  H    0.070728
    99  H    0.071130
   100  H    0.048558
   101  H    0.049296
   102  H    0.042827
   103  H    0.068383
   104  H    0.012635
   105  H    0.044263
   106  H    0.051477
   107  H    0.047518
   108  H    0.021918
   109  H    0.031282
   110  H    0.029107
   111  H    0.030809
   112  H    0.026904
   113  H    0.033649
   114  H    0.013240
   115  H    0.019361
   116  H    0.024123
   117  H    0.025616
   118  H    0.003738
   119  H    0.017126
   120  H    0.002683
   121  H    0.012501
   122  H    0.020313
   123  H    0.023224
   124  H    0.022249
   125  H    0.029449
   126  H    0.024971
   127  H    0.005691
   128  H    0.031168
   129  H    0.024699
   130  H    0.029152
   131  H    0.018763
   132  H    0.021457
   133  H    0.020166
   134  H    0.023299
   135  H    0.035071
   136  H    0.021693
   137  H    0.037399
   138  H    0.025414
   139  H    0.023131
   140  H    0.036444
 Sum of Mulliken charges =  -0.00000

 Dipole moment (field-independent basis, Debye):
    X=              5.2298    Y=              3.1389    Z=             -2.3610  Tot=              6.5405
 Quadrupole moment (field-independent basis, Debye-Ang):
   XX=           -362.8125   YY=           -432.1245   ZZ=           -403.9580
   XY=            -15.4282   XZ=              9.9836   YZ=             11.1769

 Normal termination of Gaussian 16 at Sat Apr 30 11:56:39 2022.
