 Gaussian 16, Revision A.03,
 Gaussian 16:  ES64L-G16RevA.03 25-Dec-2016

 --------------------
 #p ZINDO=(nstates=5)
 --------------------

 ----------------------------
 step_701_chromophore_6 ZINDO
 ----------------------------
 Symbolic Z-matrix:
 Charge =  0 Multiplicity = 1

                         Standard orientation:
 ---------------------------------------------------------------------
 Center     Atomic      Atomic             Coordinates (Angstroms)
 Number     Number       Type             X           Y           Z
 ---------------------------------------------------------------------
      1         12           0       -5.404381    0.856120   -0.310700
      2          6           0       -4.229160   -2.347911   -0.297679
      3          6           0       -2.149309    2.025408    0.036458
      4          6           0       -6.622377    4.084321    0.169455
      5          6           0       -8.683935   -0.352944   -0.079158
      6          7           0       -3.406744   -0.126831   -0.014339
      7          6           0       -3.157734   -1.429259   -0.313734
      8          6           0       -1.591479   -1.656056   -0.383177
      9          6           0       -0.987925   -0.215218   -0.367809
     10          6           0       -2.236024    0.624220   -0.107494
     11          6           0        0.002221    0.064391    0.808084
     12          6           0       -1.178351   -2.403172   -1.710279
     13          6           0       -0.456527   -3.759243   -1.634097
     14          6           0        0.408667   -3.967267   -0.321617
     15          8           0        0.098062   -4.756386    0.554350
     16          8           0        1.563842   -3.261006   -0.412278
     17          7           0       -4.441215    2.844904   -0.055623
     18          6           0       -3.135334    3.007304    0.038359
     19          6           0       -2.884543    4.389683    0.406574
     20          6           0       -4.117624    5.127753    0.207345
     21          6           0       -5.125020    4.024945    0.093082
     22          6           0       -1.575976    5.008720    0.650726
     23          6           0       -4.404762    6.637570    0.143438
     24          8           0       -5.503243    7.106041   -0.008810
     25          6           0       -3.371607    7.604090    0.331562
     26          7           0       -7.381624    1.798884    0.172248
     27          6           0       -7.623848    3.129913    0.236430
     28          6           0       -9.021340    3.396009    0.780607
     29          6           0       -9.736510    2.047230    0.197401
     30          6           0       -8.562161    1.068690    0.122464
     31          6           0       -9.172549    3.746128    2.259426
     32          6           0      -10.334191    2.210935   -1.215537
     33          6           0      -11.669344    3.006412   -1.393321
     34          7           0       -6.336769   -0.915634   -0.290165
     35          6           0       -7.647000   -1.292686   -0.222046
     36          6           0       -7.809746   -2.725548   -0.268371
     37          6           0       -6.474964   -3.242292   -0.290068
     38          6           0       -5.650942   -2.118416   -0.340256
     39          6           0       -9.093544   -3.398517   -0.486680
     40          6           0       -5.652105   -4.407949   -0.367821
     41          8           0       -5.946464   -5.596491   -0.305428
     42          6           0       -4.133510   -3.860534   -0.489837
     43          6           0       -3.492940   -4.744718    0.584044
     44          8           0       -3.408769   -4.449155    1.762263
     45          8           0       -2.983399   -5.877699    0.011328
     46          6           0       -2.407948   -6.856566    0.956024
     47          6           0        2.421221   -3.344672    0.852660
     48          6           0        3.640406   -2.446388    0.695703
     49          6           0        4.984672   -2.753361    0.449010
     50          6           0        5.473164   -4.124525   -0.055267
     51          6           0        6.082764   -1.649902    0.501542
     52          6           0        6.402936   -0.900421   -0.806641
     53          6           0        7.818183   -1.156048   -1.326793
     54          6           0        8.704607    0.153404   -1.340880
     55          6           0        9.715535    0.129618   -2.453495
     56          6           0        9.305635    0.630448    0.025548
     57          6           0       10.296602   -0.296391    0.689747
     58          6           0       10.656871    0.111306    2.170993
     59          6           0       12.195947    0.202567    2.347913
     60          6           0       12.507496    0.106376    3.797700
     61          6           0       12.724265    1.550350    1.712533
     62          6           0       13.673857    1.210370    0.438800
     63          6           0       13.458473    2.192003   -0.713543
     64          6           0       14.766723    2.768159   -1.424969
     65          6           0       15.044116    2.153479   -2.854864
     66          6           0       14.888852    4.297628   -1.403670
     67          1           0       -1.131346    2.417706   -0.004214
     68          1           0       -7.053933    5.086146    0.236339
     69          1           0       -9.717731   -0.701980   -0.106034
     70          1           0       -1.322143   -2.157871    0.546018
     71          1           0       -0.551933    0.102496   -1.315536
     72          1           0        0.516896   -0.824260    1.173192
     73          1           0       -0.427267    0.574663    1.669746
     74          1           0        0.841955    0.678054    0.481533
     75          1           0       -0.464777   -1.756615   -2.220869
     76          1           0       -2.071733   -2.548188   -2.316800
     77          1           0        0.244947   -3.903786   -2.456454
     78          1           0       -1.244060   -4.503132   -1.752481
     79          1           0       -1.461740    5.800560   -0.089592
     80          1           0       -0.771574    4.301517    0.446693
     81          1           0       -1.618098    5.456766    1.643007
     82          1           0       -2.871481    7.363108    1.270115
     83          1           0       -3.814595    8.597888    0.390329
     84          1           0       -2.853207    7.468545   -0.617494
     85          1           0       -9.352443    4.252640    0.192313
     86          1           0      -10.485463    1.682473    0.899626
     87          1           0       -9.982659    3.203334    2.746691
     88          1           0       -9.498668    4.784233    2.323530
     89          1           0       -8.227178    3.649229    2.792089
     90          1           0      -10.406629    1.306633   -1.819365
     91          1           0       -9.548706    2.776165   -1.718398
     92          1           0      -12.595170    2.456409   -1.218779
     93          1           0      -11.755344    3.338930   -2.427476
     94          1           0      -11.681677    3.892136   -0.758545
     95          1           0       -9.933566   -2.756249   -0.752362
     96          1           0       -9.231034   -3.833444    0.503729
     97          1           0       -8.892742   -4.192929   -1.205789
     98          1           0       -3.927524   -4.263614   -1.480787
     99          1           0       -1.808171   -6.393240    1.740128
    100          1           0       -1.854801   -7.464852    0.240862
    101          1           0       -3.147477   -7.472086    1.469273
    102          1           0        2.839834   -4.346473    0.950963
    103          1           0        1.826903   -3.186395    1.753594
    104          1           0        3.538853   -1.417556    1.041229
    105          1           0        6.143779   -4.445082    0.742189
    106          1           0        6.051994   -3.986510   -0.968184
    107          1           0        4.742525   -4.923945   -0.174349
    108          1           0        7.036600   -2.100472    0.773403
    109          1           0        5.798590   -0.839745    1.173799
    110          1           0        6.256247    0.165776   -0.630017
    111          1           0        5.612083   -1.231781   -1.479115
    112          1           0        7.507840   -1.362629   -2.351588
    113          1           0        8.451579   -1.960844   -0.953096
    114          1           0        8.058397    0.996569   -1.586507
    115          1           0       10.076373   -0.879474   -2.653466
    116          1           0       10.576887    0.767542   -2.260364
    117          1           0        9.327554    0.451562   -3.419880
    118          1           0        8.476970    0.741132    0.724436
    119          1           0        9.786634    1.608179    0.016197
    120          1           0       11.199799   -0.200418    0.086604
    121          1           0       10.009097   -1.345154    0.604624
    122          1           0       10.223089   -0.725246    2.718735
    123          1           0       10.199487    1.039270    2.513127
    124          1           0       12.581500   -0.711581    1.895546
    125          1           0       12.925744    1.016609    4.226845
    126          1           0       13.047936   -0.825676    3.964926
    127          1           0       11.567079   -0.075513    4.318314
    128          1           0       13.433977    2.079933    2.348103
    129          1           0       11.930461    2.233259    1.407847
    130          1           0       13.599156    0.152426    0.187595
    131          1           0       14.672273    1.300913    0.864403
    132          1           0       12.703018    2.941798   -0.479995
    133          1           0       12.951080    1.507081   -1.392602
    134          1           0       15.616893    2.462667   -0.815218
    135          1           0       16.116838    2.120083   -3.046948
    136          1           0       14.661281    2.881562   -3.570642
    137          1           0       14.476163    1.224007   -2.884116
    138          1           0       14.612442    4.649426   -0.409798
    139          1           0       14.148389    4.757821   -2.057763
    140          1           0       15.875220    4.687811   -1.658077
 ---------------------------------------------------------------------

 SCF Done:  E(RZINDO/S) =  -473.984498221     A.U. after   20 cycles

 Excitation energies and oscillator strengths:

 Excited State   1:      Singlet-A      1.2194 eV 1016.75 nm  f=0.6064  <S**2>=0.000
     175 ->178        -0.19938
     176 ->177         0.65933
 This state for optimization and/or second-order correction.
 Total Energy, E(CIS/TDA) =  -473.939685414
 Copying the excited state density for this state as the 1-particle RhoCI density.

 Excited State   2:      Singlet-A      1.8593 eV  666.82 nm  f=0.0635  <S**2>=0.000
     175 ->177         0.56341
     176 ->178         0.39911

 Excited State   3:      Singlet-A      2.9313 eV  422.97 nm  f=0.0017  <S**2>=0.000
     168 ->177         0.12499
     168 ->179         0.15518
     168 ->180         0.17008
     168 ->186         0.11148
     169 ->179        -0.13736
     169 ->180        -0.12852
     170 ->177         0.20456
     170 ->179         0.25121
     170 ->180         0.27310
     170 ->186         0.17109
     173 ->177        -0.14266
     174 ->177         0.11073

 Excited State   4:      Singlet-A      2.9636 eV  418.36 nm  f=0.7545  <S**2>=0.000
     172 ->177         0.10219
     175 ->177        -0.30393
     176 ->178         0.48675
     176 ->179         0.32798

 Excited State   5:      Singlet-A      3.0045 eV  412.66 nm  f=0.0531  <S**2>=0.000
     168 ->177         0.12799
     168 ->179        -0.16541
     168 ->180         0.10864
     169 ->177         0.30038
     169 ->178        -0.17374
     169 ->179        -0.32928
     169 ->180         0.26504
     169 ->186        -0.13134
     169 ->187        -0.14428
     176 ->178        -0.10073

 The electronic state is 1-A.
 Alpha  occ. eigenvalues --   -1.83096  -1.79613  -1.78490  -1.71726  -1.71111
 Alpha  occ. eigenvalues --   -1.69302  -1.65848  -1.62868  -1.59883  -1.57230
 Alpha  occ. eigenvalues --   -1.53639  -1.50168  -1.47349  -1.46541  -1.44701
 Alpha  occ. eigenvalues --   -1.43499  -1.42774  -1.40169  -1.38786  -1.36891
 Alpha  occ. eigenvalues --   -1.36335  -1.35177  -1.34292  -1.31744  -1.29813
 Alpha  occ. eigenvalues --   -1.27950  -1.23813  -1.22096  -1.20125  -1.17606
 Alpha  occ. eigenvalues --   -1.16530  -1.15486  -1.14948  -1.14175  -1.12686
 Alpha  occ. eigenvalues --   -1.12022  -1.11219  -1.09035  -1.04765  -1.02822
 Alpha  occ. eigenvalues --   -1.01467  -1.00969  -0.98633  -0.97855  -0.97198
 Alpha  occ. eigenvalues --   -0.94937  -0.94161  -0.93901  -0.92858  -0.92005
 Alpha  occ. eigenvalues --   -0.90936  -0.90351  -0.89165  -0.88352  -0.86258
 Alpha  occ. eigenvalues --   -0.84691  -0.83906  -0.83197  -0.80467  -0.79751
 Alpha  occ. eigenvalues --   -0.79242  -0.78219  -0.76715  -0.76125  -0.75860
 Alpha  occ. eigenvalues --   -0.75318  -0.75183  -0.74758  -0.74303  -0.73892
 Alpha  occ. eigenvalues --   -0.72911  -0.72401  -0.71602  -0.71508  -0.70630
 Alpha  occ. eigenvalues --   -0.70215  -0.69742  -0.68978  -0.68586  -0.67623
 Alpha  occ. eigenvalues --   -0.67536  -0.66743  -0.66323  -0.66196  -0.65708
 Alpha  occ. eigenvalues --   -0.65034  -0.64739  -0.64355  -0.63706  -0.63443
 Alpha  occ. eigenvalues --   -0.63228  -0.63089  -0.62642  -0.62170  -0.61665
 Alpha  occ. eigenvalues --   -0.61594  -0.61025  -0.60671  -0.60487  -0.59884
 Alpha  occ. eigenvalues --   -0.59779  -0.59162  -0.58421  -0.58210  -0.57948
 Alpha  occ. eigenvalues --   -0.57397  -0.57214  -0.57075  -0.56952  -0.56843
 Alpha  occ. eigenvalues --   -0.56475  -0.55917  -0.55874  -0.54854  -0.54585
 Alpha  occ. eigenvalues --   -0.54350  -0.53713  -0.53414  -0.53185  -0.52903
 Alpha  occ. eigenvalues --   -0.52521  -0.51926  -0.51863  -0.51679  -0.51550
 Alpha  occ. eigenvalues --   -0.51267  -0.50822  -0.50572  -0.50321  -0.50224
 Alpha  occ. eigenvalues --   -0.50036  -0.49798  -0.49587  -0.49246  -0.48987
 Alpha  occ. eigenvalues --   -0.48890  -0.48536  -0.48220  -0.47978  -0.47604
 Alpha  occ. eigenvalues --   -0.47562  -0.47279  -0.46986  -0.46544  -0.46226
 Alpha  occ. eigenvalues --   -0.46060  -0.45614  -0.45400  -0.45323  -0.45264
 Alpha  occ. eigenvalues --   -0.44715  -0.44596  -0.44494  -0.44233  -0.44108
 Alpha  occ. eigenvalues --   -0.43530  -0.42805  -0.42780  -0.42487  -0.42470
 Alpha  occ. eigenvalues --   -0.42285  -0.41699  -0.40352  -0.38711  -0.38381
 Alpha  occ. eigenvalues --   -0.36996  -0.36823  -0.34577  -0.34502  -0.34158
 Alpha  occ. eigenvalues --   -0.32609  -0.32453  -0.32262  -0.31467  -0.26172
 Alpha  occ. eigenvalues --   -0.21476
 Alpha virt. eigenvalues --   -0.08517  -0.01831  -0.00109   0.01575   0.01950
 Alpha virt. eigenvalues --    0.02133   0.02829   0.03353   0.04141   0.05420
 Alpha virt. eigenvalues --    0.06435   0.07088   0.07594   0.07771   0.08364

 Mulliken charges:
               1
     1  Mg   0.428058
     2  C   -0.047545
     3  C   -0.084564
     4  C   -0.068819
     5  C   -0.075155
     6  N   -0.284426
     7  C    0.121094
     8  C    0.011721
     9  C    0.006219
    10  C    0.126600
    11  C   -0.051099
    12  C   -0.024959
    13  C    0.000130
    14  C    0.465005
    15  O   -0.509031
    16  O   -0.266507
    17  N   -0.308442
    18  C    0.123281
    19  C    0.005531
    20  C   -0.069628
    21  C    0.127730
    22  C   -0.044846
    23  C    0.339942
    24  O   -0.530974
    25  C   -0.026245
    26  N   -0.284002
    27  C    0.137669
    28  C    0.006947
    29  C    0.011002
    30  C    0.117795
    31  C   -0.040421
    32  C   -0.025518
    33  C   -0.059062
    34  N   -0.328144
    35  C    0.104915
    36  C    0.039673
    37  C   -0.055096
    38  C    0.115095
    39  C   -0.036865
    40  C    0.331768
    41  O   -0.524613
    42  C    0.038813
    43  C    0.493264
    44  O   -0.527777
    45  O   -0.266199
    46  C    0.076258
    47  C    0.107996
    48  C   -0.106074
    49  C    0.003654
    50  C   -0.042912
    51  C   -0.026418
    52  C   -0.028329
    53  C   -0.034160
    54  C   -0.009848
    55  C   -0.052576
    56  C   -0.029304
    57  C   -0.044177
    58  C   -0.038575
    59  C   -0.008125
    60  C   -0.060005
    61  C   -0.044598
    62  C   -0.045175
    63  C   -0.035628
    64  C   -0.016700
    65  C   -0.062092
    66  C   -0.052677
    67  H    0.021151
    68  H    0.034589
    69  H    0.026232
    70  H    0.057073
    71  H    0.040173
    72  H    0.019943
    73  H    0.030606
    74  H    0.011521
    75  H    0.020946
    76  H    0.026222
    77  H    0.035064
    78  H    0.039510
    79  H    0.024505
    80  H    0.027330
    81  H    0.039641
    82  H    0.039670
    83  H    0.038270
    84  H    0.049761
    85  H    0.023334
    86  H    0.024911
    87  H    0.022608
    88  H    0.018744
    89  H    0.031902
    90  H    0.024582
    91  H    0.016819
    92  H    0.020655
    93  H    0.015977
    94  H    0.019501
    95  H    0.032248
    96  H    0.041293
    97  H    0.038268
    98  H    0.059164
    99  H    0.057441
   100  H    0.028992
   101  H    0.043024
   102  H    0.043313
   103  H    0.059527
   104  H    0.019089
   105  H    0.024699
   106  H    0.029903
   107  H    0.030910
   108  H    0.025039
   109  H    0.022444
   110  H    0.021854
   111  H    0.020808
   112  H    0.013151
   113  H    0.038146
   114  H    0.008166
   115  H    0.013006
   116  H    0.015615
   117  H    0.012991
   118  H    0.005402
   119  H    0.021724
   120  H    0.011887
   121  H    0.020002
   122  H    0.013397
   123  H    0.026342
   124  H    0.026047
   125  H    0.026059
   126  H    0.018389
   127  H    0.008768
   128  H    0.021630
   129  H    0.028906
   130  H    0.025602
   131  H    0.011374
   132  H    0.027512
   133  H    0.011580
   134  H    0.012952
   135  H    0.025721
   136  H    0.016460
   137  H    0.029573
   138  H    0.010958
   139  H    0.014024
   140  H    0.022505
 Sum of Mulliken charges =  -0.00000

 Dipole moment (field-independent basis, Debye):
    X=              6.1534    Y=              4.7439    Z=             -4.4024  Tot=              8.9303
 N-N= 4.291083117787D+03 E-N= 0.000000000000D+00  KE=-9.256720627250D+03
 Leave Link  601 at Sat Apr 30 12:09:00 2022, MaxMem=  6710886400 cpu:               0.8 elap:               0.0
 (Enter /sw/apps/gaussian-16.0/g16/l9999.exe)
 1\1\GINC-BP1-COMPUTE102\SP\RZINDO CIS\STO-3G\C55H74Mg1N4O6\OF15641\30-
 Apr-2022\0\\#p ZINDO=(nstates=5)\\step_701_chromophore_6 ZINDO\\0,1\Mg
 ,0,16.59,-2.539,28.185\C,0,16.048,-0.397,30.786\C,0,18.524,-4.54,30.26
 8\C,0,17.55,-4.457,25.44\C,0,15.135,-0.23,25.989\N,0,17.313,-2.361,30.
 304\C,0,16.74,-1.545,31.228\C,0,17.217,-1.982,32.674\C,0,17.919,-3.36,
 32.453\C,0,17.924,-3.447,30.929\C,0,19.41,-3.414,32.917\C,0,15.993,-2.
 148,33.656\C,0,15.912,-1.293,34.932\C,0,17.319,-0.845,35.51\O,0,17.708

 Normal termination of Gaussian 16 at Sat Apr 30 12:09:00 2022.
