 Gaussian 16, Revision A.03,
 Gaussian 16:  ES64L-G16RevA.03 25-Dec-2016

 ------------------------------
 #p blyp/Def2SVP td=(nstates=5)
 ------------------------------

 -------------------------------------------------
 step_51_chromophore_19 TDDFT with blyp functional
 -------------------------------------------------
 Symbolic Z-matrix:
 Charge =  0 Multiplicity = 1

                         Standard orientation:
 ---------------------------------------------------------------------
 Center     Atomic      Atomic             Coordinates (Angstroms)
 Number     Number       Type             X           Y           Z
 ---------------------------------------------------------------------
      1         12           0       -5.791566    0.429672   -0.128459
      2          6           0       -3.152614   -1.855769   -0.136056
      3          6           0       -3.652337    2.968826    0.325433
      4          6           0       -8.491198    2.300737    0.321699
      5          6           0       -7.952432   -2.468299   -0.643733
      6          7           0       -3.576345    0.547487   -0.062939
      7          6           0       -2.731176   -0.507335   -0.147761
      8          6           0       -1.301342   -0.027458   -0.097321
      9          6           0       -1.486529    1.534170    0.262658
     10          6           0       -2.972389    1.770975    0.092332
     11          6           0       -0.793549    2.212850    1.418891
     12          6           0       -0.423143   -0.343490   -1.317722
     13          6           0        1.086515   -0.154263   -1.092296
     14          6           0        1.919856   -1.322977   -0.624653
     15          8           0        1.584930   -2.534159   -0.657463
     16          8           0        3.155042   -0.951311   -0.166421
     17          7           0       -6.027784    2.382106    0.295143
     18          6           0       -5.019572    3.233976    0.375458
     19          6           0       -5.561251    4.499984    0.811472
     20          6           0       -7.010792    4.347157    0.783485
     21          6           0       -7.258491    2.955281    0.497935
     22          6           0       -4.732817    5.777424    1.184041
     23          6           0       -8.193790    5.369338    0.935020
     24          8           0       -9.365748    5.061466    0.909322
     25          6           0       -7.852658    6.860579    1.048785
     26          7           0       -7.915810   -0.127758    0.066527
     27          6           0       -8.766747    0.949301    0.058283
     28          6           0      -10.247287    0.536137   -0.212991
     29          6           0      -10.069797   -0.946410   -0.706854
     30          6           0       -8.573573   -1.227624   -0.510345
     31          6           0      -11.209885    0.597839    1.005326
     32          6           0      -10.600465   -1.275529   -2.202660
     33          6           0      -12.167100   -1.280797   -2.353960
     34          7           0       -5.639684   -1.760798   -0.325865
     35          6           0       -6.597840   -2.763557   -0.527119
     36          6           0       -5.956837   -4.051800   -0.611857
     37          6           0       -4.634386   -3.771575   -0.388178
     38          6           0       -4.485797   -2.354822   -0.264194
     39          6           0       -6.642540   -5.391061   -0.810936
     40          6           0       -3.289859   -4.366634   -0.414150
     41          8           0       -2.840915   -5.483903   -0.632258
     42          6           0       -2.331195   -3.136782   -0.073778
     43          6           0       -1.988689   -3.295757    1.309388
     44          8           0       -2.614266   -3.141947    2.325754
     45          8           0       -0.819538   -4.011321    1.283155
     46          6           0       -0.136874   -4.469623    2.452822
     47          6           0        4.042243   -1.940276    0.353932
     48          6           0        5.254650   -1.602935   -0.334650
     49          6           0        5.980903   -0.467298   -0.257325
     50          6           0        5.725791    0.830798    0.575943
     51          6           0        7.455742   -0.408946   -0.793787
     52          6           0        7.784794    0.824110   -1.670473
     53          6           0        9.172058    1.517041   -1.226198
     54          6           0       10.009485    2.022182   -2.416035
     55          6           0        9.234951    2.898582   -3.452327
     56          6           0       10.828393    0.890380   -3.100246
     57          6           0       12.378708    0.929071   -2.916427
     58          6           0       12.747212    0.286791   -1.543003
     59          6           0       13.500574    1.249957   -0.661780
     60          6           0       14.945725    1.667581   -1.146787
     61          6           0       13.548980    0.783583    0.809844
     62          6           0       12.314913    1.190489    1.613620
     63          6           0       11.456959    0.021569    2.015736
     64          6           0       11.888011   -0.686940    3.318107
     65          6           0       12.405353   -2.126459    3.001598
     66          6           0       10.781066   -0.869909    4.402503
     67          1           0       -3.001462    3.799434    0.606578
     68          1           0       -9.406079    2.894985    0.353825
     69          1           0       -8.579115   -3.326486   -0.894875
     70          1           0       -0.787188   -0.437999    0.771892
     71          1           0       -1.111191    2.109958   -0.583192
     72          1           0       -1.421171    2.694887    2.168401
     73          1           0       -0.084448    2.957889    1.058823
     74          1           0       -0.238804    1.467449    1.987780
     75          1           0       -0.610294    0.311058   -2.169677
     76          1           0       -0.531442   -1.346654   -1.730524
     77          1           0        1.169138    0.662905   -0.374731
     78          1           0        1.555980    0.024805   -2.060256
     79          1           0       -4.412524    6.335066    0.304032
     80          1           0       -3.861913    5.544363    1.795415
     81          1           0       -5.386564    6.271891    1.902682
     82          1           0       -7.036750    7.038184    0.348392
     83          1           0       -7.450354    6.942731    2.058959
     84          1           0       -8.703236    7.492666    0.793196
     85          1           0      -10.587658    1.261479   -0.953313
     86          1           0      -10.625968   -1.583450   -0.019312
     87          1           0      -12.105553    1.153146    0.727115
     88          1           0      -10.696929    1.266455    1.695474
     89          1           0      -11.421473   -0.300535    1.585255
     90          1           0      -10.259833   -2.280482   -2.449667
     91          1           0      -10.263195   -0.475507   -2.861082
     92          1           0      -12.586147   -0.489930   -2.976141
     93          1           0      -12.597916   -1.197080   -1.355818
     94          1           0      -12.309616   -2.271138   -2.787613
     95          1           0       -6.017737   -6.079727   -1.379743
     96          1           0       -7.543990   -5.179572   -1.385546
     97          1           0       -6.836940   -5.808103    0.178002
     98          1           0       -1.479694   -3.213719   -0.748414
     99          1           0        0.887188   -4.102031    2.380891
    100          1           0       -0.276162   -5.550540    2.482467
    101          1           0       -0.447451   -4.054406    3.411092
    102          1           0        3.870159   -2.984104    0.089140
    103          1           0        4.056635   -1.910724    1.443757
    104          1           0        5.745567   -2.387798   -0.908895
    105          1           0        4.902904    0.634920    1.264032
    106          1           0        5.398584    1.672171   -0.034435
    107          1           0        6.665575    1.160951    1.018322
    108          1           0        7.619481   -1.321036   -1.366658
    109          1           0        8.071630   -0.532918    0.096033
    110          1           0        7.019081    1.560427   -1.424841
    111          1           0        7.765302    0.627302   -2.742182
    112          1           0        9.798801    0.794241   -0.704154
    113          1           0        8.893757    2.288436   -0.508064
    114          1           0       10.805232    2.685683   -2.076811
    115          1           0        8.144891    2.907678   -3.450676
    116          1           0        9.559199    2.682601   -4.470257
    117          1           0        9.456894    3.941674   -3.230483
    118          1           0       10.589779    0.865749   -4.163436
    119          1           0       10.596767   -0.086251   -2.675560
    120          1           0       12.686693    1.970647   -2.993640
    121          1           0       12.748911    0.349095   -3.762087
    122          1           0       13.305493   -0.608148   -1.814885
    123          1           0       11.828938    0.006154   -1.026037
    124          1           0       12.846645    2.121176   -0.671923
    125          1           0       15.377289    1.046594   -1.931801
    126          1           0       15.745652    1.768307   -0.414895
    127          1           0       14.828986    2.689861   -1.507857
    128          1           0       14.397860    1.315583    1.239459
    129          1           0       13.939959   -0.233108    0.850393
    130          1           0       11.642621    1.876712    1.098746
    131          1           0       12.663693    1.793911    2.451515
    132          1           0       11.486447   -0.721818    1.219131
    133          1           0       10.415655    0.337015    2.065401
    134          1           0       12.727168   -0.143238    3.751786
    135          1           0       13.181385   -2.382055    3.723486
    136          1           0       12.850462   -2.184500    2.008502
    137          1           0       11.635115   -2.894549    3.068260
    138          1           0       11.123827   -0.210762    5.199415
    139          1           0       10.601209   -1.883238    4.762443
    140          1           0        9.824744   -0.572858    3.971859
 ---------------------------------------------------------------------

 SCF Done:  E(RB-LYP) =  -3007.36929302     A.U. after   20 cycles

 Excitation energies and oscillator strengths:

 Excited State   1:      Singlet-A      1.8074 eV  685.97 nm  f=0.2588  <S**2>=0.000
     243 -> 247        0.10691
     245 -> 247        0.14185
     245 -> 248       -0.18175
     246 -> 247        0.66367
     246 <- 247       -0.13954
 This state for optimization and/or second-order correction.
 Total Energy, E(TD-HF/TD-DFT) =  -3007.30287081
 Copying the excited state density for this state as the 1-particle RhoCI density.

 Excited State   2:      Singlet-A      1.9411 eV  638.73 nm  f=0.0978  <S**2>=0.000
     243 -> 247        0.17973
     244 -> 247       -0.27909
     245 -> 247        0.56458
     246 -> 247       -0.18478
     246 -> 248        0.17413

 Excited State   3:      Singlet-A      2.0330 eV  609.85 nm  f=0.0030  <S**2>=0.000
     243 -> 247        0.52520
     244 -> 247        0.46906

 Excited State   4:      Singlet-A      2.1017 eV  589.92 nm  f=0.0304  <S**2>=0.000
     243 -> 247       -0.42136
     244 -> 247        0.43560
     245 -> 247        0.30899
     246 -> 248        0.16379

 Excited State   5:      Singlet-A      2.4633 eV  503.32 nm  f=0.0002  <S**2>=0.000
     241 -> 247        0.66419
     242 -> 247        0.24239

 The electronic state is 1-A.
 Alpha  occ. eigenvalues --  -46.27461 -18.82424 -18.79133 -18.76649 -18.76059
 Alpha  occ. eigenvalues --  -18.76001 -18.75226 -14.03103 -14.02836 -14.00806
 Alpha  occ. eigenvalues --  -14.00152 -10.04480 -10.01987 -10.00288  -9.99681
 Alpha  occ. eigenvalues --   -9.97497  -9.96722  -9.96565  -9.96223  -9.95912
 Alpha  occ. eigenvalues --   -9.95882  -9.95507  -9.95245  -9.94887  -9.94707
 Alpha  occ. eigenvalues --   -9.94503  -9.94211  -9.93962  -9.93904  -9.93707
 Alpha  occ. eigenvalues --   -9.93557  -9.93532  -9.93452  -9.93350  -9.93292
 Alpha  occ. eigenvalues --   -9.93125  -9.92989  -9.92968  -9.92813  -9.92744
 Alpha  occ. eigenvalues --   -9.92562  -9.92496  -9.92423  -9.92387  -9.92203
 Alpha  occ. eigenvalues --   -9.92139  -9.92009  -9.91967  -9.91919  -9.91907
 Alpha  occ. eigenvalues --   -9.91890  -9.91819  -9.91780  -9.91708  -9.91225
 Alpha  occ. eigenvalues --   -9.91129  -9.91091  -9.91016  -9.90985  -9.90933
 Alpha  occ. eigenvalues --   -9.90880  -9.90799  -9.90746  -9.90718  -9.90611
 Alpha  occ. eigenvalues --   -9.90541  -2.91942  -1.72382  -1.71823  -1.71651
 Alpha  occ. eigenvalues --   -0.98381  -0.96631  -0.92389  -0.91083  -0.88834
 Alpha  occ. eigenvalues --   -0.88772  -0.86624  -0.86228  -0.85493  -0.84020
 Alpha  occ. eigenvalues --   -0.74988  -0.73697  -0.73509  -0.72829  -0.72037
 Alpha  occ. eigenvalues --   -0.71934  -0.70961  -0.70878  -0.70763  -0.70387
 Alpha  occ. eigenvalues --   -0.69679  -0.69130  -0.68506  -0.67409  -0.67095
 Alpha  occ. eigenvalues --   -0.66694  -0.65466  -0.65037  -0.64950  -0.64470
 Alpha  occ. eigenvalues --   -0.63829  -0.63015  -0.62316  -0.61322  -0.60638
 Alpha  occ. eigenvalues --   -0.60429  -0.59608  -0.59588  -0.59294  -0.59236
 Alpha  occ. eigenvalues --   -0.58784  -0.57822  -0.56963  -0.56201  -0.54205
 Alpha  occ. eigenvalues --   -0.53911  -0.53504  -0.52868  -0.52554  -0.51611
 Alpha  occ. eigenvalues --   -0.51398  -0.51020  -0.50706  -0.50342  -0.49982
 Alpha  occ. eigenvalues --   -0.49400  -0.49273  -0.48151  -0.47502  -0.46554
 Alpha  occ. eigenvalues --   -0.46186  -0.45915  -0.45573  -0.45002  -0.44348
 Alpha  occ. eigenvalues --   -0.44040  -0.43678  -0.43028  -0.42809  -0.42198
 Alpha  occ. eigenvalues --   -0.42039  -0.41707  -0.41593  -0.41219  -0.41054
 Alpha  occ. eigenvalues --   -0.40852  -0.40562  -0.40452  -0.40147  -0.39854
 Alpha  occ. eigenvalues --   -0.39625  -0.39485  -0.39366  -0.39149  -0.39061
 Alpha  occ. eigenvalues --   -0.38818  -0.38615  -0.38376  -0.38248  -0.38139
 Alpha  occ. eigenvalues --   -0.37848  -0.37569  -0.37520  -0.37149  -0.36943
 Alpha  occ. eigenvalues --   -0.36829  -0.36533  -0.36430  -0.36357  -0.36251
 Alpha  occ. eigenvalues --   -0.36132  -0.36007  -0.35947  -0.35698  -0.35411
 Alpha  occ. eigenvalues --   -0.35063  -0.35017  -0.34975  -0.34929  -0.34616
 Alpha  occ. eigenvalues --   -0.34415  -0.34345  -0.34326  -0.34094  -0.33883
 Alpha  occ. eigenvalues --   -0.33684  -0.33649  -0.33380  -0.33277  -0.33122
 Alpha  occ. eigenvalues --   -0.32919  -0.32731  -0.32537  -0.32358  -0.32187
 Alpha  occ. eigenvalues --   -0.32116  -0.31902  -0.31767  -0.31577  -0.31522
 Alpha  occ. eigenvalues --   -0.31316  -0.31062  -0.30992  -0.30930  -0.30773
 Alpha  occ. eigenvalues --   -0.30625  -0.30356  -0.30159  -0.30043  -0.29707
 Alpha  occ. eigenvalues --   -0.29453  -0.29338  -0.29043  -0.28782  -0.28375
 Alpha  occ. eigenvalues --   -0.28171  -0.28018  -0.27923  -0.27788  -0.27349
 Alpha  occ. eigenvalues --   -0.27287  -0.27133  -0.26967  -0.26465  -0.26187
 Alpha  occ. eigenvalues --   -0.25951  -0.25695  -0.25664  -0.25214  -0.25005
 Alpha  occ. eigenvalues --   -0.24906  -0.24438  -0.24107  -0.23791  -0.23115
 Alpha  occ. eigenvalues --   -0.22767  -0.21894  -0.21833  -0.20792  -0.20750
 Alpha  occ. eigenvalues --   -0.20435  -0.20408  -0.18802  -0.18737  -0.16924
 Alpha  occ. eigenvalues --   -0.15715
 Alpha virt. eigenvalues --   -0.11380  -0.06411  -0.05918  -0.04517  -0.03499
 Alpha virt. eigenvalues --   -0.02585  -0.01681  -0.01393  -0.00712   0.00511
 Alpha virt. eigenvalues --    0.01333   0.01744   0.01928   0.02221   0.02934

 Mulliken charges:
               1
     1  Mg   0.665388
     2  C    0.048205
     3  C   -0.099471
     4  C   -0.036926
     5  C   -0.088285
     6  N   -0.219432
     7  C   -0.044438
     8  C    0.033076
     9  C    0.015493
    10  C    0.021723
    11  C    0.139112
    12  C    0.151105
    13  C    0.102369
    14  C    0.063384
    15  O   -0.213504
    16  O   -0.254574
    17  N   -0.308338
    18  C    0.176426
    19  C   -0.183974
    20  C    0.006072
    21  C    0.117388
    22  C    0.169367
    23  C   -0.065779
    24  O   -0.147787
    25  C    0.119015
    26  N   -0.228379
    27  C    0.021438
    28  C   -0.012183
    29  C    0.059203
    30  C    0.045257
    31  C    0.131113
    32  C    0.059203
    33  C    0.058381
    34  N   -0.188518
    35  C    0.098728
    36  C   -0.195159
    37  C    0.098296
    38  C    0.030181
    39  C    0.176350
    40  C   -0.028642
    41  O   -0.116185
    42  C    0.009906
    43  C    0.102654
    44  O   -0.160741
    45  O   -0.260868
    46  C    0.215112
    47  C    0.366312
    48  C   -0.126949
    49  C   -0.140457
    50  C    0.139289
    51  C    0.100738
    52  C    0.064690
    53  C    0.074981
    54  C   -0.032667
    55  C    0.088135
    56  C    0.056586
    57  C    0.067698
    58  C    0.111868
    59  C   -0.084117
    60  C    0.108083
    61  C    0.118194
    62  C    0.083851
    63  C    0.117624
    64  C   -0.091136
    65  C    0.076371
    66  C    0.108955
    67  H   -0.071521
    68  H   -0.037922
    69  H   -0.065533
    70  H   -0.020303
    71  H   -0.030623
    72  H   -0.002578
    73  H   -0.011642
    74  H   -0.013286
    75  H   -0.038916
    76  H   -0.008329
    77  H   -0.003167
    78  H    0.012436
    79  H    0.021106
    80  H   -0.009626
    81  H   -0.015393
    82  H    0.001611
    83  H    0.022335
    84  H    0.002561
    85  H   -0.023038
    86  H   -0.026069
    87  H   -0.006126
    88  H   -0.017820
    89  H   -0.000311
    90  H   -0.016323
    91  H   -0.015704
    92  H    0.002043
    93  H   -0.007862
    94  H   -0.003683
    95  H    0.009072
    96  H   -0.007628
    97  H    0.020270
    98  H    0.006315
    99  H    0.004167
   100  H    0.020322
   101  H   -0.004161
   102  H   -0.007194
   103  H   -0.002048
   104  H   -0.039627
   105  H   -0.011855
   106  H    0.004163
   107  H   -0.005243
   108  H   -0.040349
   109  H   -0.000510
   110  H   -0.029361
   111  H   -0.008782
   112  H   -0.017255
   113  H   -0.029118
   114  H   -0.042760
   115  H   -0.012596
   116  H   -0.018329
   117  H   -0.024918
   118  H   -0.043653
   119  H   -0.037843
   120  H   -0.025807
   121  H   -0.033783
   122  H   -0.037423
   123  H   -0.023482
   124  H   -0.039579
   125  H   -0.015145
   126  H   -0.019627
   127  H   -0.019030
   128  H   -0.060090
   129  H   -0.032698
   130  H   -0.036705
   131  H   -0.035626
   132  H   -0.035736
   133  H   -0.042130
   134  H   -0.032781
   135  H   -0.019874
   136  H   -0.018262
   137  H   -0.014639
   138  H   -0.007947
   139  H   -0.011772
   140  H   -0.024075
 Sum of Mulliken charges =  -0.00000

 Dipole moment (field-independent basis, Debye):
    X=              3.1196    Y=              4.8869    Z=             -1.0359  Tot=              5.8895
 Quadrupole moment (field-independent basis, Debye-Ang):
   XX=           -384.2656   YY=           -418.5979   ZZ=           -404.1797
   XY=             14.1675   XZ=             19.3335   YZ=             -1.5523

 Normal termination of Gaussian 16 at Thu May  5 02:46:54 2022.
