 Gaussian 16, Revision A.03,
 Gaussian 16:  ES64L-G16RevA.03 25-Dec-2016

 -----------------------------------
 #p cam-b3lyp/Def2SVP td=(nstates=5)
 -----------------------------------

 ------------------------------------------------------
 step_51_chromophore_19 TDDFT with cam-b3lyp functional
 ------------------------------------------------------
 Symbolic Z-matrix:
 Charge =  0 Multiplicity = 1

                         Standard orientation:
 ---------------------------------------------------------------------
 Center     Atomic      Atomic             Coordinates (Angstroms)
 Number     Number       Type             X           Y           Z
 ---------------------------------------------------------------------
      1         12           0       -5.791566    0.429672   -0.128459
      2          6           0       -3.152614   -1.855769   -0.136056
      3          6           0       -3.652337    2.968826    0.325433
      4          6           0       -8.491198    2.300737    0.321699
      5          6           0       -7.952432   -2.468299   -0.643733
      6          7           0       -3.576345    0.547487   -0.062939
      7          6           0       -2.731176   -0.507335   -0.147761
      8          6           0       -1.301342   -0.027458   -0.097321
      9          6           0       -1.486529    1.534170    0.262658
     10          6           0       -2.972389    1.770975    0.092332
     11          6           0       -0.793549    2.212850    1.418891
     12          6           0       -0.423143   -0.343490   -1.317722
     13          6           0        1.086515   -0.154263   -1.092296
     14          6           0        1.919856   -1.322977   -0.624653
     15          8           0        1.584930   -2.534159   -0.657463
     16          8           0        3.155042   -0.951311   -0.166421
     17          7           0       -6.027784    2.382106    0.295143
     18          6           0       -5.019572    3.233976    0.375458
     19          6           0       -5.561251    4.499984    0.811472
     20          6           0       -7.010792    4.347157    0.783485
     21          6           0       -7.258491    2.955281    0.497935
     22          6           0       -4.732817    5.777424    1.184041
     23          6           0       -8.193790    5.369338    0.935020
     24          8           0       -9.365748    5.061466    0.909322
     25          6           0       -7.852658    6.860579    1.048785
     26          7           0       -7.915810   -0.127758    0.066527
     27          6           0       -8.766747    0.949301    0.058283
     28          6           0      -10.247287    0.536137   -0.212991
     29          6           0      -10.069797   -0.946410   -0.706854
     30          6           0       -8.573573   -1.227624   -0.510345
     31          6           0      -11.209885    0.597839    1.005326
     32          6           0      -10.600465   -1.275529   -2.202660
     33          6           0      -12.167100   -1.280797   -2.353960
     34          7           0       -5.639684   -1.760798   -0.325865
     35          6           0       -6.597840   -2.763557   -0.527119
     36          6           0       -5.956837   -4.051800   -0.611857
     37          6           0       -4.634386   -3.771575   -0.388178
     38          6           0       -4.485797   -2.354822   -0.264194
     39          6           0       -6.642540   -5.391061   -0.810936
     40          6           0       -3.289859   -4.366634   -0.414150
     41          8           0       -2.840915   -5.483903   -0.632258
     42          6           0       -2.331195   -3.136782   -0.073778
     43          6           0       -1.988689   -3.295757    1.309388
     44          8           0       -2.614266   -3.141947    2.325754
     45          8           0       -0.819538   -4.011321    1.283155
     46          6           0       -0.136874   -4.469623    2.452822
     47          6           0        4.042243   -1.940276    0.353932
     48          6           0        5.254650   -1.602935   -0.334650
     49          6           0        5.980903   -0.467298   -0.257325
     50          6           0        5.725791    0.830798    0.575943
     51          6           0        7.455742   -0.408946   -0.793787
     52          6           0        7.784794    0.824110   -1.670473
     53          6           0        9.172058    1.517041   -1.226198
     54          6           0       10.009485    2.022182   -2.416035
     55          6           0        9.234951    2.898582   -3.452327
     56          6           0       10.828393    0.890380   -3.100246
     57          6           0       12.378708    0.929071   -2.916427
     58          6           0       12.747212    0.286791   -1.543003
     59          6           0       13.500574    1.249957   -0.661780
     60          6           0       14.945725    1.667581   -1.146787
     61          6           0       13.548980    0.783583    0.809844
     62          6           0       12.314913    1.190489    1.613620
     63          6           0       11.456959    0.021569    2.015736
     64          6           0       11.888011   -0.686940    3.318107
     65          6           0       12.405353   -2.126459    3.001598
     66          6           0       10.781066   -0.869909    4.402503
     67          1           0       -3.001462    3.799434    0.606578
     68          1           0       -9.406079    2.894985    0.353825
     69          1           0       -8.579115   -3.326486   -0.894875
     70          1           0       -0.787188   -0.437999    0.771892
     71          1           0       -1.111191    2.109958   -0.583192
     72          1           0       -1.421171    2.694887    2.168401
     73          1           0       -0.084448    2.957889    1.058823
     74          1           0       -0.238804    1.467449    1.987780
     75          1           0       -0.610294    0.311058   -2.169677
     76          1           0       -0.531442   -1.346654   -1.730524
     77          1           0        1.169138    0.662905   -0.374731
     78          1           0        1.555980    0.024805   -2.060256
     79          1           0       -4.412524    6.335066    0.304032
     80          1           0       -3.861913    5.544363    1.795415
     81          1           0       -5.386564    6.271891    1.902682
     82          1           0       -7.036750    7.038184    0.348392
     83          1           0       -7.450354    6.942731    2.058959
     84          1           0       -8.703236    7.492666    0.793196
     85          1           0      -10.587658    1.261479   -0.953313
     86          1           0      -10.625968   -1.583450   -0.019312
     87          1           0      -12.105553    1.153146    0.727115
     88          1           0      -10.696929    1.266455    1.695474
     89          1           0      -11.421473   -0.300535    1.585255
     90          1           0      -10.259833   -2.280482   -2.449667
     91          1           0      -10.263195   -0.475507   -2.861082
     92          1           0      -12.586147   -0.489930   -2.976141
     93          1           0      -12.597916   -1.197080   -1.355818
     94          1           0      -12.309616   -2.271138   -2.787613
     95          1           0       -6.017737   -6.079727   -1.379743
     96          1           0       -7.543990   -5.179572   -1.385546
     97          1           0       -6.836940   -5.808103    0.178002
     98          1           0       -1.479694   -3.213719   -0.748414
     99          1           0        0.887188   -4.102031    2.380891
    100          1           0       -0.276162   -5.550540    2.482467
    101          1           0       -0.447451   -4.054406    3.411092
    102          1           0        3.870159   -2.984104    0.089140
    103          1           0        4.056635   -1.910724    1.443757
    104          1           0        5.745567   -2.387798   -0.908895
    105          1           0        4.902904    0.634920    1.264032
    106          1           0        5.398584    1.672171   -0.034435
    107          1           0        6.665575    1.160951    1.018322
    108          1           0        7.619481   -1.321036   -1.366658
    109          1           0        8.071630   -0.532918    0.096033
    110          1           0        7.019081    1.560427   -1.424841
    111          1           0        7.765302    0.627302   -2.742182
    112          1           0        9.798801    0.794241   -0.704154
    113          1           0        8.893757    2.288436   -0.508064
    114          1           0       10.805232    2.685683   -2.076811
    115          1           0        8.144891    2.907678   -3.450676
    116          1           0        9.559199    2.682601   -4.470257
    117          1           0        9.456894    3.941674   -3.230483
    118          1           0       10.589779    0.865749   -4.163436
    119          1           0       10.596767   -0.086251   -2.675560
    120          1           0       12.686693    1.970647   -2.993640
    121          1           0       12.748911    0.349095   -3.762087
    122          1           0       13.305493   -0.608148   -1.814885
    123          1           0       11.828938    0.006154   -1.026037
    124          1           0       12.846645    2.121176   -0.671923
    125          1           0       15.377289    1.046594   -1.931801
    126          1           0       15.745652    1.768307   -0.414895
    127          1           0       14.828986    2.689861   -1.507857
    128          1           0       14.397860    1.315583    1.239459
    129          1           0       13.939959   -0.233108    0.850393
    130          1           0       11.642621    1.876712    1.098746
    131          1           0       12.663693    1.793911    2.451515
    132          1           0       11.486447   -0.721818    1.219131
    133          1           0       10.415655    0.337015    2.065401
    134          1           0       12.727168   -0.143238    3.751786
    135          1           0       13.181385   -2.382055    3.723486
    136          1           0       12.850462   -2.184500    2.008502
    137          1           0       11.635115   -2.894549    3.068260
    138          1           0       11.123827   -0.210762    5.199415
    139          1           0       10.601209   -1.883238    4.762443
    140          1           0        9.824744   -0.572858    3.971859
 ---------------------------------------------------------------------

 SCF Done:  E(RCAM-B3LYP) =  -3007.16459256     A.U. after   19 cycles

 Excitation energies and oscillator strengths:

 Excited State   1:      Singlet-A      1.7056 eV  726.92 nm  f=0.3719  <S**2>=0.000
     245 -> 248        0.18403
     246 -> 247        0.68508
     245 <- 248        0.11039
 This state for optimization and/or second-order correction.
 Total Energy, E(TD-HF/TD-DFT) =  -3007.10191248
 Copying the excited state density for this state as the 1-particle RhoCI density.

 Excited State   2:      Singlet-A      2.1946 eV  564.96 nm  f=0.1217  <S**2>=0.000
     245 -> 247        0.64769
     246 -> 248       -0.27527

 Excited State   3:      Singlet-A      3.4234 eV  362.17 nm  f=0.0217  <S**2>=0.000
     241 -> 247        0.17829
     241 -> 249        0.13650
     243 -> 247       -0.15181
     244 -> 247        0.57589
     246 -> 248       -0.17632

 Excited State   4:      Singlet-A      3.5036 eV  353.88 nm  f=0.0541  <S**2>=0.000
     239 -> 247        0.10982
     241 -> 247       -0.30249
     241 -> 249       -0.14155
     243 -> 247        0.36189
     244 -> 247        0.37141
     246 -> 248        0.25449

 Excited State   5:      Singlet-A      3.5677 eV  347.52 nm  f=0.1461  <S**2>=0.000
     241 -> 247        0.45944
     241 -> 249        0.16495
     243 -> 247        0.28805
     245 -> 247        0.11485
     246 -> 248        0.35653

 The electronic state is 1-A.
 Alpha  occ. eigenvalues --  -46.89052 -19.25259 -19.22022 -19.19584 -19.19279
 Alpha  occ. eigenvalues --  -19.19143 -19.18411 -14.41874 -14.41818 -14.39208
 Alpha  occ. eigenvalues --  -14.38568 -10.39840 -10.37438 -10.35530 -10.35087
 Alpha  occ. eigenvalues --  -10.31436 -10.31240 -10.31029 -10.30652 -10.30297
 Alpha  occ. eigenvalues --  -10.29821 -10.29812 -10.29477 -10.29101 -10.28787
 Alpha  occ. eigenvalues --  -10.28550 -10.28512 -10.28215 -10.28174 -10.27663
 Alpha  occ. eigenvalues --  -10.27631 -10.27495 -10.27493 -10.27467 -10.27457
 Alpha  occ. eigenvalues --  -10.27409 -10.27201 -10.26827 -10.26757 -10.26713
 Alpha  occ. eigenvalues --  -10.26699 -10.26563 -10.26281 -10.26195 -10.26043
 Alpha  occ. eigenvalues --  -10.26019 -10.25957 -10.25862 -10.25757 -10.25674
 Alpha  occ. eigenvalues --  -10.25612 -10.25542 -10.25414 -10.25326 -10.25006
 Alpha  occ. eigenvalues --  -10.24849 -10.24810 -10.24705 -10.24680 -10.24606
 Alpha  occ. eigenvalues --  -10.24545 -10.24490 -10.24456 -10.24362 -10.24250
 Alpha  occ. eigenvalues --  -10.24135  -3.17433  -1.92351  -1.91880  -1.91734
 Alpha  occ. eigenvalues --   -1.16763  -1.15278  -1.10838  -1.09436  -1.06762
 Alpha  occ. eigenvalues --   -1.06653  -1.04335  -1.03850  -1.03091  -1.01587
 Alpha  occ. eigenvalues --   -0.92131  -0.90526  -0.90342  -0.89594  -0.88712
 Alpha  occ. eigenvalues --   -0.88631  -0.87531  -0.87435  -0.87313  -0.86994
 Alpha  occ. eigenvalues --   -0.86070  -0.85758  -0.84739  -0.83605  -0.83227
 Alpha  occ. eigenvalues --   -0.82764  -0.81509  -0.81039  -0.80808  -0.80376
 Alpha  occ. eigenvalues --   -0.79584  -0.78674  -0.78003  -0.76832  -0.75985
 Alpha  occ. eigenvalues --   -0.75747  -0.74902  -0.74875  -0.74558  -0.74514
 Alpha  occ. eigenvalues --   -0.73891  -0.72872  -0.71894  -0.71041  -0.68819
 Alpha  occ. eigenvalues --   -0.68514  -0.68050  -0.67276  -0.66917  -0.65820
 Alpha  occ. eigenvalues --   -0.65638  -0.65144  -0.64531  -0.64206  -0.63977
 Alpha  occ. eigenvalues --   -0.63369  -0.63220  -0.61947  -0.61230  -0.60123
 Alpha  occ. eigenvalues --   -0.59839  -0.59338  -0.59010  -0.58574  -0.57868
 Alpha  occ. eigenvalues --   -0.57469  -0.57085  -0.56183  -0.55922  -0.55230
 Alpha  occ. eigenvalues --   -0.55158  -0.54798  -0.54350  -0.54120  -0.53801
 Alpha  occ. eigenvalues --   -0.53761  -0.53486  -0.53195  -0.52766  -0.52653
 Alpha  occ. eigenvalues --   -0.52333  -0.52248  -0.52052  -0.51958  -0.51821
 Alpha  occ. eigenvalues --   -0.51503  -0.51197  -0.50818  -0.50706  -0.50610
 Alpha  occ. eigenvalues --   -0.50343  -0.50153  -0.49775  -0.49470  -0.49283
 Alpha  occ. eigenvalues --   -0.49169  -0.49041  -0.49019  -0.48630  -0.48489
 Alpha  occ. eigenvalues --   -0.48460  -0.48251  -0.48203  -0.47951  -0.47513
 Alpha  occ. eigenvalues --   -0.47149  -0.46900  -0.46865  -0.46840  -0.46535
 Alpha  occ. eigenvalues --   -0.46402  -0.46260  -0.46182  -0.45812  -0.45788
 Alpha  occ. eigenvalues --   -0.45468  -0.45326  -0.45124  -0.45033  -0.44913
 Alpha  occ. eigenvalues --   -0.44631  -0.44534  -0.44365  -0.43978  -0.43717
 Alpha  occ. eigenvalues --   -0.43646  -0.43494  -0.43413  -0.43278  -0.43256
 Alpha  occ. eigenvalues --   -0.43019  -0.42619  -0.42450  -0.42281  -0.42222
 Alpha  occ. eigenvalues --   -0.42080  -0.41629  -0.41551  -0.41285  -0.40997
 Alpha  occ. eigenvalues --   -0.40732  -0.40496  -0.40294  -0.40237  -0.39467
 Alpha  occ. eigenvalues --   -0.39164  -0.39142  -0.38973  -0.38803  -0.38616
 Alpha  occ. eigenvalues --   -0.38165  -0.38115  -0.37824  -0.37202  -0.37067
 Alpha  occ. eigenvalues --   -0.36703  -0.36650  -0.36327  -0.36170  -0.36002
 Alpha  occ. eigenvalues --   -0.35667  -0.34899  -0.34716  -0.34523  -0.34015
 Alpha  occ. eigenvalues --   -0.33808  -0.33243  -0.33099  -0.31177  -0.30803
 Alpha  occ. eigenvalues --   -0.30421  -0.30168  -0.30043  -0.29736  -0.23666
 Alpha  occ. eigenvalues --   -0.21023
 Alpha virt. eigenvalues --   -0.08497  -0.01289   0.00676   0.02473   0.03284
 Alpha virt. eigenvalues --    0.04125   0.05042   0.05749   0.06670   0.06854
 Alpha virt. eigenvalues --    0.07760   0.08263   0.08641   0.09123   0.09197

 Mulliken charges:
               1
     1  Mg   0.797801
     2  C    0.010443
     3  C   -0.116348
     4  C   -0.053893
     5  C   -0.090272
     6  N   -0.295163
     7  C    0.002171
     8  C   -0.018041
     9  C   -0.042449
    10  C    0.050695
    11  C    0.072903
    12  C    0.098528
    13  C    0.029803
    14  C    0.150611
    15  O   -0.256842
    16  O   -0.318626
    17  N   -0.401535
    18  C    0.187644
    19  C   -0.189338
    20  C   -0.063393
    21  C    0.138072
    22  C    0.114660
    23  C    0.014962
    24  O   -0.189646
    25  C    0.041305
    26  N   -0.291233
    27  C    0.037100
    28  C   -0.065232
    29  C    0.003087
    30  C    0.056667
    31  C    0.069955
    32  C    0.010641
    33  C   -0.000742
    34  N   -0.275734
    35  C    0.096902
    36  C   -0.190900
    37  C    0.023008
    38  C    0.073932
    39  C    0.130210
    40  C    0.067868
    41  O   -0.154507
    42  C   -0.072335
    43  C    0.200977
    44  O   -0.196714
    45  O   -0.324418
    46  C    0.179897
    47  C    0.323840
    48  C   -0.154483
    49  C   -0.149718
    50  C    0.078057
    51  C    0.044519
    52  C    0.004311
    53  C    0.039278
    54  C   -0.093336
    55  C    0.030800
    56  C    0.006039
    57  C    0.014887
    58  C    0.063440
    59  C   -0.135560
    60  C    0.046884
    61  C    0.058840
    62  C    0.027604
    63  C    0.063488
    64  C   -0.148817
    65  C    0.020446
    66  C    0.050751
    67  H   -0.035596
    68  H    0.002926
    69  H   -0.029677
    70  H    0.012119
    71  H    0.005016
    72  H    0.024554
    73  H    0.013677
    74  H    0.011520
    75  H   -0.005218
    76  H    0.023344
    77  H    0.027158
    78  H    0.045849
    79  H    0.046657
    80  H    0.017260
    81  H    0.009777
    82  H    0.028413
    83  H    0.046396
    84  H    0.036093
    85  H    0.011689
    86  H    0.008249
    87  H    0.018512
    88  H    0.008420
    89  H    0.024832
    90  H    0.009931
    91  H    0.011356
    92  H    0.024988
    93  H    0.013583
    94  H    0.018935
    95  H    0.036485
    96  H    0.014614
    97  H    0.046752
    98  H    0.051556
    99  H    0.024113
   100  H    0.041700
   101  H    0.021279
   102  H    0.028588
   103  H    0.024956
   104  H   -0.006700
   105  H    0.013844
   106  H    0.028038
   107  H    0.017776
   108  H   -0.009987
   109  H    0.025626
   110  H   -0.001896
   111  H    0.019091
   112  H    0.000534
   113  H   -0.002418
   114  H   -0.010681
   115  H    0.010747
   116  H    0.006283
   117  H    0.000025
   118  H   -0.013467
   119  H   -0.009949
   120  H    0.000361
   121  H   -0.002793
   122  H   -0.007661
   123  H   -0.003159
   124  H   -0.010354
   125  H    0.008851
   126  H    0.005833
   127  H    0.004540
   128  H   -0.026163
   129  H   -0.005380
   130  H   -0.008341
   131  H   -0.005472
   132  H   -0.008934
   133  H   -0.014648
   134  H   -0.001545
   135  H    0.005064
   136  H    0.002911
   137  H    0.008603
   138  H    0.014964
   139  H    0.012432
   140  H   -0.000530
 Sum of Mulliken charges =  -0.00000

 Dipole moment (field-independent basis, Debye):
    X=              3.1251    Y=              5.3161    Z=             -1.0226  Tot=              6.2508
 Quadrupole moment (field-independent basis, Debye-Ang):
   XX=           -382.6771   YY=           -414.6411   ZZ=           -403.7787
   XY=             12.3508   XZ=             19.8541   YZ=             -1.1730

 Normal termination of Gaussian 16 at Thu May  5 01:42:38 2022.
