 Gaussian 16, Revision A.03,
 Gaussian 16:  ES64L-G16RevA.03 25-Dec-2016

 ---------------------------------
 #p PBE1PBE/Def2SVP td=(nstates=5)
 ---------------------------------

 ----------------------------------------------------
 step_51_chromophore_19 TDDFT with PBE1PBE functional
 ----------------------------------------------------
 Symbolic Z-matrix:
 Charge =  0 Multiplicity = 1

                         Standard orientation:
 ---------------------------------------------------------------------
 Center     Atomic      Atomic             Coordinates (Angstroms)
 Number     Number       Type             X           Y           Z
 ---------------------------------------------------------------------
      1         12           0       -5.791566    0.429672   -0.128459
      2          6           0       -3.152614   -1.855769   -0.136056
      3          6           0       -3.652337    2.968826    0.325433
      4          6           0       -8.491198    2.300737    0.321699
      5          6           0       -7.952432   -2.468299   -0.643733
      6          7           0       -3.576345    0.547487   -0.062939
      7          6           0       -2.731176   -0.507335   -0.147761
      8          6           0       -1.301342   -0.027458   -0.097321
      9          6           0       -1.486529    1.534170    0.262658
     10          6           0       -2.972389    1.770975    0.092332
     11          6           0       -0.793549    2.212850    1.418891
     12          6           0       -0.423143   -0.343490   -1.317722
     13          6           0        1.086515   -0.154263   -1.092296
     14          6           0        1.919856   -1.322977   -0.624653
     15          8           0        1.584930   -2.534159   -0.657463
     16          8           0        3.155042   -0.951311   -0.166421
     17          7           0       -6.027784    2.382106    0.295143
     18          6           0       -5.019572    3.233976    0.375458
     19          6           0       -5.561251    4.499984    0.811472
     20          6           0       -7.010792    4.347157    0.783485
     21          6           0       -7.258491    2.955281    0.497935
     22          6           0       -4.732817    5.777424    1.184041
     23          6           0       -8.193790    5.369338    0.935020
     24          8           0       -9.365748    5.061466    0.909322
     25          6           0       -7.852658    6.860579    1.048785
     26          7           0       -7.915810   -0.127758    0.066527
     27          6           0       -8.766747    0.949301    0.058283
     28          6           0      -10.247287    0.536137   -0.212991
     29          6           0      -10.069797   -0.946410   -0.706854
     30          6           0       -8.573573   -1.227624   -0.510345
     31          6           0      -11.209885    0.597839    1.005326
     32          6           0      -10.600465   -1.275529   -2.202660
     33          6           0      -12.167100   -1.280797   -2.353960
     34          7           0       -5.639684   -1.760798   -0.325865
     35          6           0       -6.597840   -2.763557   -0.527119
     36          6           0       -5.956837   -4.051800   -0.611857
     37          6           0       -4.634386   -3.771575   -0.388178
     38          6           0       -4.485797   -2.354822   -0.264194
     39          6           0       -6.642540   -5.391061   -0.810936
     40          6           0       -3.289859   -4.366634   -0.414150
     41          8           0       -2.840915   -5.483903   -0.632258
     42          6           0       -2.331195   -3.136782   -0.073778
     43          6           0       -1.988689   -3.295757    1.309388
     44          8           0       -2.614266   -3.141947    2.325754
     45          8           0       -0.819538   -4.011321    1.283155
     46          6           0       -0.136874   -4.469623    2.452822
     47          6           0        4.042243   -1.940276    0.353932
     48          6           0        5.254650   -1.602935   -0.334650
     49          6           0        5.980903   -0.467298   -0.257325
     50          6           0        5.725791    0.830798    0.575943
     51          6           0        7.455742   -0.408946   -0.793787
     52          6           0        7.784794    0.824110   -1.670473
     53          6           0        9.172058    1.517041   -1.226198
     54          6           0       10.009485    2.022182   -2.416035
     55          6           0        9.234951    2.898582   -3.452327
     56          6           0       10.828393    0.890380   -3.100246
     57          6           0       12.378708    0.929071   -2.916427
     58          6           0       12.747212    0.286791   -1.543003
     59          6           0       13.500574    1.249957   -0.661780
     60          6           0       14.945725    1.667581   -1.146787
     61          6           0       13.548980    0.783583    0.809844
     62          6           0       12.314913    1.190489    1.613620
     63          6           0       11.456959    0.021569    2.015736
     64          6           0       11.888011   -0.686940    3.318107
     65          6           0       12.405353   -2.126459    3.001598
     66          6           0       10.781066   -0.869909    4.402503
     67          1           0       -3.001462    3.799434    0.606578
     68          1           0       -9.406079    2.894985    0.353825
     69          1           0       -8.579115   -3.326486   -0.894875
     70          1           0       -0.787188   -0.437999    0.771892
     71          1           0       -1.111191    2.109958   -0.583192
     72          1           0       -1.421171    2.694887    2.168401
     73          1           0       -0.084448    2.957889    1.058823
     74          1           0       -0.238804    1.467449    1.987780
     75          1           0       -0.610294    0.311058   -2.169677
     76          1           0       -0.531442   -1.346654   -1.730524
     77          1           0        1.169138    0.662905   -0.374731
     78          1           0        1.555980    0.024805   -2.060256
     79          1           0       -4.412524    6.335066    0.304032
     80          1           0       -3.861913    5.544363    1.795415
     81          1           0       -5.386564    6.271891    1.902682
     82          1           0       -7.036750    7.038184    0.348392
     83          1           0       -7.450354    6.942731    2.058959
     84          1           0       -8.703236    7.492666    0.793196
     85          1           0      -10.587658    1.261479   -0.953313
     86          1           0      -10.625968   -1.583450   -0.019312
     87          1           0      -12.105553    1.153146    0.727115
     88          1           0      -10.696929    1.266455    1.695474
     89          1           0      -11.421473   -0.300535    1.585255
     90          1           0      -10.259833   -2.280482   -2.449667
     91          1           0      -10.263195   -0.475507   -2.861082
     92          1           0      -12.586147   -0.489930   -2.976141
     93          1           0      -12.597916   -1.197080   -1.355818
     94          1           0      -12.309616   -2.271138   -2.787613
     95          1           0       -6.017737   -6.079727   -1.379743
     96          1           0       -7.543990   -5.179572   -1.385546
     97          1           0       -6.836940   -5.808103    0.178002
     98          1           0       -1.479694   -3.213719   -0.748414
     99          1           0        0.887188   -4.102031    2.380891
    100          1           0       -0.276162   -5.550540    2.482467
    101          1           0       -0.447451   -4.054406    3.411092
    102          1           0        3.870159   -2.984104    0.089140
    103          1           0        4.056635   -1.910724    1.443757
    104          1           0        5.745567   -2.387798   -0.908895
    105          1           0        4.902904    0.634920    1.264032
    106          1           0        5.398584    1.672171   -0.034435
    107          1           0        6.665575    1.160951    1.018322
    108          1           0        7.619481   -1.321036   -1.366658
    109          1           0        8.071630   -0.532918    0.096033
    110          1           0        7.019081    1.560427   -1.424841
    111          1           0        7.765302    0.627302   -2.742182
    112          1           0        9.798801    0.794241   -0.704154
    113          1           0        8.893757    2.288436   -0.508064
    114          1           0       10.805232    2.685683   -2.076811
    115          1           0        8.144891    2.907678   -3.450676
    116          1           0        9.559199    2.682601   -4.470257
    117          1           0        9.456894    3.941674   -3.230483
    118          1           0       10.589779    0.865749   -4.163436
    119          1           0       10.596767   -0.086251   -2.675560
    120          1           0       12.686693    1.970647   -2.993640
    121          1           0       12.748911    0.349095   -3.762087
    122          1           0       13.305493   -0.608148   -1.814885
    123          1           0       11.828938    0.006154   -1.026037
    124          1           0       12.846645    2.121176   -0.671923
    125          1           0       15.377289    1.046594   -1.931801
    126          1           0       15.745652    1.768307   -0.414895
    127          1           0       14.828986    2.689861   -1.507857
    128          1           0       14.397860    1.315583    1.239459
    129          1           0       13.939959   -0.233108    0.850393
    130          1           0       11.642621    1.876712    1.098746
    131          1           0       12.663693    1.793911    2.451515
    132          1           0       11.486447   -0.721818    1.219131
    133          1           0       10.415655    0.337015    2.065401
    134          1           0       12.727168   -0.143238    3.751786
    135          1           0       13.181385   -2.382055    3.723486
    136          1           0       12.850462   -2.184500    2.008502
    137          1           0       11.635115   -2.894549    3.068260
    138          1           0       11.123827   -0.210762    5.199415
    139          1           0       10.601209   -1.883238    4.762443
    140          1           0        9.824744   -0.572858    3.971859
 ---------------------------------------------------------------------

 SCF Done:  E(RPBE1PBE) =  -3005.35378659     A.U. after   15 cycles

 Excitation energies and oscillator strengths:

 Excited State   1:      Singlet-A      1.8647 eV  664.90 nm  f=0.3593  <S**2>=0.000
     245 -> 248       -0.17610
     246 -> 247        0.69187
     246 <- 247       -0.10504
 This state for optimization and/or second-order correction.
 Total Energy, E(TD-HF/TD-DFT) =  -3005.28525994
 Copying the excited state density for this state as the 1-particle RhoCI density.

 Excited State   2:      Singlet-A      2.2015 eV  563.18 nm  f=0.1198  <S**2>=0.000
     245 -> 247        0.65765
     246 -> 248        0.24903

 Excited State   3:      Singlet-A      2.9930 eV  414.24 nm  f=0.0015  <S**2>=0.000
     241 -> 247       -0.10839
     243 -> 247       -0.25063
     244 -> 247        0.60582
     244 -> 249        0.10710

 Excited State   4:      Singlet-A      3.1159 eV  397.91 nm  f=0.0001  <S**2>=0.000
     240 -> 247        0.14225
     241 -> 247       -0.12038
     243 -> 247        0.59891
     244 -> 247        0.27322

 Excited State   5:      Singlet-A      3.1674 eV  391.44 nm  f=0.0008  <S**2>=0.000
     241 -> 247        0.65748
     243 -> 247        0.10302
     244 -> 247        0.15852

 The electronic state is 1-A.
 Alpha  occ. eigenvalues --  -46.92423 -19.25943 -19.22648 -19.19859 -19.19490
 Alpha  occ. eigenvalues --  -19.19395 -19.18548 -14.41462 -14.41290 -14.38853
 Alpha  occ. eigenvalues --  -14.38187 -10.36838 -10.34353 -10.32687 -10.32261
 Alpha  occ. eigenvalues --  -10.28944 -10.28804 -10.28742 -10.28432 -10.28073
 Alpha  occ. eigenvalues --  -10.27538 -10.27138 -10.26986 -10.26839 -10.26580
 Alpha  occ. eigenvalues --  -10.26311 -10.25988 -10.25978 -10.25859 -10.25528
 Alpha  occ. eigenvalues --  -10.25366 -10.25299 -10.25253 -10.25236 -10.25094
 Alpha  occ. eigenvalues --  -10.24943 -10.24858 -10.24519 -10.24414 -10.24362
 Alpha  occ. eigenvalues --  -10.24171 -10.24117 -10.23681 -10.23672 -10.23654
 Alpha  occ. eigenvalues --  -10.23637 -10.23467 -10.23340 -10.23322 -10.23290
 Alpha  occ. eigenvalues --  -10.23259 -10.23247 -10.22852 -10.22840 -10.22576
 Alpha  occ. eigenvalues --  -10.22575 -10.22374 -10.22244 -10.22232 -10.22080
 Alpha  occ. eigenvalues --  -10.22024 -10.21960 -10.21911 -10.21856 -10.21820
 Alpha  occ. eigenvalues --  -10.21538  -3.14390  -1.87249  -1.86756  -1.86613
 Alpha  occ. eigenvalues --   -1.11576  -1.09982  -1.05579  -1.04200  -1.01532
 Alpha  occ. eigenvalues --   -1.01458  -0.98994  -0.98561  -0.97740  -0.96180
 Alpha  occ. eigenvalues --   -0.86473  -0.84691  -0.84454  -0.83763  -0.83000
 Alpha  occ. eigenvalues --   -0.82833  -0.81848  -0.81705  -0.81465  -0.81325
 Alpha  occ. eigenvalues --   -0.80337  -0.79987  -0.78983  -0.77901  -0.77446
 Alpha  occ. eigenvalues --   -0.77012  -0.75743  -0.75226  -0.75065  -0.74679
 Alpha  occ. eigenvalues --   -0.73778  -0.72930  -0.72321  -0.71147  -0.70299
 Alpha  occ. eigenvalues --   -0.69961  -0.69016  -0.68983  -0.68852  -0.68725
 Alpha  occ. eigenvalues --   -0.68186  -0.67320  -0.66264  -0.65408  -0.63131
 Alpha  occ. eigenvalues --   -0.62836  -0.62477  -0.61568  -0.61309  -0.60305
 Alpha  occ. eigenvalues --   -0.59872  -0.59638  -0.59016  -0.58795  -0.58456
 Alpha  occ. eigenvalues --   -0.57517  -0.57364  -0.56189  -0.55749  -0.54596
 Alpha  occ. eigenvalues --   -0.54396  -0.53781  -0.53621  -0.53127  -0.52336
 Alpha  occ. eigenvalues --   -0.51917  -0.51672  -0.50632  -0.50511  -0.49796
 Alpha  occ. eigenvalues --   -0.49609  -0.49316  -0.48706  -0.48627  -0.48395
 Alpha  occ. eigenvalues --   -0.48291  -0.48038  -0.47638  -0.47367  -0.47044
 Alpha  occ. eigenvalues --   -0.46902  -0.46798  -0.46630  -0.46478  -0.46339
 Alpha  occ. eigenvalues --   -0.46002  -0.45785  -0.45338  -0.45203  -0.45142
 Alpha  occ. eigenvalues --   -0.44963  -0.44710  -0.44381  -0.44063  -0.43827
 Alpha  occ. eigenvalues --   -0.43762  -0.43645  -0.43615  -0.43250  -0.43068
 Alpha  occ. eigenvalues --   -0.43059  -0.42881  -0.42812  -0.42553  -0.42145
 Alpha  occ. eigenvalues --   -0.41817  -0.41685  -0.41519  -0.41439  -0.41203
 Alpha  occ. eigenvalues --   -0.41061  -0.41024  -0.40846  -0.40491  -0.40366
 Alpha  occ. eigenvalues --   -0.40255  -0.39955  -0.39855  -0.39685  -0.39624
 Alpha  occ. eigenvalues --   -0.39301  -0.39247  -0.39061  -0.38756  -0.38515
 Alpha  occ. eigenvalues --   -0.38437  -0.38251  -0.38142  -0.37995  -0.37969
 Alpha  occ. eigenvalues --   -0.37880  -0.37460  -0.37256  -0.37092  -0.37023
 Alpha  occ. eigenvalues --   -0.36953  -0.36474  -0.36339  -0.36010  -0.35848
 Alpha  occ. eigenvalues --   -0.35577  -0.35289  -0.35196  -0.35069  -0.34371
 Alpha  occ. eigenvalues --   -0.34016  -0.33930  -0.33859  -0.33603  -0.33478
 Alpha  occ. eigenvalues --   -0.33037  -0.32896  -0.32846  -0.32091  -0.32026
 Alpha  occ. eigenvalues --   -0.31790  -0.31492  -0.31215  -0.31085  -0.31064
 Alpha  occ. eigenvalues --   -0.30567  -0.29828  -0.29585  -0.29482  -0.29095
 Alpha  occ. eigenvalues --   -0.28783  -0.28679  -0.27863  -0.26787  -0.25789
 Alpha  occ. eigenvalues --   -0.25643  -0.25498  -0.25452  -0.25227  -0.20629
 Alpha  occ. eigenvalues --   -0.18663
 Alpha virt. eigenvalues --   -0.10974  -0.04780  -0.03591  -0.01908  -0.00353
 Alpha virt. eigenvalues --    0.00501   0.00568   0.01454   0.02292   0.03327
 Alpha virt. eigenvalues --    0.04279   0.04528   0.04965   0.05092   0.05845

 Mulliken charges:
               1
     1  Mg   0.942715
     2  C   -0.010075
     3  C   -0.107391
     4  C   -0.045074
     5  C   -0.080636
     6  N   -0.403423
     7  C    0.073072
     8  C   -0.089018
     9  C   -0.118618
    10  C    0.096198
    11  C    0.012161
    12  C    0.050220
    13  C   -0.053056
    14  C    0.221608
    15  O   -0.289528
    16  O   -0.348355
    17  N   -0.528417
    18  C    0.212255
    19  C   -0.209529
    20  C   -0.114374
    21  C    0.172674
    22  C    0.048886
    23  C    0.068879
    24  O   -0.227384
    25  C   -0.035306
    26  N   -0.384433
    27  C    0.064475
    28  C   -0.136078
    29  C   -0.070137
    30  C    0.090048
    31  C    0.011980
    32  C   -0.051779
    33  C   -0.071128
    34  N   -0.402909
    35  C    0.108760
    36  C   -0.203835
    37  C   -0.020508
    38  C    0.143328
    39  C    0.076419
    40  C    0.152041
    41  O   -0.199724
    42  C   -0.183358
    43  C    0.305215
    44  O   -0.233625
    45  O   -0.359628
    46  C    0.127724
    47  C    0.277427
    48  C   -0.176890
    49  C   -0.174361
    50  C    0.012969
    51  C   -0.020706
    52  C   -0.061065
    53  C   -0.024156
    54  C   -0.179261
    55  C   -0.024908
    56  C   -0.049421
    57  C   -0.048239
    58  C    0.008158
    59  C   -0.228724
    60  C   -0.009826
    61  C    0.004111
    62  C   -0.039078
    63  C    0.004857
    64  C   -0.236355
    65  C   -0.042918
    66  C   -0.007846
    67  H   -0.001728
    68  H    0.033555
    69  H    0.001731
    70  H    0.053527
    71  H    0.044740
    72  H    0.051407
    73  H    0.040272
    74  H    0.039347
    75  H    0.028044
    76  H    0.055557
    77  H    0.060501
    78  H    0.077781
    79  H    0.073659
    80  H    0.044409
    81  H    0.039895
    82  H    0.057013
    83  H    0.073022
    84  H    0.063131
    85  H    0.047877
    86  H    0.045968
    87  H    0.046121
    88  H    0.037487
    89  H    0.050906
    90  H    0.042794
    91  H    0.044604
    92  H    0.051863
    93  H    0.042147
    94  H    0.046262
    95  H    0.063726
    96  H    0.040883
    97  H    0.074287
    98  H    0.087575
    99  H    0.045588
   100  H    0.063360
   101  H    0.042212
   102  H    0.055045
   103  H    0.050730
   104  H    0.023270
   105  H    0.043035
   106  H    0.055098
   107  H    0.045733
   108  H    0.023113
   109  H    0.058570
   110  H    0.033259
   111  H    0.050801
   112  H    0.040996
   113  H    0.029468
   114  H    0.029126
   115  H    0.037146
   116  H    0.032970
   117  H    0.027778
   118  H    0.018435
   119  H    0.025148
   120  H    0.032863
   121  H    0.030477
   122  H    0.025258
   123  H    0.032715
   124  H    0.031383
   125  H    0.035846
   126  H    0.031974
   127  H    0.031352
   128  H    0.008515
   129  H    0.027627
   130  H    0.024800
   131  H    0.027038
   132  H    0.025149
   133  H    0.017833
   134  H    0.035370
   135  H    0.033762
   136  H    0.030154
   137  H    0.036265
   138  H    0.042168
   139  H    0.038786
   140  H    0.026324
 Sum of Mulliken charges =  -0.00000

 Dipole moment (field-independent basis, Debye):
    X=              3.1597    Y=              5.3369    Z=             -1.0528  Tot=              6.2909
 Quadrupole moment (field-independent basis, Debye-Ang):
   XX=           -376.5747   YY=           -411.6648   ZZ=           -401.4161
   XY=             13.3871   XZ=             20.2586   YZ=             -0.9896

 Normal termination of Gaussian 16 at Thu May  5 02:02:01 2022.
