 Gaussian 16, Revision A.03,
 Gaussian 16:  ES64L-G16RevA.03 25-Dec-2016

 --------------------------------
 #p wB97XD/Def2SVP td=(nstates=5)
 --------------------------------

 ---------------------------------------------------
 step_51_chromophore_19 TDDFT with wB97XD functional
 ---------------------------------------------------
 Symbolic Z-matrix:
 Charge =  0 Multiplicity = 1

                         Standard orientation:
 ---------------------------------------------------------------------
 Center     Atomic      Atomic             Coordinates (Angstroms)
 Number     Number       Type             X           Y           Z
 ---------------------------------------------------------------------
      1         12           0       -5.791566    0.429672   -0.128459
      2          6           0       -3.152614   -1.855769   -0.136056
      3          6           0       -3.652337    2.968826    0.325433
      4          6           0       -8.491198    2.300737    0.321699
      5          6           0       -7.952432   -2.468299   -0.643733
      6          7           0       -3.576345    0.547487   -0.062939
      7          6           0       -2.731176   -0.507335   -0.147761
      8          6           0       -1.301342   -0.027458   -0.097321
      9          6           0       -1.486529    1.534170    0.262658
     10          6           0       -2.972389    1.770975    0.092332
     11          6           0       -0.793549    2.212850    1.418891
     12          6           0       -0.423143   -0.343490   -1.317722
     13          6           0        1.086515   -0.154263   -1.092296
     14          6           0        1.919856   -1.322977   -0.624653
     15          8           0        1.584930   -2.534159   -0.657463
     16          8           0        3.155042   -0.951311   -0.166421
     17          7           0       -6.027784    2.382106    0.295143
     18          6           0       -5.019572    3.233976    0.375458
     19          6           0       -5.561251    4.499984    0.811472
     20          6           0       -7.010792    4.347157    0.783485
     21          6           0       -7.258491    2.955281    0.497935
     22          6           0       -4.732817    5.777424    1.184041
     23          6           0       -8.193790    5.369338    0.935020
     24          8           0       -9.365748    5.061466    0.909322
     25          6           0       -7.852658    6.860579    1.048785
     26          7           0       -7.915810   -0.127758    0.066527
     27          6           0       -8.766747    0.949301    0.058283
     28          6           0      -10.247287    0.536137   -0.212991
     29          6           0      -10.069797   -0.946410   -0.706854
     30          6           0       -8.573573   -1.227624   -0.510345
     31          6           0      -11.209885    0.597839    1.005326
     32          6           0      -10.600465   -1.275529   -2.202660
     33          6           0      -12.167100   -1.280797   -2.353960
     34          7           0       -5.639684   -1.760798   -0.325865
     35          6           0       -6.597840   -2.763557   -0.527119
     36          6           0       -5.956837   -4.051800   -0.611857
     37          6           0       -4.634386   -3.771575   -0.388178
     38          6           0       -4.485797   -2.354822   -0.264194
     39          6           0       -6.642540   -5.391061   -0.810936
     40          6           0       -3.289859   -4.366634   -0.414150
     41          8           0       -2.840915   -5.483903   -0.632258
     42          6           0       -2.331195   -3.136782   -0.073778
     43          6           0       -1.988689   -3.295757    1.309388
     44          8           0       -2.614266   -3.141947    2.325754
     45          8           0       -0.819538   -4.011321    1.283155
     46          6           0       -0.136874   -4.469623    2.452822
     47          6           0        4.042243   -1.940276    0.353932
     48          6           0        5.254650   -1.602935   -0.334650
     49          6           0        5.980903   -0.467298   -0.257325
     50          6           0        5.725791    0.830798    0.575943
     51          6           0        7.455742   -0.408946   -0.793787
     52          6           0        7.784794    0.824110   -1.670473
     53          6           0        9.172058    1.517041   -1.226198
     54          6           0       10.009485    2.022182   -2.416035
     55          6           0        9.234951    2.898582   -3.452327
     56          6           0       10.828393    0.890380   -3.100246
     57          6           0       12.378708    0.929071   -2.916427
     58          6           0       12.747212    0.286791   -1.543003
     59          6           0       13.500574    1.249957   -0.661780
     60          6           0       14.945725    1.667581   -1.146787
     61          6           0       13.548980    0.783583    0.809844
     62          6           0       12.314913    1.190489    1.613620
     63          6           0       11.456959    0.021569    2.015736
     64          6           0       11.888011   -0.686940    3.318107
     65          6           0       12.405353   -2.126459    3.001598
     66          6           0       10.781066   -0.869909    4.402503
     67          1           0       -3.001462    3.799434    0.606578
     68          1           0       -9.406079    2.894985    0.353825
     69          1           0       -8.579115   -3.326486   -0.894875
     70          1           0       -0.787188   -0.437999    0.771892
     71          1           0       -1.111191    2.109958   -0.583192
     72          1           0       -1.421171    2.694887    2.168401
     73          1           0       -0.084448    2.957889    1.058823
     74          1           0       -0.238804    1.467449    1.987780
     75          1           0       -0.610294    0.311058   -2.169677
     76          1           0       -0.531442   -1.346654   -1.730524
     77          1           0        1.169138    0.662905   -0.374731
     78          1           0        1.555980    0.024805   -2.060256
     79          1           0       -4.412524    6.335066    0.304032
     80          1           0       -3.861913    5.544363    1.795415
     81          1           0       -5.386564    6.271891    1.902682
     82          1           0       -7.036750    7.038184    0.348392
     83          1           0       -7.450354    6.942731    2.058959
     84          1           0       -8.703236    7.492666    0.793196
     85          1           0      -10.587658    1.261479   -0.953313
     86          1           0      -10.625968   -1.583450   -0.019312
     87          1           0      -12.105553    1.153146    0.727115
     88          1           0      -10.696929    1.266455    1.695474
     89          1           0      -11.421473   -0.300535    1.585255
     90          1           0      -10.259833   -2.280482   -2.449667
     91          1           0      -10.263195   -0.475507   -2.861082
     92          1           0      -12.586147   -0.489930   -2.976141
     93          1           0      -12.597916   -1.197080   -1.355818
     94          1           0      -12.309616   -2.271138   -2.787613
     95          1           0       -6.017737   -6.079727   -1.379743
     96          1           0       -7.543990   -5.179572   -1.385546
     97          1           0       -6.836940   -5.808103    0.178002
     98          1           0       -1.479694   -3.213719   -0.748414
     99          1           0        0.887188   -4.102031    2.380891
    100          1           0       -0.276162   -5.550540    2.482467
    101          1           0       -0.447451   -4.054406    3.411092
    102          1           0        3.870159   -2.984104    0.089140
    103          1           0        4.056635   -1.910724    1.443757
    104          1           0        5.745567   -2.387798   -0.908895
    105          1           0        4.902904    0.634920    1.264032
    106          1           0        5.398584    1.672171   -0.034435
    107          1           0        6.665575    1.160951    1.018322
    108          1           0        7.619481   -1.321036   -1.366658
    109          1           0        8.071630   -0.532918    0.096033
    110          1           0        7.019081    1.560427   -1.424841
    111          1           0        7.765302    0.627302   -2.742182
    112          1           0        9.798801    0.794241   -0.704154
    113          1           0        8.893757    2.288436   -0.508064
    114          1           0       10.805232    2.685683   -2.076811
    115          1           0        8.144891    2.907678   -3.450676
    116          1           0        9.559199    2.682601   -4.470257
    117          1           0        9.456894    3.941674   -3.230483
    118          1           0       10.589779    0.865749   -4.163436
    119          1           0       10.596767   -0.086251   -2.675560
    120          1           0       12.686693    1.970647   -2.993640
    121          1           0       12.748911    0.349095   -3.762087
    122          1           0       13.305493   -0.608148   -1.814885
    123          1           0       11.828938    0.006154   -1.026037
    124          1           0       12.846645    2.121176   -0.671923
    125          1           0       15.377289    1.046594   -1.931801
    126          1           0       15.745652    1.768307   -0.414895
    127          1           0       14.828986    2.689861   -1.507857
    128          1           0       14.397860    1.315583    1.239459
    129          1           0       13.939959   -0.233108    0.850393
    130          1           0       11.642621    1.876712    1.098746
    131          1           0       12.663693    1.793911    2.451515
    132          1           0       11.486447   -0.721818    1.219131
    133          1           0       10.415655    0.337015    2.065401
    134          1           0       12.727168   -0.143238    3.751786
    135          1           0       13.181385   -2.382055    3.723486
    136          1           0       12.850462   -2.184500    2.008502
    137          1           0       11.635115   -2.894549    3.068260
    138          1           0       11.123827   -0.210762    5.199415
    139          1           0       10.601209   -1.883238    4.762443
    140          1           0        9.824744   -0.572858    3.971859
 ---------------------------------------------------------------------

 SCF Done:  E(RwB97XD) =  -3007.86540241     A.U. after   19 cycles

 Excitation energies and oscillator strengths:

 Excited State   1:      Singlet-A      1.6467 eV  752.91 nm  f=0.3703  <S**2>=0.000
     245 -> 248        0.18982
     246 -> 247        0.68290
     245 <- 248        0.11986
 This state for optimization and/or second-order correction.
 Total Energy, E(TD-HF/TD-DFT) =  -3007.80488584
 Copying the excited state density for this state as the 1-particle RhoCI density.

 Excited State   2:      Singlet-A      2.1383 eV  579.83 nm  f=0.1180  <S**2>=0.000
     245 -> 247        0.64571
     246 -> 248       -0.27847
     246 <- 248       -0.10072

 Excited State   3:      Singlet-A      3.4466 eV  359.73 nm  f=0.0295  <S**2>=0.000
     241 -> 249        0.11398
     242 -> 247       -0.13693
     243 -> 247        0.11213
     244 -> 247        0.58554
     246 -> 248       -0.19570

 Excited State   4:      Singlet-A      3.5292 eV  351.31 nm  f=0.0900  <S**2>=0.000
     241 -> 247       -0.23595
     241 -> 249       -0.13585
     242 -> 247        0.28588
     243 -> 247       -0.28180
     244 -> 247        0.34286
     244 -> 249       -0.11333
     245 -> 247        0.10134
     246 -> 248        0.30266

 Excited State   5:      Singlet-A      3.5859 eV  345.75 nm  f=0.1537  <S**2>=0.000
     241 -> 247        0.51016
     241 -> 249        0.19351
     242 -> 247        0.12777
     245 -> 247        0.11258
     246 -> 248        0.34277

 The electronic state is 1-A.
 Alpha  occ. eigenvalues --  -46.95376 -19.30483 -19.27246 -19.24500 -19.24289
 Alpha  occ. eigenvalues --  -19.24228 -19.23333 -14.46457 -14.46449 -14.43793
 Alpha  occ. eigenvalues --  -14.43159 -10.43621 -10.41245 -10.39498 -10.39152
 Alpha  occ. eigenvalues --  -10.35295 -10.35283 -10.35048 -10.34689 -10.34320
 Alpha  occ. eigenvalues --  -10.33852 -10.33517 -10.33478 -10.33140 -10.32849
 Alpha  occ. eigenvalues --  -10.32707 -10.32408 -10.32223 -10.32211 -10.31769
 Alpha  occ. eigenvalues --  -10.31728 -10.31603 -10.31521 -10.31509 -10.31478
 Alpha  occ. eigenvalues --  -10.31351 -10.31307 -10.30859 -10.30772 -10.30707
 Alpha  occ. eigenvalues --  -10.30600 -10.30558 -10.30178 -10.30098 -10.30050
 Alpha  occ. eigenvalues --  -10.29955 -10.29902 -10.29812 -10.29718 -10.29628
 Alpha  occ. eigenvalues --  -10.29560 -10.29530 -10.29235 -10.29189 -10.28922
 Alpha  occ. eigenvalues --  -10.28910 -10.28729 -10.28613 -10.28610 -10.28447
 Alpha  occ. eigenvalues --  -10.28420 -10.28385 -10.28271 -10.28266 -10.28180
 Alpha  occ. eigenvalues --  -10.27960  -3.21216  -1.94823  -1.94327  -1.94180
 Alpha  occ. eigenvalues --   -1.18942  -1.17432  -1.13045  -1.11708  -1.08945
 Alpha  occ. eigenvalues --   -1.08811  -1.06354  -1.05900  -1.05105  -1.03602
 Alpha  occ. eigenvalues --   -0.94114  -0.92341  -0.92119  -0.91409  -0.90591
 Alpha  occ. eigenvalues --   -0.90484  -0.89442  -0.89292  -0.89115  -0.88956
 Alpha  occ. eigenvalues --   -0.87956  -0.87682  -0.86616  -0.85525  -0.85083
 Alpha  occ. eigenvalues --   -0.84635  -0.83417  -0.82927  -0.82705  -0.82322
 Alpha  occ. eigenvalues --   -0.81436  -0.80576  -0.79958  -0.78759  -0.77911
 Alpha  occ. eigenvalues --   -0.77616  -0.76694  -0.76679  -0.76455  -0.76382
 Alpha  occ. eigenvalues --   -0.75795  -0.74869  -0.73832  -0.72986  -0.70730
 Alpha  occ. eigenvalues --   -0.70435  -0.70024  -0.69158  -0.68878  -0.67792
 Alpha  occ. eigenvalues --   -0.67503  -0.67123  -0.66479  -0.66204  -0.65939
 Alpha  occ. eigenvalues --   -0.65179  -0.65027  -0.63800  -0.63213  -0.62055
 Alpha  occ. eigenvalues --   -0.61849  -0.61248  -0.61009  -0.60566  -0.59818
 Alpha  occ. eigenvalues --   -0.59383  -0.59088  -0.58086  -0.57898  -0.57194
 Alpha  occ. eigenvalues --   -0.57073  -0.56714  -0.56199  -0.56035  -0.55728
 Alpha  occ. eigenvalues --   -0.55676  -0.55424  -0.55059  -0.54677  -0.54569
 Alpha  occ. eigenvalues --   -0.54259  -0.54176  -0.53975  -0.53841  -0.53737
 Alpha  occ. eigenvalues --   -0.53370  -0.53113  -0.52745  -0.52608  -0.52551
 Alpha  occ. eigenvalues --   -0.52288  -0.52044  -0.51686  -0.51436  -0.51171
 Alpha  occ. eigenvalues --   -0.51112  -0.50944  -0.50932  -0.50552  -0.50394
 Alpha  occ. eigenvalues --   -0.50341  -0.50139  -0.50119  -0.49855  -0.49424
 Alpha  occ. eigenvalues --   -0.49101  -0.48813  -0.48762  -0.48700  -0.48484
 Alpha  occ. eigenvalues --   -0.48268  -0.48182  -0.48060  -0.47708  -0.47640
 Alpha  occ. eigenvalues --   -0.47386  -0.47175  -0.47057  -0.46905  -0.46831
 Alpha  occ. eigenvalues --   -0.46548  -0.46455  -0.46230  -0.45872  -0.45663
 Alpha  occ. eigenvalues --   -0.45561  -0.45389  -0.45295  -0.45282  -0.45137
 Alpha  occ. eigenvalues --   -0.44930  -0.44595  -0.44404  -0.44196  -0.44096
 Alpha  occ. eigenvalues --   -0.44031  -0.43525  -0.43475  -0.43143  -0.42888
 Alpha  occ. eigenvalues --   -0.42637  -0.42366  -0.42182  -0.42110  -0.41401
 Alpha  occ. eigenvalues --   -0.41117  -0.40997  -0.40861  -0.40641  -0.40465
 Alpha  occ. eigenvalues --   -0.40028  -0.39947  -0.39776  -0.39054  -0.39038
 Alpha  occ. eigenvalues --   -0.38757  -0.38498  -0.38231  -0.38070  -0.37953
 Alpha  occ. eigenvalues --   -0.37519  -0.36740  -0.36713  -0.36359  -0.35899
 Alpha  occ. eigenvalues --   -0.35852  -0.35405  -0.35077  -0.33387  -0.32750
 Alpha  occ. eigenvalues --   -0.32497  -0.32210  -0.32202  -0.31911  -0.25590
 Alpha  occ. eigenvalues --   -0.22836
 Alpha virt. eigenvalues --   -0.06857   0.00606   0.02722   0.04623   0.06314
 Alpha virt. eigenvalues --    0.06407   0.07351   0.08198   0.08994   0.09626
 Alpha virt. eigenvalues --    0.10989   0.11216   0.11657   0.11932   0.12479

 Mulliken charges:
               1
     1  Mg   0.936326
     2  C   -0.009216
     3  C   -0.124484
     4  C   -0.062108
     5  C   -0.096834
     6  N   -0.369083
     7  C    0.043117
     8  C   -0.061080
     9  C   -0.092002
    10  C    0.079021
    11  C    0.021800
    12  C    0.058368
    13  C   -0.032817
    14  C    0.208911
    15  O   -0.286676
    16  O   -0.346922
    17  N   -0.491742
    18  C    0.203474
    19  C   -0.204572
    20  C   -0.106823
    21  C    0.161607
    22  C    0.065233
    23  C    0.063679
    24  O   -0.222248
    25  C   -0.021408
    26  N   -0.356825
    27  C    0.055650
    28  C   -0.114858
    29  C   -0.043334
    30  C    0.077499
    31  C    0.021693
    32  C   -0.036103
    33  C   -0.055074
    34  N   -0.363200
    35  C    0.104949
    36  C   -0.201509
    37  C   -0.020580
    38  C    0.119191
    39  C    0.088786
    40  C    0.137703
    41  O   -0.190367
    42  C   -0.142696
    43  C    0.277720
    44  O   -0.227806
    45  O   -0.357047
    46  C    0.142327
    47  C    0.286107
    48  C   -0.176268
    49  C   -0.171400
    50  C    0.027897
    51  C    0.000580
    52  C   -0.043956
    53  C    0.007496
    54  C   -0.151034
    55  C   -0.014742
    56  C   -0.029085
    57  C   -0.031750
    58  C    0.026740
    59  C   -0.186700
    60  C   -0.001031
    61  C    0.017298
    62  C   -0.017745
    63  C    0.025719
    64  C   -0.211916
    65  C   -0.026181
    66  C    0.004138
    67  H   -0.010707
    68  H    0.029005
    69  H   -0.004536
    70  H    0.038273
    71  H    0.031735
    72  H    0.046073
    73  H    0.035863
    74  H    0.033132
    75  H    0.021701
    76  H    0.046042
    77  H    0.051787
    78  H    0.073388
    79  H    0.069994
    80  H    0.039838
    81  H    0.031327
    82  H    0.049816
    83  H    0.067361
    84  H    0.062381
    85  H    0.038592
    86  H    0.033299
    87  H    0.041096
    88  H    0.029658
    89  H    0.046465
    90  H    0.033659
    91  H    0.036367
    92  H    0.046948
    93  H    0.033994
    94  H    0.040717
    95  H    0.060482
    96  H    0.034733
    97  H    0.070123
    98  H    0.081657
    99  H    0.042365
   100  H    0.059736
   101  H    0.038232
   102  H    0.052030
   103  H    0.047505
   104  H    0.019446
   105  H    0.037441
   106  H    0.049409
   107  H    0.038687
   108  H    0.015466
   109  H    0.048820
   110  H    0.020138
   111  H    0.042974
   112  H    0.014265
   113  H    0.022054
   114  H    0.014357
   115  H    0.030894
   116  H    0.026986
   117  H    0.022481
   118  H    0.010431
   119  H    0.012182
   120  H    0.021667
   121  H    0.024223
   122  H    0.018313
   123  H    0.010524
   124  H    0.010290
   125  H    0.030422
   126  H    0.026816
   127  H    0.025553
   128  H   -0.000771
   129  H    0.016967
   130  H    0.014279
   131  H    0.019700
   132  H    0.010793
   133  H    0.008226
   134  H    0.024285
   135  H    0.027972
   136  H    0.021561
   137  H    0.029575
   138  H    0.036817
   139  H    0.033068
   140  H    0.019750
 Sum of Mulliken charges =  -0.00000

 Dipole moment (field-independent basis, Debye):
    X=              3.1463    Y=              5.3581    Z=             -1.0203  Tot=              6.2968
 Quadrupole moment (field-independent basis, Debye-Ang):
   XX=           -377.4133   YY=           -410.0631   ZZ=           -400.8774
   XY=             12.5636   XZ=             20.2929   YZ=             -0.9979

 Normal termination of Gaussian 16 at Thu May  5 02:33:13 2022.
