 Gaussian 16, Revision A.03,
 Gaussian 16:  ES64L-G16RevA.03 25-Dec-2016

 --------------------
 #p ZINDO=(nstates=5)
 --------------------

 ----------------------------
 step_51_chromophore_19 ZINDO
 ----------------------------
 Symbolic Z-matrix:
 Charge =  0 Multiplicity = 1

                         Standard orientation:
 ---------------------------------------------------------------------
 Center     Atomic      Atomic             Coordinates (Angstroms)
 Number     Number       Type             X           Y           Z
 ---------------------------------------------------------------------
      1         12           0       -5.791566    0.429672   -0.128459
      2          6           0       -3.152614   -1.855769   -0.136056
      3          6           0       -3.652337    2.968826    0.325433
      4          6           0       -8.491198    2.300737    0.321699
      5          6           0       -7.952432   -2.468299   -0.643733
      6          7           0       -3.576345    0.547487   -0.062939
      7          6           0       -2.731176   -0.507335   -0.147761
      8          6           0       -1.301342   -0.027458   -0.097321
      9          6           0       -1.486529    1.534170    0.262658
     10          6           0       -2.972389    1.770975    0.092332
     11          6           0       -0.793549    2.212850    1.418891
     12          6           0       -0.423143   -0.343490   -1.317722
     13          6           0        1.086515   -0.154263   -1.092296
     14          6           0        1.919856   -1.322977   -0.624653
     15          8           0        1.584930   -2.534159   -0.657463
     16          8           0        3.155042   -0.951311   -0.166421
     17          7           0       -6.027784    2.382106    0.295143
     18          6           0       -5.019572    3.233976    0.375458
     19          6           0       -5.561251    4.499984    0.811472
     20          6           0       -7.010792    4.347157    0.783485
     21          6           0       -7.258491    2.955281    0.497935
     22          6           0       -4.732817    5.777424    1.184041
     23          6           0       -8.193790    5.369338    0.935020
     24          8           0       -9.365748    5.061466    0.909322
     25          6           0       -7.852658    6.860579    1.048785
     26          7           0       -7.915810   -0.127758    0.066527
     27          6           0       -8.766747    0.949301    0.058283
     28          6           0      -10.247287    0.536137   -0.212991
     29          6           0      -10.069797   -0.946410   -0.706854
     30          6           0       -8.573573   -1.227624   -0.510345
     31          6           0      -11.209885    0.597839    1.005326
     32          6           0      -10.600465   -1.275529   -2.202660
     33          6           0      -12.167100   -1.280797   -2.353960
     34          7           0       -5.639684   -1.760798   -0.325865
     35          6           0       -6.597840   -2.763557   -0.527119
     36          6           0       -5.956837   -4.051800   -0.611857
     37          6           0       -4.634386   -3.771575   -0.388178
     38          6           0       -4.485797   -2.354822   -0.264194
     39          6           0       -6.642540   -5.391061   -0.810936
     40          6           0       -3.289859   -4.366634   -0.414150
     41          8           0       -2.840915   -5.483903   -0.632258
     42          6           0       -2.331195   -3.136782   -0.073778
     43          6           0       -1.988689   -3.295757    1.309388
     44          8           0       -2.614266   -3.141947    2.325754
     45          8           0       -0.819538   -4.011321    1.283155
     46          6           0       -0.136874   -4.469623    2.452822
     47          6           0        4.042243   -1.940276    0.353932
     48          6           0        5.254650   -1.602935   -0.334650
     49          6           0        5.980903   -0.467298   -0.257325
     50          6           0        5.725791    0.830798    0.575943
     51          6           0        7.455742   -0.408946   -0.793787
     52          6           0        7.784794    0.824110   -1.670473
     53          6           0        9.172058    1.517041   -1.226198
     54          6           0       10.009485    2.022182   -2.416035
     55          6           0        9.234951    2.898582   -3.452327
     56          6           0       10.828393    0.890380   -3.100246
     57          6           0       12.378708    0.929071   -2.916427
     58          6           0       12.747212    0.286791   -1.543003
     59          6           0       13.500574    1.249957   -0.661780
     60          6           0       14.945725    1.667581   -1.146787
     61          6           0       13.548980    0.783583    0.809844
     62          6           0       12.314913    1.190489    1.613620
     63          6           0       11.456959    0.021569    2.015736
     64          6           0       11.888011   -0.686940    3.318107
     65          6           0       12.405353   -2.126459    3.001598
     66          6           0       10.781066   -0.869909    4.402503
     67          1           0       -3.001462    3.799434    0.606578
     68          1           0       -9.406079    2.894985    0.353825
     69          1           0       -8.579115   -3.326486   -0.894875
     70          1           0       -0.787188   -0.437999    0.771892
     71          1           0       -1.111191    2.109958   -0.583192
     72          1           0       -1.421171    2.694887    2.168401
     73          1           0       -0.084448    2.957889    1.058823
     74          1           0       -0.238804    1.467449    1.987780
     75          1           0       -0.610294    0.311058   -2.169677
     76          1           0       -0.531442   -1.346654   -1.730524
     77          1           0        1.169138    0.662905   -0.374731
     78          1           0        1.555980    0.024805   -2.060256
     79          1           0       -4.412524    6.335066    0.304032
     80          1           0       -3.861913    5.544363    1.795415
     81          1           0       -5.386564    6.271891    1.902682
     82          1           0       -7.036750    7.038184    0.348392
     83          1           0       -7.450354    6.942731    2.058959
     84          1           0       -8.703236    7.492666    0.793196
     85          1           0      -10.587658    1.261479   -0.953313
     86          1           0      -10.625968   -1.583450   -0.019312
     87          1           0      -12.105553    1.153146    0.727115
     88          1           0      -10.696929    1.266455    1.695474
     89          1           0      -11.421473   -0.300535    1.585255
     90          1           0      -10.259833   -2.280482   -2.449667
     91          1           0      -10.263195   -0.475507   -2.861082
     92          1           0      -12.586147   -0.489930   -2.976141
     93          1           0      -12.597916   -1.197080   -1.355818
     94          1           0      -12.309616   -2.271138   -2.787613
     95          1           0       -6.017737   -6.079727   -1.379743
     96          1           0       -7.543990   -5.179572   -1.385546
     97          1           0       -6.836940   -5.808103    0.178002
     98          1           0       -1.479694   -3.213719   -0.748414
     99          1           0        0.887188   -4.102031    2.380891
    100          1           0       -0.276162   -5.550540    2.482467
    101          1           0       -0.447451   -4.054406    3.411092
    102          1           0        3.870159   -2.984104    0.089140
    103          1           0        4.056635   -1.910724    1.443757
    104          1           0        5.745567   -2.387798   -0.908895
    105          1           0        4.902904    0.634920    1.264032
    106          1           0        5.398584    1.672171   -0.034435
    107          1           0        6.665575    1.160951    1.018322
    108          1           0        7.619481   -1.321036   -1.366658
    109          1           0        8.071630   -0.532918    0.096033
    110          1           0        7.019081    1.560427   -1.424841
    111          1           0        7.765302    0.627302   -2.742182
    112          1           0        9.798801    0.794241   -0.704154
    113          1           0        8.893757    2.288436   -0.508064
    114          1           0       10.805232    2.685683   -2.076811
    115          1           0        8.144891    2.907678   -3.450676
    116          1           0        9.559199    2.682601   -4.470257
    117          1           0        9.456894    3.941674   -3.230483
    118          1           0       10.589779    0.865749   -4.163436
    119          1           0       10.596767   -0.086251   -2.675560
    120          1           0       12.686693    1.970647   -2.993640
    121          1           0       12.748911    0.349095   -3.762087
    122          1           0       13.305493   -0.608148   -1.814885
    123          1           0       11.828938    0.006154   -1.026037
    124          1           0       12.846645    2.121176   -0.671923
    125          1           0       15.377289    1.046594   -1.931801
    126          1           0       15.745652    1.768307   -0.414895
    127          1           0       14.828986    2.689861   -1.507857
    128          1           0       14.397860    1.315583    1.239459
    129          1           0       13.939959   -0.233108    0.850393
    130          1           0       11.642621    1.876712    1.098746
    131          1           0       12.663693    1.793911    2.451515
    132          1           0       11.486447   -0.721818    1.219131
    133          1           0       10.415655    0.337015    2.065401
    134          1           0       12.727168   -0.143238    3.751786
    135          1           0       13.181385   -2.382055    3.723486
    136          1           0       12.850462   -2.184500    2.008502
    137          1           0       11.635115   -2.894549    3.068260
    138          1           0       11.123827   -0.210762    5.199415
    139          1           0       10.601209   -1.883238    4.762443
    140          1           0        9.824744   -0.572858    3.971859
 ---------------------------------------------------------------------

 SCF Done:  E(RZINDO/S) =  -474.361831316     A.U. after   20 cycles

 Excitation energies and oscillator strengths:

 Excited State   1:      Singlet-A      1.2391 eV 1000.60 nm  f=0.5847  <S**2>=0.000
     175 ->178         0.19814
     176 ->177         0.66149
 This state for optimization and/or second-order correction.
 Total Energy, E(CIS/TDA) =  -474.316295305
 Copying the excited state density for this state as the 1-particle RhoCI density.

 Excited State   2:      Singlet-A      1.8865 eV  657.23 nm  f=0.0679  <S**2>=0.000
     175 ->177         0.57328
     176 ->178        -0.38419

 Excited State   3:      Singlet-A      2.9545 eV  419.64 nm  f=0.2820  <S**2>=0.000
     168 ->179         0.12330
     169 ->177        -0.20930
     169 ->179         0.26832
     169 ->181        -0.12277
     170 ->179         0.10668
     174 ->177         0.12527
     175 ->177         0.19539
     176 ->178         0.35278
     176 ->179         0.18930

 Excited State   4:      Singlet-A      3.0384 eV  408.06 nm  f=0.4369  <S**2>=0.000
     168 ->177         0.12810
     168 ->179        -0.13356
     168 ->181         0.10165
     169 ->177         0.18467
     169 ->179        -0.26180
     169 ->186        -0.10934
     170 ->177         0.11827
     175 ->177         0.22668
     176 ->178         0.37982
     176 ->179         0.20991

 Excited State   5:      Singlet-A      3.0620 eV  404.91 nm  f=0.0005  <S**2>=0.000
     168 ->179         0.14324
     168 ->181         0.17908
     168 ->186         0.12890
     169 ->177        -0.16742
     169 ->179        -0.10418
     169 ->181        -0.24568
     169 ->186        -0.12409
     170 ->177         0.19572
     170 ->179         0.19350
     170 ->181         0.29497
     170 ->186         0.17579
     176 ->179        -0.13665

 The electronic state is 1-A.
 Alpha  occ. eigenvalues --   -1.84684  -1.81952  -1.78297  -1.74940  -1.73858
 Alpha  occ. eigenvalues --   -1.70275  -1.67310  -1.59934  -1.58561  -1.57115
 Alpha  occ. eigenvalues --   -1.55104  -1.52294  -1.49397  -1.48194  -1.44871
 Alpha  occ. eigenvalues --   -1.43172  -1.42274  -1.39549  -1.38493  -1.37899
 Alpha  occ. eigenvalues --   -1.35569  -1.34488  -1.32313  -1.31004  -1.28265
 Alpha  occ. eigenvalues --   -1.27765  -1.24856  -1.21993  -1.21075  -1.18509
 Alpha  occ. eigenvalues --   -1.18427  -1.16016  -1.14478  -1.14217  -1.12409
 Alpha  occ. eigenvalues --   -1.12236  -1.11739  -1.09835  -1.06035  -1.04583
 Alpha  occ. eigenvalues --   -1.02843  -1.01691  -0.99719  -0.97663  -0.97078
 Alpha  occ. eigenvalues --   -0.95201  -0.94192  -0.93002  -0.92033  -0.91768
 Alpha  occ. eigenvalues --   -0.91150  -0.90424  -0.89479  -0.87985  -0.86351
 Alpha  occ. eigenvalues --   -0.85320  -0.85189  -0.84047  -0.82575  -0.79777
 Alpha  occ. eigenvalues --   -0.79030  -0.78594  -0.77552  -0.77078  -0.76486
 Alpha  occ. eigenvalues --   -0.76092  -0.75310  -0.74809  -0.74088  -0.73512
 Alpha  occ. eigenvalues --   -0.72838  -0.72605  -0.72371  -0.71547  -0.71212
 Alpha  occ. eigenvalues --   -0.70513  -0.69309  -0.68556  -0.68226  -0.67849
 Alpha  occ. eigenvalues --   -0.67276  -0.66687  -0.66325  -0.66212  -0.65254
 Alpha  occ. eigenvalues --   -0.65115  -0.64470  -0.64040  -0.63982  -0.63643
 Alpha  occ. eigenvalues --   -0.62879  -0.62531  -0.62410  -0.61973  -0.61611
 Alpha  occ. eigenvalues --   -0.61336  -0.60839  -0.60424  -0.59939  -0.59757
 Alpha  occ. eigenvalues --   -0.59087  -0.58978  -0.58889  -0.57990  -0.57833
 Alpha  occ. eigenvalues --   -0.57488  -0.57201  -0.57179  -0.56977  -0.56534
 Alpha  occ. eigenvalues --   -0.55962  -0.55908  -0.55596  -0.55023  -0.54732
 Alpha  occ. eigenvalues --   -0.54568  -0.54060  -0.53685  -0.53336  -0.53214
 Alpha  occ. eigenvalues --   -0.52904  -0.52706  -0.51872  -0.51610  -0.51458
 Alpha  occ. eigenvalues --   -0.51358  -0.50943  -0.50615  -0.50448  -0.50308
 Alpha  occ. eigenvalues --   -0.49736  -0.49558  -0.49350  -0.48998  -0.48556
 Alpha  occ. eigenvalues --   -0.48145  -0.48060  -0.47903  -0.47217  -0.47031
 Alpha  occ. eigenvalues --   -0.46886  -0.46823  -0.46666  -0.46532  -0.46272
 Alpha  occ. eigenvalues --   -0.46078  -0.45738  -0.45403  -0.45101  -0.45057
 Alpha  occ. eigenvalues --   -0.44790  -0.44610  -0.44496  -0.43895  -0.43721
 Alpha  occ. eigenvalues --   -0.43428  -0.43015  -0.42438  -0.42287  -0.42229
 Alpha  occ. eigenvalues --   -0.41347  -0.41295  -0.40409  -0.38841  -0.38700
 Alpha  occ. eigenvalues --   -0.37777  -0.36511  -0.35178  -0.34947  -0.34308
 Alpha  occ. eigenvalues --   -0.33360  -0.32392  -0.32277  -0.31850  -0.26128
 Alpha  occ. eigenvalues --   -0.21619
 Alpha virt. eigenvalues --   -0.08348  -0.01660  -0.00253   0.01430   0.01523
 Alpha virt. eigenvalues --    0.02870   0.03059   0.03918   0.04440   0.05386
 Alpha virt. eigenvalues --    0.06442   0.06742   0.07445   0.07588   0.08393

 Mulliken charges:
               1
     1  Mg   0.430307
     2  C   -0.055364
     3  C   -0.080160
     4  C   -0.053777
     5  C   -0.048427
     6  N   -0.291367
     7  C    0.135531
     8  C    0.014868
     9  C    0.001011
    10  C    0.118070
    11  C   -0.041493
    12  C   -0.018428
    13  C    0.006772
    14  C    0.460371
    15  O   -0.536101
    16  O   -0.257010
    17  N   -0.306986
    18  C    0.122330
    19  C   -0.023768
    20  C   -0.058792
    21  C    0.121173
    22  C   -0.051030
    23  C    0.322569
    24  O   -0.515545
    25  C   -0.032519
    26  N   -0.271114
    27  C    0.121842
    28  C    0.001261
    29  C   -0.001046
    30  C    0.114150
    31  C   -0.055427
    32  C   -0.039525
    33  C   -0.066644
    34  N   -0.321408
    35  C    0.092541
    36  C    0.045586
    37  C   -0.047526
    38  C    0.139218
    39  C   -0.037005
    40  C    0.334474
    41  O   -0.506565
    42  C    0.059340
    43  C    0.500594
    44  O   -0.526435
    45  O   -0.279511
    46  C    0.076841
    47  C    0.121077
    48  C   -0.060757
    49  C   -0.032346
    50  C   -0.046566
    51  C   -0.028763
    52  C   -0.038828
    53  C   -0.034756
    54  C   -0.007353
    55  C   -0.061073
    56  C   -0.042021
    57  C   -0.044243
    58  C   -0.028278
    59  C   -0.007545
    60  C   -0.062736
    61  C   -0.036783
    62  C   -0.024860
    63  C   -0.026931
    64  C   -0.014511
    65  C   -0.059590
    66  C   -0.060018
    67  H    0.021407
    68  H    0.051061
    69  H    0.023863
    70  H    0.033501
    71  H    0.016017
    72  H    0.027832
    73  H    0.017456
    74  H    0.015942
    75  H    0.018005
    76  H    0.035837
    77  H    0.041226
    78  H    0.048794
    79  H    0.039295
    80  H    0.022799
    81  H    0.025520
    82  H    0.026562
    83  H    0.044576
    84  H    0.044982
    85  H    0.034683
    86  H    0.032775
    87  H    0.022606
    88  H    0.017355
    89  H    0.032908
    90  H    0.027108
    91  H    0.027311
    92  H    0.027497
    93  H    0.021583
    94  H    0.021553
    95  H    0.036002
    96  H    0.024568
    97  H    0.042960
    98  H    0.063291
    99  H    0.032088
   100  H    0.044540
   101  H    0.037674
   102  H    0.049715
   103  H    0.043797
   104  H    0.026826
   105  H    0.020359
   106  H    0.026047
   107  H    0.030192
   108  H    0.011730
   109  H    0.030071
   110  H    0.020298
   111  H    0.032351
   112  H    0.019066
   113  H    0.018004
   114  H    0.014924
   115  H    0.020987
   116  H    0.020461
   117  H    0.009810
   118  H    0.013580
   119  H    0.014737
   120  H    0.023755
   121  H    0.017591
   122  H    0.019178
   123  H    0.023494
   124  H    0.018862
   125  H    0.020846
   126  H    0.021564
   127  H    0.011598
   128  H    0.002151
   129  H    0.027584
   130  H    0.015178
   131  H    0.016036
   132  H    0.017784
   133  H    0.011143
   134  H    0.022489
   135  H    0.011895
   136  H    0.012517
   137  H    0.021054
   138  H    0.019596
   139  H    0.025002
   140  H    0.017551
 Sum of Mulliken charges =  -0.00000

 Dipole moment (field-independent basis, Debye):
    X=              4.2502    Y=              7.0560    Z=             -2.0244  Tot=              8.4823
 N-N= 4.303149232480D+03 E-N= 0.000000000000D+00  KE=-9.281198598305D+03
 Leave Link  601 at Thu May  5 02:47:00 2022, MaxMem=  6710886400 cpu:               0.8 elap:               0.0
 (Enter /sw/apps/gaussian-16.0/g16/l9999.exe)
 1\1\GINC-BP1-COMPUTE183\SP\RZINDO CIS\STO-3G\C55H74Mg1N4O6\OF15641\05-
 May-2022\0\\#p ZINDO=(nstates=5)\\step_51_chromophore_19 ZINDO\\0,1\Mg
 ,0,25.715,50.82,27.463\C,0,23.811,51.763,30.233\C,0,28.06,49.506,29.46
 4\C,0,27.526,50.479,24.707\C,0,23.039,52.287,25.458\N,0,25.84,50.532,2
 9.66\C,0,24.917,50.947,30.56\C,0,25.336,50.542,31.952\C,0,26.83,49.987
 ,31.702\C,0,26.936,49.9,30.194\C,0,28.039,50.469,32.466\C,0,24.384,49.
 609,32.716\C,0,24.661,49.5,34.225\C,0,23.955,50.433,35.179\O,0,22.937,

 Normal termination of Gaussian 16 at Thu May  5 02:47:00 2022.
