 Gaussian 16, Revision A.03,
 Gaussian 16:  ES64L-G16RevA.03 25-Dec-2016

 ------------------------------
 #p blyp/Def2SVP td=(nstates=5)
 ------------------------------

 --------------------------------------------------
 step_451_chromophore_18 TDDFT with blyp functional
 --------------------------------------------------
 Symbolic Z-matrix:
 Charge =  0 Multiplicity = 1

                         Standard orientation:
 ---------------------------------------------------------------------
 Center     Atomic      Atomic             Coordinates (Angstroms)
 Number     Number       Type             X           Y           Z
 ---------------------------------------------------------------------
      1         12           0        5.156808    1.250874    0.067045
      2          6           0        4.405631   -2.319636   -0.040437
      3          6           0        1.697450    1.777716    0.069224
      4          6           0        5.831086    4.449942   -0.502709
      5          6           0        8.437460    0.388689   -0.355970
      6          7           0        3.364031   -0.115076    0.042257
      7          6           0        3.239114   -1.518259    0.089677
      8          6           0        1.740165   -1.971750    0.293872
      9          6           0        1.010132   -0.632659   -0.144954
     10          6           0        2.097195    0.422380   -0.027079
     11          6           0        0.262805   -0.528763   -1.489800
     12          6           0        1.563619   -2.442019    1.675420
     13          6           0        0.699688   -3.668416    1.896658
     14          6           0       -0.166198   -4.184798    0.739775
     15          8           0        0.282992   -4.857750   -0.179076
     16          8           0       -1.400075   -3.684525    0.757532
     17          7           0        3.932940    2.952579   -0.040998
     18          6           0        2.488318    2.942805    0.003711
     19          6           0        2.064832    4.311306   -0.085867
     20          6           0        3.251392    5.137226   -0.129653
     21          6           0        4.396608    4.202714   -0.321828
     22          6           0        0.568298    4.630737    0.145807
     23          6           0        3.344130    6.635677   -0.055790
     24          8           0        4.435343    7.243095   -0.024733
     25          6           0        2.084603    7.424954   -0.065599
     26          7           0        6.883048    2.281657   -0.299224
     27          6           0        6.972609    3.603229   -0.383135
     28          6           0        8.397200    4.101435   -0.511810
     29          6           0        9.170816    2.826307   -0.108143
     30          6           0        8.145223    1.720103   -0.274075
     31          6           0        8.585703    4.644599   -1.961396
     32          6           0        9.956229    3.021155    1.326029
     33          6           0        9.603528    2.149921    2.550563
     34          7           0        6.263390   -0.584805   -0.097562
     35          6           0        7.593606   -0.732250   -0.263842
     36          6           0        7.944878   -2.136004   -0.266391
     37          6           0        6.691513   -2.813898   -0.121419
     38          6           0        5.710315   -1.810980   -0.023503
     39          6           0        9.301284   -2.751366   -0.436831
     40          6           0        6.135704   -4.129861    0.036478
     41          8           0        6.712896   -5.231312    0.077918
     42          6           0        4.518249   -3.791644    0.103489
     43          6           0        3.739278   -4.640289   -0.792120
     44          8           0        3.065771   -4.230862   -1.731467
     45          8           0        3.805436   -5.982445   -0.427287
     46          6           0        3.178774   -6.964989   -1.364835
     47          6           0       -2.337622   -4.325796   -0.134689
     48          6           0       -3.428903   -3.325256   -0.276220
     49          6           0       -4.614990   -3.472637   -0.904419
     50          6           0       -5.027560   -4.766607   -1.469982
     51          6           0       -5.667646   -2.400243   -0.752533
     52          6           0       -6.465584   -2.320304    0.483255
     53          6           0       -6.099981   -1.090901    1.369133
     54          6           0       -7.208557   -0.312201    1.951604
     55          6           0       -6.849140    0.322653    3.257507
     56          6           0       -8.129199    0.562741    1.058393
     57          6           0       -9.584323   -0.058968    0.694701
     58          6           0      -10.689169    0.337384    1.668024
     59          6           0      -11.811065    1.142270    0.985132
     60          6           0      -12.704096    1.871914    1.970262
     61          6           0      -12.685623    0.101314    0.225423
     62          6           0      -13.061934    0.566574   -1.181679
     63          6           0      -14.461231    1.141801   -1.455232
     64          6           0      -14.534791    2.675733   -1.379782
     65          6           0      -16.025912    3.106885   -1.250186
     66          6           0      -14.093676    3.295164   -2.700586
     67          1           0        0.621682    1.963123    0.072359
     68          1           0        6.074020    5.510353   -0.600680
     69          1           0        9.466300    0.033248   -0.267668
     70          1           0        1.483255   -2.691835   -0.482306
     71          1           0        0.136851   -0.434082    0.476657
     72          1           0        0.207646   -1.496771   -1.988021
     73          1           0        0.678977    0.195415   -2.190834
     74          1           0       -0.746215   -0.150426   -1.328713
     75          1           0        1.264851   -1.611753    2.316402
     76          1           0        2.555735   -2.643444    2.081497
     77          1           0       -0.082275   -3.514331    2.640826
     78          1           0        1.305697   -4.471769    2.316982
     79          1           0        0.515588    5.215545    1.063798
     80          1           0        0.020198    3.699507    0.291924
     81          1           0        0.234669    5.265601   -0.675204
     82          1           0        1.414485    7.055227   -0.841825
     83          1           0        2.263309    8.485536   -0.246031
     84          1           0        1.512919    7.357302    0.858902
     85          1           0        8.530043    4.886305    0.232506
     86          1           0       10.000878    2.570100   -0.766522
     87          1           0        9.589641    4.366561   -2.283692
     88          1           0        8.537578    5.725486   -1.826669
     89          1           0        7.776901    4.313452   -2.612750
     90          1           0        9.950297    4.092501    1.527071
     91          1           0       11.038472    2.931925    1.231173
     92          1           0        9.642812    2.666162    3.509527
     93          1           0       10.432802    1.442865    2.556008
     94          1           0        8.645414    1.645319    2.426285
     95          1           0        9.728028   -3.224961    0.446428
     96          1           0        9.974908   -1.949345   -0.739946
     97          1           0        9.255662   -3.459228   -1.264166
     98          1           0        4.214213   -4.116704    1.098589
     99          1           0        3.369963   -8.017737   -1.153965
    100          1           0        3.349631   -6.732915   -2.416679
    101          1           0        2.089378   -6.950822   -1.384801
    102          1           0       -2.643493   -5.291092    0.268828
    103          1           0       -1.950956   -4.498625   -1.139444
    104          1           0       -3.207159   -2.330549    0.111903
    105          1           0       -4.692403   -5.608747   -0.864146
    106          1           0       -4.547244   -4.754844   -2.448123
    107          1           0       -6.092804   -4.617971   -1.645358
    108          1           0       -6.352284   -2.500698   -1.594806
    109          1           0       -5.255794   -1.448943   -1.087426
    110          1           0       -6.247742   -3.236214    1.032618
    111          1           0       -7.498783   -2.278980    0.140629
    112          1           0       -5.503929   -0.324220    0.873118
    113          1           0       -5.525506   -1.521657    2.190180
    114          1           0       -7.935555   -1.051688    2.284632
    115          1           0       -7.268623   -0.234605    4.095274
    116          1           0       -7.279273    1.320651    3.348494
    117          1           0       -5.784437    0.484439    3.427740
    118          1           0       -7.671781    0.778693    0.093695
    119          1           0       -8.371080    1.492389    1.573294
    120          1           0       -9.427184   -1.136146    0.634870
    121          1           0       -9.800409    0.254973   -0.325645
    122          1           0      -10.316815    0.995435    2.453658
    123          1           0      -11.009746   -0.482247    2.312338
    124          1           0      -11.285023    1.822766    0.314912
    125          1           0      -12.551095    1.510812    2.987137
    126          1           0      -13.768563    1.830316    1.743826
    127          1           0      -12.442051    2.929709    2.012783
    128          1           0      -13.681507    0.044290    0.664677
    129          1           0      -12.310762   -0.910577    0.071080
    130          1           0      -12.733779   -0.278298   -1.787832
    131          1           0      -12.323320    1.277143   -1.550130
    132          1           0      -15.155009    0.696912   -0.741785
    133          1           0      -14.798690    0.811331   -2.437483
    134          1           0      -13.923625    2.983515   -0.531441
    135          1           0      -16.686692    2.245382   -1.344910
    136          1           0      -16.349565    3.883310   -1.943762
    137          1           0      -16.205501    3.492044   -0.246385
    138          1           0      -13.220915    2.828657   -3.157189
    139          1           0      -13.645553    4.243501   -2.402417
    140          1           0      -14.875493    3.394822   -3.452686
 ---------------------------------------------------------------------

 SCF Done:  E(RB-LYP) =  -3007.35223887     A.U. after   22 cycles

 Excitation energies and oscillator strengths:

 Excited State   1:      Singlet-A      1.7676 eV  701.44 nm  f=0.2837  <S**2>=0.000
     243 -> 247        0.12991
     244 -> 247       -0.10186
     245 -> 248        0.17693
     246 -> 247        0.66895
     246 <- 247       -0.14764
 This state for optimization and/or second-order correction.
 Total Energy, E(TD-HF/TD-DFT) =  -3007.28728228
 Copying the excited state density for this state as the 1-particle RhoCI density.

 Excited State   2:      Singlet-A      1.8155 eV  682.91 nm  f=0.0240  <S**2>=0.000
     243 -> 247        0.10394
     244 -> 247        0.63044
     245 -> 247        0.27184
     246 -> 247        0.10987

 Excited State   3:      Singlet-A      1.8798 eV  659.57 nm  f=0.0173  <S**2>=0.000
     243 -> 247        0.66849
     244 -> 247       -0.14094
     245 -> 247        0.11686
     246 -> 247       -0.12772

 Excited State   4:      Singlet-A      1.9607 eV  632.34 nm  f=0.0777  <S**2>=0.000
     243 -> 247       -0.15679
     244 -> 247       -0.26424
     245 -> 247        0.58291
     246 -> 248       -0.21018

 Excited State   5:      Singlet-A      2.2142 eV  559.95 nm  f=0.0000  <S**2>=0.000
     242 -> 247        0.70345

 The electronic state is 1-A.
 Alpha  occ. eigenvalues --  -46.26994 -18.83381 -18.80528 -18.76682 -18.75948
 Alpha  occ. eigenvalues --  -18.75231 -18.75051 -14.03672 -14.02875 -14.00956
 Alpha  occ. eigenvalues --  -14.00454 -10.04238 -10.02616  -9.99794  -9.99485
 Alpha  occ. eigenvalues --   -9.98498  -9.96809  -9.96675  -9.96562  -9.96484
 Alpha  occ. eigenvalues --   -9.96212  -9.96121  -9.95755  -9.94955  -9.94337
 Alpha  occ. eigenvalues --   -9.94048  -9.93938  -9.93712  -9.93676  -9.93599
 Alpha  occ. eigenvalues --   -9.93504  -9.93499  -9.93494  -9.93458  -9.93371
 Alpha  occ. eigenvalues --   -9.93346  -9.93301  -9.93179  -9.92953  -9.92401
 Alpha  occ. eigenvalues --   -9.92359  -9.92295  -9.92288  -9.92237  -9.92119
 Alpha  occ. eigenvalues --   -9.92072  -9.92062  -9.91895  -9.91867  -9.91817
 Alpha  occ. eigenvalues --   -9.91776  -9.91713  -9.91646  -9.91458  -9.91387
 Alpha  occ. eigenvalues --   -9.91274  -9.91255  -9.91092  -9.90991  -9.90920
 Alpha  occ. eigenvalues --   -9.90755  -9.90704  -9.90686  -9.90673  -9.90628
 Alpha  occ. eigenvalues --   -9.90303  -2.91586  -1.72021  -1.71453  -1.71307
 Alpha  occ. eigenvalues --   -1.00178  -0.95171  -0.90414  -0.89886  -0.89760
 Alpha  occ. eigenvalues --   -0.87661  -0.86934  -0.86075  -0.84547  -0.83478
 Alpha  occ. eigenvalues --   -0.75549  -0.74860  -0.73715  -0.73424  -0.72847
 Alpha  occ. eigenvalues --   -0.71700  -0.71574  -0.71452  -0.70915  -0.70138
 Alpha  occ. eigenvalues --   -0.69678  -0.69237  -0.68395  -0.67429  -0.67413
 Alpha  occ. eigenvalues --   -0.66658  -0.65996  -0.65624  -0.65001  -0.64511
 Alpha  occ. eigenvalues --   -0.64131  -0.62727  -0.62156  -0.61677  -0.60871
 Alpha  occ. eigenvalues --   -0.60221  -0.59972  -0.59876  -0.59800  -0.59221
 Alpha  occ. eigenvalues --   -0.58802  -0.57486  -0.56700  -0.56119  -0.54840
 Alpha  occ. eigenvalues --   -0.54100  -0.53896  -0.52925  -0.52356  -0.51966
 Alpha  occ. eigenvalues --   -0.51386  -0.51290  -0.50896  -0.50448  -0.50122
 Alpha  occ. eigenvalues --   -0.49982  -0.49175  -0.49024  -0.47347  -0.46869
 Alpha  occ. eigenvalues --   -0.46122  -0.45826  -0.45309  -0.45143  -0.44096
 Alpha  occ. eigenvalues --   -0.43869  -0.43452  -0.42932  -0.42704  -0.42182
 Alpha  occ. eigenvalues --   -0.42054  -0.41828  -0.41754  -0.41532  -0.41266
 Alpha  occ. eigenvalues --   -0.40937  -0.40653  -0.40359  -0.40112  -0.39863
 Alpha  occ. eigenvalues --   -0.39557  -0.39423  -0.39347  -0.39118  -0.38972
 Alpha  occ. eigenvalues --   -0.38822  -0.38759  -0.38581  -0.38494  -0.37932
 Alpha  occ. eigenvalues --   -0.37914  -0.37800  -0.37440  -0.37142  -0.37023
 Alpha  occ. eigenvalues --   -0.36955  -0.36644  -0.36579  -0.36523  -0.36442
 Alpha  occ. eigenvalues --   -0.36300  -0.36212  -0.36043  -0.35734  -0.35704
 Alpha  occ. eigenvalues --   -0.35516  -0.35367  -0.35268  -0.35108  -0.34825
 Alpha  occ. eigenvalues --   -0.34422  -0.34354  -0.34250  -0.33965  -0.33935
 Alpha  occ. eigenvalues --   -0.33835  -0.33654  -0.33581  -0.33508  -0.33166
 Alpha  occ. eigenvalues --   -0.32762  -0.32728  -0.32423  -0.32306  -0.32062
 Alpha  occ. eigenvalues --   -0.31744  -0.31650  -0.31573  -0.31476  -0.31308
 Alpha  occ. eigenvalues --   -0.31298  -0.31198  -0.31041  -0.30644  -0.30616
 Alpha  occ. eigenvalues --   -0.30519  -0.30251  -0.30095  -0.29775  -0.29388
 Alpha  occ. eigenvalues --   -0.29319  -0.29295  -0.29188  -0.28824  -0.28677
 Alpha  occ. eigenvalues --   -0.28603  -0.28428  -0.28401  -0.27892  -0.27797
 Alpha  occ. eigenvalues --   -0.27461  -0.27139  -0.27047  -0.26951  -0.26296
 Alpha  occ. eigenvalues --   -0.26197  -0.25981  -0.25897  -0.25779  -0.25732
 Alpha  occ. eigenvalues --   -0.25242  -0.24501  -0.23788  -0.23441  -0.23401
 Alpha  occ. eigenvalues --   -0.23183  -0.21796  -0.21593  -0.20520  -0.20199
 Alpha  occ. eigenvalues --   -0.19989  -0.19882  -0.18551  -0.18376  -0.17123
 Alpha  occ. eigenvalues --   -0.15894
 Alpha virt. eigenvalues --   -0.11747  -0.06700  -0.06330  -0.04764  -0.03600
 Alpha virt. eigenvalues --   -0.02268  -0.01863  -0.01636  -0.01397  -0.00199
 Alpha virt. eigenvalues --    0.01291   0.01877   0.02093   0.02448   0.02894

 Mulliken charges:
               1
     1  Mg   0.687481
     2  C    0.069423
     3  C   -0.064014
     4  C   -0.028042
     5  C   -0.066029
     6  N   -0.215912
     7  C   -0.099197
     8  C    0.031558
     9  C   -0.041925
    10  C    0.077046
    11  C    0.111199
    12  C    0.185135
    13  C    0.175051
    14  C    0.034253
    15  O   -0.194413
    16  O   -0.233929
    17  N   -0.332060
    18  C    0.144193
    19  C   -0.150313
    20  C    0.027515
    21  C    0.099286
    22  C    0.171308
    23  C   -0.063327
    24  O   -0.187090
    25  C    0.130736
    26  N   -0.249215
    27  C    0.009956
    28  C   -0.005323
    29  C    0.080397
    30  C    0.059207
    31  C    0.143828
    32  C    0.049194
    33  C    0.070020
    34  N   -0.210632
    35  C    0.063784
    36  C   -0.155973
    37  C    0.063137
    38  C    0.056028
    39  C    0.176481
    40  C   -0.025568
    41  O   -0.134462
    42  C   -0.015777
    43  C    0.121318
    44  O   -0.187616
    45  O   -0.282238
    46  C    0.238222
    47  C    0.337702
    48  C   -0.135678
    49  C   -0.222540
    50  C    0.203073
    51  C    0.120207
    52  C    0.151710
    53  C    0.122437
    54  C   -0.058910
    55  C    0.109082
    56  C    0.103625
    57  C    0.050921
    58  C    0.115143
    59  C   -0.075589
    60  C    0.130034
    61  C    0.129354
    62  C    0.036696
    63  C    0.128072
    64  C   -0.097561
    65  C    0.108301
    66  C    0.111344
    67  H   -0.065803
    68  H   -0.047405
    69  H   -0.064054
    70  H    0.017889
    71  H   -0.036204
    72  H    0.007039
    73  H   -0.006911
    74  H   -0.017169
    75  H   -0.032916
    76  H   -0.027153
    77  H   -0.025930
    78  H   -0.002805
    79  H    0.007492
    80  H   -0.007216
    81  H    0.006437
    82  H   -0.005436
    83  H   -0.006943
    84  H    0.004010
    85  H   -0.013090
    86  H   -0.039044
    87  H   -0.005488
    88  H    0.003667
    89  H    0.015386
    90  H   -0.035868
    91  H   -0.034412
    92  H   -0.005922
    93  H   -0.007274
    94  H    0.015599
    95  H    0.013500
    96  H   -0.029991
    97  H    0.011558
    98  H    0.012973
    99  H    0.010162
   100  H    0.001693
   101  H    0.000560
   102  H   -0.000707
   103  H    0.014704
   104  H   -0.037179
   105  H    0.005436
   106  H    0.001128
   107  H   -0.020315
   108  H   -0.064831
   109  H   -0.037709
   110  H   -0.029377
   111  H   -0.025393
   112  H   -0.032243
   113  H   -0.034197
   114  H   -0.051392
   115  H   -0.016678
   116  H   -0.036590
   117  H   -0.025160
   118  H   -0.045912
   119  H   -0.034717
   120  H   -0.025615
   121  H   -0.030992
   122  H   -0.054297
   123  H   -0.040080
   124  H   -0.028615
   125  H   -0.022096
   126  H   -0.008338
   127  H   -0.025188
   128  H   -0.044817
   129  H   -0.029661
   130  H   -0.053870
   131  H   -0.053066
   132  H   -0.040540
   133  H   -0.040924
   134  H   -0.027645
   135  H   -0.018402
   136  H   -0.013445
   137  H   -0.023839
   138  H   -0.031039
   139  H   -0.025040
   140  H   -0.002416
 Sum of Mulliken charges =  -0.00000

 Dipole moment (field-independent basis, Debye):
    X=             -4.4324    Y=              1.5257    Z=              2.1495  Tot=              5.1570
 Quadrupole moment (field-independent basis, Debye-Ang):
   XX=           -381.4655   YY=           -435.4160   ZZ=           -403.4675
   XY=             22.9946   XZ=              6.4753   YZ=             -2.5145

 Normal termination of Gaussian 16 at Fri Apr 29 19:56:03 2022.
