 Gaussian 16, Revision A.03,
 Gaussian 16:  ES64L-G16RevA.03 25-Dec-2016

 -----------------------------------
 #p cam-b3lyp/Def2SVP td=(nstates=5)
 -----------------------------------

 -------------------------------------------------------
 step_451_chromophore_18 TDDFT with cam-b3lyp functional
 -------------------------------------------------------
 Symbolic Z-matrix:
 Charge =  0 Multiplicity = 1

                         Standard orientation:
 ---------------------------------------------------------------------
 Center     Atomic      Atomic             Coordinates (Angstroms)
 Number     Number       Type             X           Y           Z
 ---------------------------------------------------------------------
      1         12           0        5.156808    1.250874    0.067045
      2          6           0        4.405631   -2.319636   -0.040437
      3          6           0        1.697450    1.777716    0.069224
      4          6           0        5.831086    4.449942   -0.502709
      5          6           0        8.437460    0.388689   -0.355970
      6          7           0        3.364031   -0.115076    0.042257
      7          6           0        3.239114   -1.518259    0.089677
      8          6           0        1.740165   -1.971750    0.293872
      9          6           0        1.010132   -0.632659   -0.144954
     10          6           0        2.097195    0.422380   -0.027079
     11          6           0        0.262805   -0.528763   -1.489800
     12          6           0        1.563619   -2.442019    1.675420
     13          6           0        0.699688   -3.668416    1.896658
     14          6           0       -0.166198   -4.184798    0.739775
     15          8           0        0.282992   -4.857750   -0.179076
     16          8           0       -1.400075   -3.684525    0.757532
     17          7           0        3.932940    2.952579   -0.040998
     18          6           0        2.488318    2.942805    0.003711
     19          6           0        2.064832    4.311306   -0.085867
     20          6           0        3.251392    5.137226   -0.129653
     21          6           0        4.396608    4.202714   -0.321828
     22          6           0        0.568298    4.630737    0.145807
     23          6           0        3.344130    6.635677   -0.055790
     24          8           0        4.435343    7.243095   -0.024733
     25          6           0        2.084603    7.424954   -0.065599
     26          7           0        6.883048    2.281657   -0.299224
     27          6           0        6.972609    3.603229   -0.383135
     28          6           0        8.397200    4.101435   -0.511810
     29          6           0        9.170816    2.826307   -0.108143
     30          6           0        8.145223    1.720103   -0.274075
     31          6           0        8.585703    4.644599   -1.961396
     32          6           0        9.956229    3.021155    1.326029
     33          6           0        9.603528    2.149921    2.550563
     34          7           0        6.263390   -0.584805   -0.097562
     35          6           0        7.593606   -0.732250   -0.263842
     36          6           0        7.944878   -2.136004   -0.266391
     37          6           0        6.691513   -2.813898   -0.121419
     38          6           0        5.710315   -1.810980   -0.023503
     39          6           0        9.301284   -2.751366   -0.436831
     40          6           0        6.135704   -4.129861    0.036478
     41          8           0        6.712896   -5.231312    0.077918
     42          6           0        4.518249   -3.791644    0.103489
     43          6           0        3.739278   -4.640289   -0.792120
     44          8           0        3.065771   -4.230862   -1.731467
     45          8           0        3.805436   -5.982445   -0.427287
     46          6           0        3.178774   -6.964989   -1.364835
     47          6           0       -2.337622   -4.325796   -0.134689
     48          6           0       -3.428903   -3.325256   -0.276220
     49          6           0       -4.614990   -3.472637   -0.904419
     50          6           0       -5.027560   -4.766607   -1.469982
     51          6           0       -5.667646   -2.400243   -0.752533
     52          6           0       -6.465584   -2.320304    0.483255
     53          6           0       -6.099981   -1.090901    1.369133
     54          6           0       -7.208557   -0.312201    1.951604
     55          6           0       -6.849140    0.322653    3.257507
     56          6           0       -8.129199    0.562741    1.058393
     57          6           0       -9.584323   -0.058968    0.694701
     58          6           0      -10.689169    0.337384    1.668024
     59          6           0      -11.811065    1.142270    0.985132
     60          6           0      -12.704096    1.871914    1.970262
     61          6           0      -12.685623    0.101314    0.225423
     62          6           0      -13.061934    0.566574   -1.181679
     63          6           0      -14.461231    1.141801   -1.455232
     64          6           0      -14.534791    2.675733   -1.379782
     65          6           0      -16.025912    3.106885   -1.250186
     66          6           0      -14.093676    3.295164   -2.700586
     67          1           0        0.621682    1.963123    0.072359
     68          1           0        6.074020    5.510353   -0.600680
     69          1           0        9.466300    0.033248   -0.267668
     70          1           0        1.483255   -2.691835   -0.482306
     71          1           0        0.136851   -0.434082    0.476657
     72          1           0        0.207646   -1.496771   -1.988021
     73          1           0        0.678977    0.195415   -2.190834
     74          1           0       -0.746215   -0.150426   -1.328713
     75          1           0        1.264851   -1.611753    2.316402
     76          1           0        2.555735   -2.643444    2.081497
     77          1           0       -0.082275   -3.514331    2.640826
     78          1           0        1.305697   -4.471769    2.316982
     79          1           0        0.515588    5.215545    1.063798
     80          1           0        0.020198    3.699507    0.291924
     81          1           0        0.234669    5.265601   -0.675204
     82          1           0        1.414485    7.055227   -0.841825
     83          1           0        2.263309    8.485536   -0.246031
     84          1           0        1.512919    7.357302    0.858902
     85          1           0        8.530043    4.886305    0.232506
     86          1           0       10.000878    2.570100   -0.766522
     87          1           0        9.589641    4.366561   -2.283692
     88          1           0        8.537578    5.725486   -1.826669
     89          1           0        7.776901    4.313452   -2.612750
     90          1           0        9.950297    4.092501    1.527071
     91          1           0       11.038472    2.931925    1.231173
     92          1           0        9.642812    2.666162    3.509527
     93          1           0       10.432802    1.442865    2.556008
     94          1           0        8.645414    1.645319    2.426285
     95          1           0        9.728028   -3.224961    0.446428
     96          1           0        9.974908   -1.949345   -0.739946
     97          1           0        9.255662   -3.459228   -1.264166
     98          1           0        4.214213   -4.116704    1.098589
     99          1           0        3.369963   -8.017737   -1.153965
    100          1           0        3.349631   -6.732915   -2.416679
    101          1           0        2.089378   -6.950822   -1.384801
    102          1           0       -2.643493   -5.291092    0.268828
    103          1           0       -1.950956   -4.498625   -1.139444
    104          1           0       -3.207159   -2.330549    0.111903
    105          1           0       -4.692403   -5.608747   -0.864146
    106          1           0       -4.547244   -4.754844   -2.448123
    107          1           0       -6.092804   -4.617971   -1.645358
    108          1           0       -6.352284   -2.500698   -1.594806
    109          1           0       -5.255794   -1.448943   -1.087426
    110          1           0       -6.247742   -3.236214    1.032618
    111          1           0       -7.498783   -2.278980    0.140629
    112          1           0       -5.503929   -0.324220    0.873118
    113          1           0       -5.525506   -1.521657    2.190180
    114          1           0       -7.935555   -1.051688    2.284632
    115          1           0       -7.268623   -0.234605    4.095274
    116          1           0       -7.279273    1.320651    3.348494
    117          1           0       -5.784437    0.484439    3.427740
    118          1           0       -7.671781    0.778693    0.093695
    119          1           0       -8.371080    1.492389    1.573294
    120          1           0       -9.427184   -1.136146    0.634870
    121          1           0       -9.800409    0.254973   -0.325645
    122          1           0      -10.316815    0.995435    2.453658
    123          1           0      -11.009746   -0.482247    2.312338
    124          1           0      -11.285023    1.822766    0.314912
    125          1           0      -12.551095    1.510812    2.987137
    126          1           0      -13.768563    1.830316    1.743826
    127          1           0      -12.442051    2.929709    2.012783
    128          1           0      -13.681507    0.044290    0.664677
    129          1           0      -12.310762   -0.910577    0.071080
    130          1           0      -12.733779   -0.278298   -1.787832
    131          1           0      -12.323320    1.277143   -1.550130
    132          1           0      -15.155009    0.696912   -0.741785
    133          1           0      -14.798690    0.811331   -2.437483
    134          1           0      -13.923625    2.983515   -0.531441
    135          1           0      -16.686692    2.245382   -1.344910
    136          1           0      -16.349565    3.883310   -1.943762
    137          1           0      -16.205501    3.492044   -0.246385
    138          1           0      -13.220915    2.828657   -3.157189
    139          1           0      -13.645553    4.243501   -2.402417
    140          1           0      -14.875493    3.394822   -3.452686
 ---------------------------------------------------------------------

 SCF Done:  E(RCAM-B3LYP) =  -3007.14505603     A.U. after   17 cycles

 Excitation energies and oscillator strengths:

 Excited State   1:      Singlet-A      1.6771 eV  739.27 nm  f=0.3953  <S**2>=0.000
     245 -> 248        0.17517
     246 -> 247        0.68718
     245 <- 248        0.10711
 This state for optimization and/or second-order correction.
 Total Energy, E(TD-HF/TD-DFT) =  -3007.08342294
 Copying the excited state density for this state as the 1-particle RhoCI density.

 Excited State   2:      Singlet-A      2.1611 eV  573.71 nm  f=0.1351  <S**2>=0.000
     245 -> 247        0.65328
     246 -> 248       -0.25171

 Excited State   3:      Singlet-A      3.1924 eV  388.37 nm  f=0.0037  <S**2>=0.000
     243 -> 247        0.62280
     244 -> 247       -0.25533
     246 -> 248        0.14026

 Excited State   4:      Singlet-A      3.3759 eV  367.26 nm  f=0.0040  <S**2>=0.000
     240 -> 247       -0.15008
     241 -> 247        0.20484
     243 -> 247        0.18424
     244 -> 247        0.59336
     246 -> 248        0.12350

 Excited State   5:      Singlet-A      3.4166 eV  362.89 nm  f=0.0015  <S**2>=0.000
     241 -> 247        0.53802
     241 -> 249        0.28826
     241 -> 250       -0.20741
     244 -> 247       -0.20977

 The electronic state is 1-A.
 Alpha  occ. eigenvalues --  -46.88490 -19.26270 -19.23407 -19.19607 -19.18795
 Alpha  occ. eigenvalues --  -19.18571 -19.18313 -14.42801 -14.41495 -14.39518
 Alpha  occ. eigenvalues --  -14.38662 -10.39415 -10.38093 -10.35075 -10.35025
 Alpha  occ. eigenvalues --  -10.32508 -10.31425 -10.31396 -10.31162 -10.31079
 Alpha  occ. eigenvalues --  -10.30516 -10.30299 -10.30066 -10.29494 -10.28721
 Alpha  occ. eigenvalues --  -10.28028 -10.27965 -10.27964 -10.27948 -10.27862
 Alpha  occ. eigenvalues --  -10.27781 -10.27739 -10.27535 -10.27510 -10.27437
 Alpha  occ. eigenvalues --  -10.27432 -10.27259 -10.27130 -10.26619 -10.26365
 Alpha  occ. eigenvalues --  -10.26354 -10.26085 -10.26063 -10.25957 -10.25933
 Alpha  occ. eigenvalues --  -10.25831 -10.25794 -10.25650 -10.25541 -10.25474
 Alpha  occ. eigenvalues --  -10.25463 -10.25435 -10.25256 -10.25252 -10.25177
 Alpha  occ. eigenvalues --  -10.25064 -10.24938 -10.24772 -10.24606 -10.24604
 Alpha  occ. eigenvalues --  -10.24391 -10.24373 -10.24327 -10.24303 -10.24271
 Alpha  occ. eigenvalues --  -10.23969  -3.16986  -1.91899  -1.91436  -1.91289
 Alpha  occ. eigenvalues --   -1.18641  -1.13646  -1.08400  -1.08287  -1.07925
 Alpha  occ. eigenvalues --   -1.05483  -1.04505  -1.03456  -1.02244  -1.01175
 Alpha  occ. eigenvalues --   -0.92589  -0.91837  -0.90569  -0.90232  -0.89621
 Alpha  occ. eigenvalues --   -0.88514  -0.88222  -0.87933  -0.87434  -0.86859
 Alpha  occ. eigenvalues --   -0.86024  -0.85564  -0.84809  -0.83611  -0.83447
 Alpha  occ. eigenvalues --   -0.82801  -0.81941  -0.81877  -0.80943  -0.80424
 Alpha  occ. eigenvalues --   -0.79910  -0.78333  -0.78138  -0.77084  -0.76297
 Alpha  occ. eigenvalues --   -0.75514  -0.75332  -0.75140  -0.75095  -0.74508
 Alpha  occ. eigenvalues --   -0.73904  -0.72416  -0.71581  -0.70948  -0.69330
 Alpha  occ. eigenvalues --   -0.68726  -0.68473  -0.67339  -0.66919  -0.66325
 Alpha  occ. eigenvalues --   -0.65445  -0.65226  -0.64885  -0.64379  -0.64190
 Alpha  occ. eigenvalues --   -0.64128  -0.63139  -0.62961  -0.60858  -0.60427
 Alpha  occ. eigenvalues --   -0.59838  -0.59309  -0.58610  -0.58493  -0.57491
 Alpha  occ. eigenvalues --   -0.57241  -0.56915  -0.56138  -0.55808  -0.55223
 Alpha  occ. eigenvalues --   -0.55110  -0.54883  -0.54645  -0.54483  -0.54186
 Alpha  occ. eigenvalues --   -0.53841  -0.53268  -0.53128  -0.52902  -0.52563
 Alpha  occ. eigenvalues --   -0.52376  -0.52162  -0.52044  -0.51940  -0.51647
 Alpha  occ. eigenvalues --   -0.51305  -0.51130  -0.51072  -0.50917  -0.50539
 Alpha  occ. eigenvalues --   -0.50198  -0.50073  -0.49930  -0.49664  -0.49464
 Alpha  occ. eigenvalues --   -0.49238  -0.49176  -0.48726  -0.48667  -0.48611
 Alpha  occ. eigenvalues --   -0.48550  -0.48408  -0.48282  -0.48246  -0.47836
 Alpha  occ. eigenvalues --   -0.47653  -0.47479  -0.47304  -0.47123  -0.46888
 Alpha  occ. eigenvalues --   -0.46491  -0.46212  -0.46128  -0.45932  -0.45699
 Alpha  occ. eigenvalues --   -0.45616  -0.45410  -0.45329  -0.45320  -0.44880
 Alpha  occ. eigenvalues --   -0.44395  -0.44288  -0.43968  -0.43884  -0.43805
 Alpha  occ. eigenvalues --   -0.43560  -0.43413  -0.43236  -0.43084  -0.42938
 Alpha  occ. eigenvalues --   -0.42894  -0.42680  -0.42570  -0.41978  -0.41917
 Alpha  occ. eigenvalues --   -0.41838  -0.41758  -0.41328  -0.41072  -0.40989
 Alpha  occ. eigenvalues --   -0.40848  -0.40464  -0.40421  -0.40359  -0.39718
 Alpha  occ. eigenvalues --   -0.39675  -0.39444  -0.39418  -0.38820  -0.38754
 Alpha  occ. eigenvalues --   -0.38611  -0.37925  -0.37885  -0.37718  -0.37454
 Alpha  occ. eigenvalues --   -0.37186  -0.37028  -0.36760  -0.36479  -0.36461
 Alpha  occ. eigenvalues --   -0.35856  -0.35054  -0.34711  -0.34351  -0.33809
 Alpha  occ. eigenvalues --   -0.33734  -0.33224  -0.32768  -0.31321  -0.30725
 Alpha  occ. eigenvalues --   -0.30014  -0.29589  -0.29477  -0.29117  -0.23867
 Alpha  occ. eigenvalues --   -0.21227
 Alpha virt. eigenvalues --   -0.08970  -0.01439   0.00091   0.02035   0.03050
 Alpha virt. eigenvalues --    0.04167   0.05452   0.05540   0.05898   0.06380
 Alpha virt. eigenvalues --    0.08158   0.08446   0.08674   0.08793   0.09226

 Mulliken charges:
               1
     1  Mg   0.819320
     2  C    0.058408
     3  C   -0.076334
     4  C   -0.053422
     5  C   -0.068450
     6  N   -0.278455
     7  C   -0.059433
     8  C   -0.027772
     9  C   -0.090184
    10  C    0.089936
    11  C    0.056769
    12  C    0.127561
    13  C    0.108080
    14  C    0.107458
    15  O   -0.235044
    16  O   -0.297571
    17  N   -0.418418
    18  C    0.153253
    19  C   -0.151308
    20  C   -0.040503
    21  C    0.131861
    22  C    0.115747
    23  C    0.016957
    24  O   -0.225608
    25  C    0.045918
    26  N   -0.326980
    27  C    0.036798
    28  C   -0.062660
    29  C    0.025493
    30  C    0.069529
    31  C    0.084789
    32  C   -0.000326
    33  C    0.010337
    34  N   -0.298288
    35  C    0.065431
    36  C   -0.158797
    37  C   -0.008864
    38  C    0.080565
    39  C    0.128984
    40  C    0.071348
    41  O   -0.175727
    42  C   -0.100547
    43  C    0.214904
    44  O   -0.224670
    45  O   -0.345728
    46  C    0.198019
    47  C    0.302423
    48  C   -0.150155
    49  C   -0.236862
    50  C    0.127279
    51  C    0.058202
    52  C    0.091339
    53  C    0.067687
    54  C   -0.121248
    55  C    0.050137
    56  C    0.055845
    57  C   -0.003403
    58  C    0.060618
    59  C   -0.129723
    60  C    0.068397
    61  C    0.071899
    62  C   -0.014134
    63  C    0.069085
    64  C   -0.153984
    65  C    0.047887
    66  C    0.048332
    67  H   -0.030651
    68  H   -0.008885
    69  H   -0.031158
    70  H    0.053161
    71  H    0.000182
    72  H    0.032257
    73  H    0.019947
    74  H    0.005410
    75  H    0.000014
    76  H    0.006991
    77  H    0.009385
    78  H    0.029203
    79  H    0.034015
    80  H    0.021165
    81  H    0.032677
    82  H    0.021646
    83  H    0.030137
    84  H    0.033200
    85  H    0.022252
    86  H   -0.002117
    87  H    0.018970
    88  H    0.026556
    89  H    0.040899
    90  H   -0.008371
    91  H   -0.005472
    92  H    0.017859
    93  H    0.014139
    94  H    0.035660
    95  H    0.037925
    96  H   -0.007168
    97  H    0.036211
    98  H    0.052462
    99  H    0.034355
   100  H    0.026670
   101  H    0.023694
   102  H    0.025762
   103  H    0.045857
   104  H   -0.004015
   105  H    0.029094
   106  H    0.027336
   107  H    0.006729
   108  H   -0.030712
   109  H   -0.005989
   110  H    0.001756
   111  H    0.001503
   112  H   -0.006087
   113  H   -0.002938
   114  H   -0.017595
   115  H    0.008472
   116  H   -0.010976
   117  H    0.000080
   118  H   -0.016827
   119  H   -0.006866
   120  H   -0.000249
   121  H   -0.003002
   122  H   -0.024916
   123  H   -0.009748
   124  H    0.001852
   125  H    0.004099
   126  H    0.012989
   127  H    0.000011
   128  H   -0.015408
   129  H    0.000292
   130  H   -0.021649
   131  H   -0.027467
   132  H   -0.012172
   133  H   -0.010074
   134  H    0.000982
   135  H    0.006532
   136  H    0.011471
   137  H    0.000448
   138  H   -0.006243
   139  H    0.000905
   140  H    0.021549
 Sum of Mulliken charges =  -0.00000

 Dipole moment (field-independent basis, Debye):
    X=             -5.4366    Y=              2.3974    Z=              2.2590  Tot=              6.3567
 Quadrupole moment (field-independent basis, Debye-Ang):
   XX=           -387.1883   YY=           -430.2894   ZZ=           -403.2926
   XY=             25.3750   XZ=              7.0800   YZ=             -2.5159

 Normal termination of Gaussian 16 at Fri Apr 29 18:58:31 2022.
