 Gaussian 16, Revision A.03,
 Gaussian 16:  ES64L-G16RevA.03 25-Dec-2016

 ---------------------------------
 #p PBE1PBE/Def2SVP td=(nstates=5)
 ---------------------------------

 -----------------------------------------------------
 step_451_chromophore_18 TDDFT with PBE1PBE functional
 -----------------------------------------------------
 Symbolic Z-matrix:
 Charge =  0 Multiplicity = 1

                         Standard orientation:
 ---------------------------------------------------------------------
 Center     Atomic      Atomic             Coordinates (Angstroms)
 Number     Number       Type             X           Y           Z
 ---------------------------------------------------------------------
      1         12           0        5.156808    1.250874    0.067045
      2          6           0        4.405631   -2.319636   -0.040437
      3          6           0        1.697450    1.777716    0.069224
      4          6           0        5.831086    4.449942   -0.502709
      5          6           0        8.437460    0.388689   -0.355970
      6          7           0        3.364031   -0.115076    0.042257
      7          6           0        3.239114   -1.518259    0.089677
      8          6           0        1.740165   -1.971750    0.293872
      9          6           0        1.010132   -0.632659   -0.144954
     10          6           0        2.097195    0.422380   -0.027079
     11          6           0        0.262805   -0.528763   -1.489800
     12          6           0        1.563619   -2.442019    1.675420
     13          6           0        0.699688   -3.668416    1.896658
     14          6           0       -0.166198   -4.184798    0.739775
     15          8           0        0.282992   -4.857750   -0.179076
     16          8           0       -1.400075   -3.684525    0.757532
     17          7           0        3.932940    2.952579   -0.040998
     18          6           0        2.488318    2.942805    0.003711
     19          6           0        2.064832    4.311306   -0.085867
     20          6           0        3.251392    5.137226   -0.129653
     21          6           0        4.396608    4.202714   -0.321828
     22          6           0        0.568298    4.630737    0.145807
     23          6           0        3.344130    6.635677   -0.055790
     24          8           0        4.435343    7.243095   -0.024733
     25          6           0        2.084603    7.424954   -0.065599
     26          7           0        6.883048    2.281657   -0.299224
     27          6           0        6.972609    3.603229   -0.383135
     28          6           0        8.397200    4.101435   -0.511810
     29          6           0        9.170816    2.826307   -0.108143
     30          6           0        8.145223    1.720103   -0.274075
     31          6           0        8.585703    4.644599   -1.961396
     32          6           0        9.956229    3.021155    1.326029
     33          6           0        9.603528    2.149921    2.550563
     34          7           0        6.263390   -0.584805   -0.097562
     35          6           0        7.593606   -0.732250   -0.263842
     36          6           0        7.944878   -2.136004   -0.266391
     37          6           0        6.691513   -2.813898   -0.121419
     38          6           0        5.710315   -1.810980   -0.023503
     39          6           0        9.301284   -2.751366   -0.436831
     40          6           0        6.135704   -4.129861    0.036478
     41          8           0        6.712896   -5.231312    0.077918
     42          6           0        4.518249   -3.791644    0.103489
     43          6           0        3.739278   -4.640289   -0.792120
     44          8           0        3.065771   -4.230862   -1.731467
     45          8           0        3.805436   -5.982445   -0.427287
     46          6           0        3.178774   -6.964989   -1.364835
     47          6           0       -2.337622   -4.325796   -0.134689
     48          6           0       -3.428903   -3.325256   -0.276220
     49          6           0       -4.614990   -3.472637   -0.904419
     50          6           0       -5.027560   -4.766607   -1.469982
     51          6           0       -5.667646   -2.400243   -0.752533
     52          6           0       -6.465584   -2.320304    0.483255
     53          6           0       -6.099981   -1.090901    1.369133
     54          6           0       -7.208557   -0.312201    1.951604
     55          6           0       -6.849140    0.322653    3.257507
     56          6           0       -8.129199    0.562741    1.058393
     57          6           0       -9.584323   -0.058968    0.694701
     58          6           0      -10.689169    0.337384    1.668024
     59          6           0      -11.811065    1.142270    0.985132
     60          6           0      -12.704096    1.871914    1.970262
     61          6           0      -12.685623    0.101314    0.225423
     62          6           0      -13.061934    0.566574   -1.181679
     63          6           0      -14.461231    1.141801   -1.455232
     64          6           0      -14.534791    2.675733   -1.379782
     65          6           0      -16.025912    3.106885   -1.250186
     66          6           0      -14.093676    3.295164   -2.700586
     67          1           0        0.621682    1.963123    0.072359
     68          1           0        6.074020    5.510353   -0.600680
     69          1           0        9.466300    0.033248   -0.267668
     70          1           0        1.483255   -2.691835   -0.482306
     71          1           0        0.136851   -0.434082    0.476657
     72          1           0        0.207646   -1.496771   -1.988021
     73          1           0        0.678977    0.195415   -2.190834
     74          1           0       -0.746215   -0.150426   -1.328713
     75          1           0        1.264851   -1.611753    2.316402
     76          1           0        2.555735   -2.643444    2.081497
     77          1           0       -0.082275   -3.514331    2.640826
     78          1           0        1.305697   -4.471769    2.316982
     79          1           0        0.515588    5.215545    1.063798
     80          1           0        0.020198    3.699507    0.291924
     81          1           0        0.234669    5.265601   -0.675204
     82          1           0        1.414485    7.055227   -0.841825
     83          1           0        2.263309    8.485536   -0.246031
     84          1           0        1.512919    7.357302    0.858902
     85          1           0        8.530043    4.886305    0.232506
     86          1           0       10.000878    2.570100   -0.766522
     87          1           0        9.589641    4.366561   -2.283692
     88          1           0        8.537578    5.725486   -1.826669
     89          1           0        7.776901    4.313452   -2.612750
     90          1           0        9.950297    4.092501    1.527071
     91          1           0       11.038472    2.931925    1.231173
     92          1           0        9.642812    2.666162    3.509527
     93          1           0       10.432802    1.442865    2.556008
     94          1           0        8.645414    1.645319    2.426285
     95          1           0        9.728028   -3.224961    0.446428
     96          1           0        9.974908   -1.949345   -0.739946
     97          1           0        9.255662   -3.459228   -1.264166
     98          1           0        4.214213   -4.116704    1.098589
     99          1           0        3.369963   -8.017737   -1.153965
    100          1           0        3.349631   -6.732915   -2.416679
    101          1           0        2.089378   -6.950822   -1.384801
    102          1           0       -2.643493   -5.291092    0.268828
    103          1           0       -1.950956   -4.498625   -1.139444
    104          1           0       -3.207159   -2.330549    0.111903
    105          1           0       -4.692403   -5.608747   -0.864146
    106          1           0       -4.547244   -4.754844   -2.448123
    107          1           0       -6.092804   -4.617971   -1.645358
    108          1           0       -6.352284   -2.500698   -1.594806
    109          1           0       -5.255794   -1.448943   -1.087426
    110          1           0       -6.247742   -3.236214    1.032618
    111          1           0       -7.498783   -2.278980    0.140629
    112          1           0       -5.503929   -0.324220    0.873118
    113          1           0       -5.525506   -1.521657    2.190180
    114          1           0       -7.935555   -1.051688    2.284632
    115          1           0       -7.268623   -0.234605    4.095274
    116          1           0       -7.279273    1.320651    3.348494
    117          1           0       -5.784437    0.484439    3.427740
    118          1           0       -7.671781    0.778693    0.093695
    119          1           0       -8.371080    1.492389    1.573294
    120          1           0       -9.427184   -1.136146    0.634870
    121          1           0       -9.800409    0.254973   -0.325645
    122          1           0      -10.316815    0.995435    2.453658
    123          1           0      -11.009746   -0.482247    2.312338
    124          1           0      -11.285023    1.822766    0.314912
    125          1           0      -12.551095    1.510812    2.987137
    126          1           0      -13.768563    1.830316    1.743826
    127          1           0      -12.442051    2.929709    2.012783
    128          1           0      -13.681507    0.044290    0.664677
    129          1           0      -12.310762   -0.910577    0.071080
    130          1           0      -12.733779   -0.278298   -1.787832
    131          1           0      -12.323320    1.277143   -1.550130
    132          1           0      -15.155009    0.696912   -0.741785
    133          1           0      -14.798690    0.811331   -2.437483
    134          1           0      -13.923625    2.983515   -0.531441
    135          1           0      -16.686692    2.245382   -1.344910
    136          1           0      -16.349565    3.883310   -1.943762
    137          1           0      -16.205501    3.492044   -0.246385
    138          1           0      -13.220915    2.828657   -3.157189
    139          1           0      -13.645553    4.243501   -2.402417
    140          1           0      -14.875493    3.394822   -3.452686
 ---------------------------------------------------------------------

 SCF Done:  E(RPBE1PBE) =  -3005.33575201     A.U. after   15 cycles

 Excitation energies and oscillator strengths:

 Excited State   1:      Singlet-A      1.8207 eV  680.98 nm  f=0.3794  <S**2>=0.000
     245 -> 248        0.17077
     246 -> 247        0.69406
     246 <- 247       -0.11076
 This state for optimization and/or second-order correction.
 Total Energy, E(TD-HF/TD-DFT) =  -3005.26884338
 Copying the excited state density for this state as the 1-particle RhoCI density.

 Excited State   2:      Singlet-A      2.1557 eV  575.14 nm  f=0.1257  <S**2>=0.000
     245 -> 247        0.66187
     246 -> 248       -0.22902

 Excited State   3:      Singlet-A      2.8784 eV  430.75 nm  f=0.0021  <S**2>=0.000
     240 -> 247        0.12409
     241 -> 247        0.48202
     241 -> 249        0.12956
     243 -> 247       -0.46412

 Excited State   4:      Singlet-A      2.8900 eV  429.01 nm  f=0.0032  <S**2>=0.000
     240 -> 247       -0.20897
     241 -> 247        0.46698
     242 -> 247        0.17204
     243 -> 247        0.42156

 Excited State   5:      Singlet-A      2.9538 eV  419.74 nm  f=0.0017  <S**2>=0.000
     240 -> 247        0.50897
     240 -> 249       -0.10445
     242 -> 247       -0.32867
     243 -> 247        0.30738

 The electronic state is 1-A.
 Alpha  occ. eigenvalues --  -46.91908 -19.26940 -19.24076 -19.19889 -19.19250
 Alpha  occ. eigenvalues --  -19.18597 -19.18549 -14.42211 -14.41125 -14.39147
 Alpha  occ. eigenvalues --  -14.38432 -10.36469 -10.35078 -10.32386 -10.31936
 Alpha  occ. eigenvalues --  -10.29895 -10.29150 -10.28979 -10.28870 -10.28672
 Alpha  occ. eigenvalues --  -10.28215 -10.27967 -10.27327 -10.26849 -10.26709
 Alpha  occ. eigenvalues --  -10.25892 -10.25700 -10.25679 -10.25552 -10.25439
 Alpha  occ. eigenvalues --  -10.25362 -10.25300 -10.25293 -10.25269 -10.25254
 Alpha  occ. eigenvalues --  -10.25198 -10.24916 -10.24733 -10.24359 -10.24143
 Alpha  occ. eigenvalues --  -10.23989 -10.23846 -10.23478 -10.23468 -10.23463
 Alpha  occ. eigenvalues --  -10.23298 -10.23188 -10.23099 -10.23053 -10.23050
 Alpha  occ. eigenvalues --  -10.23035 -10.23008 -10.22787 -10.22729 -10.22701
 Alpha  occ. eigenvalues --  -10.22595 -10.22573 -10.22386 -10.22320 -10.22132
 Alpha  occ. eigenvalues --  -10.21978 -10.21869 -10.21764 -10.21700 -10.21647
 Alpha  occ. eigenvalues --  -10.21502  -3.13985  -1.86839  -1.86354  -1.86210
 Alpha  occ. eigenvalues --   -1.13482  -1.08395  -1.03141  -1.02917  -1.02845
 Alpha  occ. eigenvalues --   -1.00320  -0.99219  -0.98298  -0.96773  -0.95667
 Alpha  occ. eigenvalues --   -0.87048  -0.85969  -0.84692  -0.84412  -0.83745
 Alpha  occ. eigenvalues --   -0.82733  -0.82324  -0.82280  -0.81792  -0.81035
 Alpha  occ. eigenvalues --   -0.80254  -0.79998  -0.78982  -0.77789  -0.77769
 Alpha  occ. eigenvalues --   -0.76985  -0.76244  -0.75982  -0.75060  -0.74729
 Alpha  occ. eigenvalues --   -0.74264  -0.72655  -0.72259  -0.71440  -0.70456
 Alpha  occ. eigenvalues --   -0.69835  -0.69475  -0.69430  -0.69221  -0.68665
 Alpha  occ. eigenvalues --   -0.68194  -0.66934  -0.65991  -0.65290  -0.63750
 Alpha  occ. eigenvalues --   -0.63133  -0.62794  -0.61627  -0.61276  -0.60510
 Alpha  occ. eigenvalues --   -0.59933  -0.59739  -0.59374  -0.58980  -0.58574
 Alpha  occ. eigenvalues --   -0.58294  -0.57267  -0.57118  -0.55485  -0.54847
 Alpha  occ. eigenvalues --   -0.54288  -0.53835  -0.53248  -0.53206  -0.52047
 Alpha  occ. eigenvalues --   -0.51683  -0.51341  -0.50647  -0.50424  -0.49693
 Alpha  occ. eigenvalues --   -0.49683  -0.49279  -0.49232  -0.48886  -0.48738
 Alpha  occ. eigenvalues --   -0.48322  -0.47792  -0.47633  -0.47437  -0.47073
 Alpha  occ. eigenvalues --   -0.46816  -0.46726  -0.46641  -0.46281  -0.46126
 Alpha  occ. eigenvalues --   -0.45919  -0.45685  -0.45611  -0.45480  -0.45177
 Alpha  occ. eigenvalues --   -0.44743  -0.44686  -0.44503  -0.44315  -0.44033
 Alpha  occ. eigenvalues --   -0.43797  -0.43678  -0.43285  -0.43244  -0.43208
 Alpha  occ. eigenvalues --   -0.43138  -0.43000  -0.42855  -0.42810  -0.42511
 Alpha  occ. eigenvalues --   -0.42252  -0.42121  -0.41928  -0.41747  -0.41597
 Alpha  occ. eigenvalues --   -0.41151  -0.40988  -0.40854  -0.40631  -0.40426
 Alpha  occ. eigenvalues --   -0.40240  -0.40175  -0.40117  -0.39954  -0.39748
 Alpha  occ. eigenvalues --   -0.39239  -0.38965  -0.38779  -0.38688  -0.38437
 Alpha  occ. eigenvalues --   -0.38224  -0.38208  -0.38010  -0.37925  -0.37750
 Alpha  occ. eigenvalues --   -0.37615  -0.37448  -0.37370  -0.36776  -0.36707
 Alpha  occ. eigenvalues --   -0.36688  -0.36537  -0.36046  -0.35863  -0.35765
 Alpha  occ. eigenvalues --   -0.35668  -0.35387  -0.35280  -0.35138  -0.34753
 Alpha  occ. eigenvalues --   -0.34463  -0.34340  -0.34184  -0.33577  -0.33523
 Alpha  occ. eigenvalues --   -0.33489  -0.32772  -0.32768  -0.32553  -0.32431
 Alpha  occ. eigenvalues --   -0.32205  -0.31832  -0.31816  -0.31626  -0.31323
 Alpha  occ. eigenvalues --   -0.30716  -0.29866  -0.29681  -0.29546  -0.28835
 Alpha  occ. eigenvalues --   -0.28711  -0.28475  -0.27618  -0.26637  -0.25600
 Alpha  occ. eigenvalues --   -0.25143  -0.25038  -0.24938  -0.24862  -0.20795
 Alpha  occ. eigenvalues --   -0.18848
 Alpha virt. eigenvalues --   -0.11398  -0.04999  -0.04090  -0.02260  -0.00385
 Alpha virt. eigenvalues --    0.00107   0.01097   0.01277   0.01418   0.02656
 Alpha virt. eigenvalues --    0.04419   0.04591   0.04957   0.05423   0.05824

 Mulliken charges:
               1
     1  Mg   0.968359
     2  C    0.054775
     3  C   -0.070682
     4  C   -0.046626
     5  C   -0.059109
     6  N   -0.378829
     7  C    0.014357
     8  C   -0.109868
     9  C   -0.156580
    10  C    0.117465
    11  C    0.005273
    12  C    0.080285
    13  C    0.038190
    14  C    0.169103
    15  O   -0.266599
    16  O   -0.330947
    17  N   -0.523073
    18  C    0.175313
    19  C   -0.176195
    20  C   -0.092090
    21  C    0.168019
    22  C    0.050291
    23  C    0.064759
    24  O   -0.264919
    25  C   -0.025850
    26  N   -0.431583
    27  C    0.068533
    28  C   -0.144889
    29  C   -0.037028
    30  C    0.097384
    31  C    0.025855
    32  C   -0.055065
    33  C   -0.066581
    34  N   -0.426641
    35  C    0.092458
    36  C   -0.179222
    37  C   -0.044251
    38  C    0.116151
    39  C    0.076007
    40  C    0.155937
    41  O   -0.219238
    42  C   -0.204940
    43  C    0.306482
    44  O   -0.260038
    45  O   -0.377867
    46  C    0.141272
    47  C    0.264470
    48  C   -0.153328
    49  C   -0.284623
    50  C    0.057364
    51  C   -0.002548
    52  C    0.022864
    53  C    0.010440
    54  C   -0.212533
    55  C   -0.006221
    56  C    0.007149
    57  C   -0.071043
    58  C    0.009730
    59  C   -0.221781
    60  C    0.009141
    61  C    0.018896
    62  C   -0.069001
    63  C    0.010880
    64  C   -0.254315
    65  C   -0.010099
    66  C   -0.012372
    67  H    0.000221
    68  H    0.024390
    69  H    0.001466
    70  H    0.094919
    71  H    0.036943
    72  H    0.058457
    73  H    0.047726
    74  H    0.031405
    75  H    0.032489
    76  H    0.041657
    77  H    0.042025
    78  H    0.060487
    79  H    0.061805
    80  H    0.048500
    81  H    0.059454
    82  H    0.048876
    83  H    0.056688
    84  H    0.059253
    85  H    0.057959
    86  H    0.034698
    87  H    0.046939
    88  H    0.054223
    89  H    0.068589
    90  H    0.023633
    91  H    0.026507
    92  H    0.046394
    93  H    0.041353
    94  H    0.065962
    95  H    0.065989
    96  H    0.021479
    97  H    0.064942
    98  H    0.090199
    99  H    0.056525
   100  H    0.048631
   101  H    0.046732
   102  H    0.051623
   103  H    0.071765
   104  H    0.026601
   105  H    0.055208
   106  H    0.056775
   107  H    0.034618
   108  H    0.002967
   109  H    0.026120
   110  H    0.035521
   111  H    0.036164
   112  H    0.025751
   113  H    0.030399
   114  H    0.025599
   115  H    0.035533
   116  H    0.016224
   117  H    0.027310
   118  H    0.016067
   119  H    0.025270
   120  H    0.032985
   121  H    0.029699
   122  H    0.008716
   123  H    0.021891
   124  H    0.037724
   125  H    0.031702
   126  H    0.039683
   127  H    0.027986
   128  H    0.018377
   129  H    0.031837
   130  H    0.011112
   131  H    0.005434
   132  H    0.020268
   133  H    0.022889
   134  H    0.041643
   135  H    0.033365
   136  H    0.038221
   137  H    0.028698
   138  H    0.021802
   139  H    0.030355
   140  H    0.047956
 Sum of Mulliken charges =  -0.00000

 Dipole moment (field-independent basis, Debye):
    X=             -4.9715    Y=              2.0176    Z=              2.2938  Tot=              5.8350
 Quadrupole moment (field-independent basis, Debye-Ang):
   XX=           -377.2731   YY=           -428.6267   ZZ=           -400.8161
   XY=             24.6343   XZ=              7.1174   YZ=             -2.4102

 Normal termination of Gaussian 16 at Fri Apr 29 19:16:17 2022.
