 Gaussian 16, Revision A.03,
 Gaussian 16:  ES64L-G16RevA.03 25-Dec-2016

 --------------------------------
 #p wB97XD/Def2SVP td=(nstates=5)
 --------------------------------

 ----------------------------------------------------
 step_451_chromophore_18 TDDFT with wB97XD functional
 ----------------------------------------------------
 Symbolic Z-matrix:
 Charge =  0 Multiplicity = 1

                         Standard orientation:
 ---------------------------------------------------------------------
 Center     Atomic      Atomic             Coordinates (Angstroms)
 Number     Number       Type             X           Y           Z
 ---------------------------------------------------------------------
      1         12           0        5.156808    1.250874    0.067045
      2          6           0        4.405631   -2.319636   -0.040437
      3          6           0        1.697450    1.777716    0.069224
      4          6           0        5.831086    4.449942   -0.502709
      5          6           0        8.437460    0.388689   -0.355970
      6          7           0        3.364031   -0.115076    0.042257
      7          6           0        3.239114   -1.518259    0.089677
      8          6           0        1.740165   -1.971750    0.293872
      9          6           0        1.010132   -0.632659   -0.144954
     10          6           0        2.097195    0.422380   -0.027079
     11          6           0        0.262805   -0.528763   -1.489800
     12          6           0        1.563619   -2.442019    1.675420
     13          6           0        0.699688   -3.668416    1.896658
     14          6           0       -0.166198   -4.184798    0.739775
     15          8           0        0.282992   -4.857750   -0.179076
     16          8           0       -1.400075   -3.684525    0.757532
     17          7           0        3.932940    2.952579   -0.040998
     18          6           0        2.488318    2.942805    0.003711
     19          6           0        2.064832    4.311306   -0.085867
     20          6           0        3.251392    5.137226   -0.129653
     21          6           0        4.396608    4.202714   -0.321828
     22          6           0        0.568298    4.630737    0.145807
     23          6           0        3.344130    6.635677   -0.055790
     24          8           0        4.435343    7.243095   -0.024733
     25          6           0        2.084603    7.424954   -0.065599
     26          7           0        6.883048    2.281657   -0.299224
     27          6           0        6.972609    3.603229   -0.383135
     28          6           0        8.397200    4.101435   -0.511810
     29          6           0        9.170816    2.826307   -0.108143
     30          6           0        8.145223    1.720103   -0.274075
     31          6           0        8.585703    4.644599   -1.961396
     32          6           0        9.956229    3.021155    1.326029
     33          6           0        9.603528    2.149921    2.550563
     34          7           0        6.263390   -0.584805   -0.097562
     35          6           0        7.593606   -0.732250   -0.263842
     36          6           0        7.944878   -2.136004   -0.266391
     37          6           0        6.691513   -2.813898   -0.121419
     38          6           0        5.710315   -1.810980   -0.023503
     39          6           0        9.301284   -2.751366   -0.436831
     40          6           0        6.135704   -4.129861    0.036478
     41          8           0        6.712896   -5.231312    0.077918
     42          6           0        4.518249   -3.791644    0.103489
     43          6           0        3.739278   -4.640289   -0.792120
     44          8           0        3.065771   -4.230862   -1.731467
     45          8           0        3.805436   -5.982445   -0.427287
     46          6           0        3.178774   -6.964989   -1.364835
     47          6           0       -2.337622   -4.325796   -0.134689
     48          6           0       -3.428903   -3.325256   -0.276220
     49          6           0       -4.614990   -3.472637   -0.904419
     50          6           0       -5.027560   -4.766607   -1.469982
     51          6           0       -5.667646   -2.400243   -0.752533
     52          6           0       -6.465584   -2.320304    0.483255
     53          6           0       -6.099981   -1.090901    1.369133
     54          6           0       -7.208557   -0.312201    1.951604
     55          6           0       -6.849140    0.322653    3.257507
     56          6           0       -8.129199    0.562741    1.058393
     57          6           0       -9.584323   -0.058968    0.694701
     58          6           0      -10.689169    0.337384    1.668024
     59          6           0      -11.811065    1.142270    0.985132
     60          6           0      -12.704096    1.871914    1.970262
     61          6           0      -12.685623    0.101314    0.225423
     62          6           0      -13.061934    0.566574   -1.181679
     63          6           0      -14.461231    1.141801   -1.455232
     64          6           0      -14.534791    2.675733   -1.379782
     65          6           0      -16.025912    3.106885   -1.250186
     66          6           0      -14.093676    3.295164   -2.700586
     67          1           0        0.621682    1.963123    0.072359
     68          1           0        6.074020    5.510353   -0.600680
     69          1           0        9.466300    0.033248   -0.267668
     70          1           0        1.483255   -2.691835   -0.482306
     71          1           0        0.136851   -0.434082    0.476657
     72          1           0        0.207646   -1.496771   -1.988021
     73          1           0        0.678977    0.195415   -2.190834
     74          1           0       -0.746215   -0.150426   -1.328713
     75          1           0        1.264851   -1.611753    2.316402
     76          1           0        2.555735   -2.643444    2.081497
     77          1           0       -0.082275   -3.514331    2.640826
     78          1           0        1.305697   -4.471769    2.316982
     79          1           0        0.515588    5.215545    1.063798
     80          1           0        0.020198    3.699507    0.291924
     81          1           0        0.234669    5.265601   -0.675204
     82          1           0        1.414485    7.055227   -0.841825
     83          1           0        2.263309    8.485536   -0.246031
     84          1           0        1.512919    7.357302    0.858902
     85          1           0        8.530043    4.886305    0.232506
     86          1           0       10.000878    2.570100   -0.766522
     87          1           0        9.589641    4.366561   -2.283692
     88          1           0        8.537578    5.725486   -1.826669
     89          1           0        7.776901    4.313452   -2.612750
     90          1           0        9.950297    4.092501    1.527071
     91          1           0       11.038472    2.931925    1.231173
     92          1           0        9.642812    2.666162    3.509527
     93          1           0       10.432802    1.442865    2.556008
     94          1           0        8.645414    1.645319    2.426285
     95          1           0        9.728028   -3.224961    0.446428
     96          1           0        9.974908   -1.949345   -0.739946
     97          1           0        9.255662   -3.459228   -1.264166
     98          1           0        4.214213   -4.116704    1.098589
     99          1           0        3.369963   -8.017737   -1.153965
    100          1           0        3.349631   -6.732915   -2.416679
    101          1           0        2.089378   -6.950822   -1.384801
    102          1           0       -2.643493   -5.291092    0.268828
    103          1           0       -1.950956   -4.498625   -1.139444
    104          1           0       -3.207159   -2.330549    0.111903
    105          1           0       -4.692403   -5.608747   -0.864146
    106          1           0       -4.547244   -4.754844   -2.448123
    107          1           0       -6.092804   -4.617971   -1.645358
    108          1           0       -6.352284   -2.500698   -1.594806
    109          1           0       -5.255794   -1.448943   -1.087426
    110          1           0       -6.247742   -3.236214    1.032618
    111          1           0       -7.498783   -2.278980    0.140629
    112          1           0       -5.503929   -0.324220    0.873118
    113          1           0       -5.525506   -1.521657    2.190180
    114          1           0       -7.935555   -1.051688    2.284632
    115          1           0       -7.268623   -0.234605    4.095274
    116          1           0       -7.279273    1.320651    3.348494
    117          1           0       -5.784437    0.484439    3.427740
    118          1           0       -7.671781    0.778693    0.093695
    119          1           0       -8.371080    1.492389    1.573294
    120          1           0       -9.427184   -1.136146    0.634870
    121          1           0       -9.800409    0.254973   -0.325645
    122          1           0      -10.316815    0.995435    2.453658
    123          1           0      -11.009746   -0.482247    2.312338
    124          1           0      -11.285023    1.822766    0.314912
    125          1           0      -12.551095    1.510812    2.987137
    126          1           0      -13.768563    1.830316    1.743826
    127          1           0      -12.442051    2.929709    2.012783
    128          1           0      -13.681507    0.044290    0.664677
    129          1           0      -12.310762   -0.910577    0.071080
    130          1           0      -12.733779   -0.278298   -1.787832
    131          1           0      -12.323320    1.277143   -1.550130
    132          1           0      -15.155009    0.696912   -0.741785
    133          1           0      -14.798690    0.811331   -2.437483
    134          1           0      -13.923625    2.983515   -0.531441
    135          1           0      -16.686692    2.245382   -1.344910
    136          1           0      -16.349565    3.883310   -1.943762
    137          1           0      -16.205501    3.492044   -0.246385
    138          1           0      -13.220915    2.828657   -3.157189
    139          1           0      -13.645553    4.243501   -2.402417
    140          1           0      -14.875493    3.394822   -3.452686
 ---------------------------------------------------------------------

 SCF Done:  E(RwB97XD) =  -3007.84380612     A.U. after   17 cycles

 Excitation energies and oscillator strengths:

 Excited State   1:      Singlet-A      1.6271 eV  762.01 nm  f=0.3944  <S**2>=0.000
     245 -> 248        0.17992
     246 -> 247        0.68487
     245 <- 248        0.11557
 This state for optimization and/or second-order correction.
 Total Energy, E(TD-HF/TD-DFT) =  -3007.78401268
 Copying the excited state density for this state as the 1-particle RhoCI density.

 Excited State   2:      Singlet-A      2.1059 eV  588.74 nm  f=0.1303  <S**2>=0.000
     245 -> 247        0.65052
     246 -> 248       -0.25425

 Excited State   3:      Singlet-A      3.1954 eV  388.01 nm  f=0.0038  <S**2>=0.000
     242 -> 247        0.62490
     244 -> 247       -0.21790
     246 -> 248        0.15549

 Excited State   4:      Singlet-A      3.4283 eV  361.65 nm  f=0.0020  <S**2>=0.000
     240 -> 247       -0.20612
     241 -> 247        0.21628
     241 -> 249        0.10357
     242 -> 247        0.11288
     244 -> 247        0.56954
     246 -> 248        0.13140

 Excited State   5:      Singlet-A      3.4739 eV  356.90 nm  f=0.0010  <S**2>=0.000
     241 -> 247        0.50607
     241 -> 249        0.30912
     241 -> 250        0.22229
     244 -> 247       -0.21527

 The electronic state is 1-A.
 Alpha  occ. eigenvalues --  -46.94829 -19.31475 -19.28604 -19.24502 -19.23820
 Alpha  occ. eigenvalues --  -19.23672 -19.23207 -14.47443 -14.46060 -14.44175
 Alpha  occ. eigenvalues --  -14.43217 -10.43192 -10.41885 -10.39076 -10.39048
 Alpha  occ. eigenvalues --  -10.36379 -10.35534 -10.35507 -10.35174 -10.35131
 Alpha  occ. eigenvalues --  -10.34661 -10.34262 -10.33795 -10.33748 -10.32637
 Alpha  occ. eigenvalues --  -10.32139 -10.32028 -10.31985 -10.31975 -10.31906
 Alpha  occ. eigenvalues --  -10.31863 -10.31784 -10.31597 -10.31567 -10.31473
 Alpha  occ. eigenvalues --  -10.31311 -10.31309 -10.31061 -10.30545 -10.30444
 Alpha  occ. eigenvalues --  -10.30336 -10.30024 -10.29992 -10.29825 -10.29783
 Alpha  occ. eigenvalues --  -10.29774 -10.29754 -10.29502 -10.29466 -10.29424
 Alpha  occ. eigenvalues --  -10.29391 -10.29283 -10.29186 -10.29106 -10.29036
 Alpha  occ. eigenvalues --  -10.28999 -10.28900 -10.28712 -10.28526 -10.28440
 Alpha  occ. eigenvalues --  -10.28382 -10.28235 -10.28196 -10.28158 -10.28099
 Alpha  occ. eigenvalues --  -10.27881  -3.20768  -1.94370  -1.93885  -1.93739
 Alpha  occ. eigenvalues --   -1.20815  -1.15762  -1.10670  -1.10438  -1.10128
 Alpha  occ. eigenvalues --   -1.07644  -1.06485  -1.05445  -1.04262  -1.03263
 Alpha  occ. eigenvalues --   -0.94532  -0.93643  -0.92351  -0.92047  -0.91412
 Alpha  occ. eigenvalues --   -0.90484  -0.89997  -0.89795  -0.89348  -0.88822
 Alpha  occ. eigenvalues --   -0.87914  -0.87468  -0.86691  -0.85454  -0.85303
 Alpha  occ. eigenvalues --   -0.84689  -0.83833  -0.83814  -0.82756  -0.82357
 Alpha  occ. eigenvalues --   -0.81863  -0.80222  -0.80151  -0.78991  -0.78139
 Alpha  occ. eigenvalues --   -0.77418  -0.77140  -0.77035  -0.76936  -0.76344
 Alpha  occ. eigenvalues --   -0.75811  -0.74387  -0.73536  -0.72878  -0.71216
 Alpha  occ. eigenvalues --   -0.70682  -0.70395  -0.69242  -0.68927  -0.68175
 Alpha  occ. eigenvalues --   -0.67404  -0.67142  -0.66828  -0.66381  -0.66126
 Alpha  occ. eigenvalues --   -0.65996  -0.64951  -0.64787  -0.62837  -0.62338
 Alpha  occ. eigenvalues --   -0.61877  -0.61247  -0.60603  -0.60480  -0.59453
 Alpha  occ. eigenvalues --   -0.59138  -0.58803  -0.58079  -0.57791  -0.57169
 Alpha  occ. eigenvalues --   -0.57052  -0.56749  -0.56577  -0.56361  -0.56108
 Alpha  occ. eigenvalues --   -0.55768  -0.55166  -0.55037  -0.54826  -0.54511
 Alpha  occ. eigenvalues --   -0.54308  -0.54074  -0.53959  -0.53880  -0.53527
 Alpha  occ. eigenvalues --   -0.53174  -0.52998  -0.52939  -0.52814  -0.52486
 Alpha  occ. eigenvalues --   -0.52084  -0.51987  -0.51847  -0.51642  -0.51403
 Alpha  occ. eigenvalues --   -0.51143  -0.51123  -0.50704  -0.50547  -0.50506
 Alpha  occ. eigenvalues --   -0.50444  -0.50320  -0.50172  -0.50156  -0.49726
 Alpha  occ. eigenvalues --   -0.49561  -0.49358  -0.49215  -0.49012  -0.48777
 Alpha  occ. eigenvalues --   -0.48471  -0.48121  -0.48019  -0.47852  -0.47607
 Alpha  occ. eigenvalues --   -0.47446  -0.47314  -0.47220  -0.47195  -0.46769
 Alpha  occ. eigenvalues --   -0.46316  -0.46162  -0.45917  -0.45818  -0.45710
 Alpha  occ. eigenvalues --   -0.45422  -0.45347  -0.45175  -0.44995  -0.44854
 Alpha  occ. eigenvalues --   -0.44786  -0.44553  -0.44503  -0.43845  -0.43788
 Alpha  occ. eigenvalues --   -0.43690  -0.43677  -0.43177  -0.43142  -0.42921
 Alpha  occ. eigenvalues --   -0.42725  -0.42342  -0.42266  -0.42250  -0.41676
 Alpha  occ. eigenvalues --   -0.41520  -0.41336  -0.41291  -0.40657  -0.40597
 Alpha  occ. eigenvalues --   -0.40520  -0.39790  -0.39764  -0.39565  -0.39459
 Alpha  occ. eigenvalues --   -0.39136  -0.38858  -0.38712  -0.38573  -0.38313
 Alpha  occ. eigenvalues --   -0.37699  -0.36909  -0.36678  -0.36335  -0.35650
 Alpha  occ. eigenvalues --   -0.35642  -0.35409  -0.34687  -0.33410  -0.32836
 Alpha  occ. eigenvalues --   -0.31965  -0.31708  -0.31631  -0.31249  -0.25795
 Alpha  occ. eigenvalues --   -0.23031
 Alpha virt. eigenvalues --   -0.07326   0.00478   0.02146   0.04196   0.06052
 Alpha virt. eigenvalues --    0.06508   0.07797   0.07940   0.08205   0.09057
 Alpha virt. eigenvalues --    0.10948   0.11387   0.11696   0.12156   0.12660

 Mulliken charges:
               1
     1  Mg   0.956909
     2  C    0.052688
     3  C   -0.085394
     4  C   -0.067078
     5  C   -0.073666
     6  N   -0.345530
     7  C   -0.016943
     8  C   -0.074811
     9  C   -0.135144
    10  C    0.108886
    11  C    0.012192
    12  C    0.086251
    13  C    0.051725
    14  C    0.158509
    15  O   -0.263406
    16  O   -0.328610
    17  N   -0.496925
    18  C    0.169896
    19  C   -0.165649
    20  C   -0.083866
    21  C    0.160402
    22  C    0.066309
    23  C    0.061876
    24  O   -0.256296
    25  C   -0.014951
    26  N   -0.401396
    27  C    0.061128
    28  C   -0.116462
    29  C   -0.019340
    30  C    0.084729
    31  C    0.036013
    32  C   -0.043903
    33  C   -0.045408
    34  N   -0.385608
    35  C    0.081173
    36  C   -0.177864
    37  C   -0.045225
    38  C    0.104108
    39  C    0.088745
    40  C    0.140688
    41  O   -0.211010
    42  C   -0.170298
    43  C    0.283000
    44  O   -0.252782
    45  O   -0.376891
    46  C    0.156561
    47  C    0.274570
    48  C   -0.165454
    49  C   -0.264694
    50  C    0.070551
    51  C    0.016328
    52  C    0.039625
    53  C    0.025103
    54  C   -0.177025
    55  C    0.003540
    56  C    0.019664
    57  C   -0.050111
    58  C    0.023618
    59  C   -0.186953
    60  C    0.019534
    61  C    0.032945
    62  C   -0.052519
    63  C    0.026234
    64  C   -0.217754
    65  C    0.000812
    66  C   -0.001792
    67  H   -0.006862
    68  H    0.018434
    69  H   -0.006686
    70  H    0.074242
    71  H    0.027175
    72  H    0.055060
    73  H    0.041293
    74  H    0.026211
    75  H    0.025834
    76  H    0.031569
    77  H    0.036278
    78  H    0.056274
    79  H    0.056318
    80  H    0.045980
    81  H    0.054971
    82  H    0.041685
    83  H    0.056910
    84  H    0.055082
    85  H    0.048108
    86  H    0.025446
    87  H    0.041839
    88  H    0.048585
    89  H    0.062452
    90  H    0.014363
    91  H    0.019342
    92  H    0.041066
    93  H    0.034913
    94  H    0.055559
    95  H    0.060677
    96  H    0.013612
    97  H    0.059069
    98  H    0.081370
    99  H    0.053576
   100  H    0.044181
   101  H    0.042949
   102  H    0.046779
   103  H    0.067195
   104  H    0.022159
   105  H    0.050018
   106  H    0.050866
   107  H    0.028875
   108  H   -0.005143
   109  H    0.017244
   110  H    0.027272
   111  H    0.025414
   112  H    0.015236
   113  H    0.022510
   114  H    0.007983
   115  H    0.030941
   116  H    0.009691
   117  H    0.021639
   118  H    0.008521
   119  H    0.013587
   120  H    0.020601
   121  H    0.020276
   122  H   -0.003404
   123  H    0.014845
   124  H    0.024484
   125  H    0.026703
   126  H    0.031562
   127  H    0.023146
   128  H    0.005774
   129  H    0.024586
   130  H    0.004768
   131  H   -0.009456
   132  H    0.009825
   133  H    0.015048
   134  H    0.025802
   135  H    0.027227
   136  H    0.032394
   137  H    0.023040
   138  H    0.015147
   139  H    0.024105
   140  H    0.042305
 Sum of Mulliken charges =  -0.00000

 Dipole moment (field-independent basis, Debye):
    X=             -5.5895    Y=              2.5811    Z=              2.3166  Tot=              6.5781
 Quadrupole moment (field-independent basis, Debye-Ang):
   XX=           -383.1828   YY=           -425.6419   ZZ=           -400.4234
   XY=             25.8153   XZ=              7.3365   YZ=             -2.4556

 Normal termination of Gaussian 16 at Fri Apr 29 19:44:16 2022.
