 Gaussian 16, Revision A.03,
 Gaussian 16:  ES64L-G16RevA.03 25-Dec-2016

 --------------------
 #p ZINDO=(nstates=5)
 --------------------

 -----------------------------
 step_451_chromophore_18 ZINDO
 -----------------------------
 Symbolic Z-matrix:
 Charge =  0 Multiplicity = 1

                         Standard orientation:
 ---------------------------------------------------------------------
 Center     Atomic      Atomic             Coordinates (Angstroms)
 Number     Number       Type             X           Y           Z
 ---------------------------------------------------------------------
      1         12           0        5.156808    1.250874    0.067045
      2          6           0        4.405631   -2.319636   -0.040437
      3          6           0        1.697450    1.777716    0.069224
      4          6           0        5.831086    4.449942   -0.502709
      5          6           0        8.437460    0.388689   -0.355970
      6          7           0        3.364031   -0.115076    0.042257
      7          6           0        3.239114   -1.518259    0.089677
      8          6           0        1.740165   -1.971750    0.293872
      9          6           0        1.010132   -0.632659   -0.144954
     10          6           0        2.097195    0.422380   -0.027079
     11          6           0        0.262805   -0.528763   -1.489800
     12          6           0        1.563619   -2.442019    1.675420
     13          6           0        0.699688   -3.668416    1.896658
     14          6           0       -0.166198   -4.184798    0.739775
     15          8           0        0.282992   -4.857750   -0.179076
     16          8           0       -1.400075   -3.684525    0.757532
     17          7           0        3.932940    2.952579   -0.040998
     18          6           0        2.488318    2.942805    0.003711
     19          6           0        2.064832    4.311306   -0.085867
     20          6           0        3.251392    5.137226   -0.129653
     21          6           0        4.396608    4.202714   -0.321828
     22          6           0        0.568298    4.630737    0.145807
     23          6           0        3.344130    6.635677   -0.055790
     24          8           0        4.435343    7.243095   -0.024733
     25          6           0        2.084603    7.424954   -0.065599
     26          7           0        6.883048    2.281657   -0.299224
     27          6           0        6.972609    3.603229   -0.383135
     28          6           0        8.397200    4.101435   -0.511810
     29          6           0        9.170816    2.826307   -0.108143
     30          6           0        8.145223    1.720103   -0.274075
     31          6           0        8.585703    4.644599   -1.961396
     32          6           0        9.956229    3.021155    1.326029
     33          6           0        9.603528    2.149921    2.550563
     34          7           0        6.263390   -0.584805   -0.097562
     35          6           0        7.593606   -0.732250   -0.263842
     36          6           0        7.944878   -2.136004   -0.266391
     37          6           0        6.691513   -2.813898   -0.121419
     38          6           0        5.710315   -1.810980   -0.023503
     39          6           0        9.301284   -2.751366   -0.436831
     40          6           0        6.135704   -4.129861    0.036478
     41          8           0        6.712896   -5.231312    0.077918
     42          6           0        4.518249   -3.791644    0.103489
     43          6           0        3.739278   -4.640289   -0.792120
     44          8           0        3.065771   -4.230862   -1.731467
     45          8           0        3.805436   -5.982445   -0.427287
     46          6           0        3.178774   -6.964989   -1.364835
     47          6           0       -2.337622   -4.325796   -0.134689
     48          6           0       -3.428903   -3.325256   -0.276220
     49          6           0       -4.614990   -3.472637   -0.904419
     50          6           0       -5.027560   -4.766607   -1.469982
     51          6           0       -5.667646   -2.400243   -0.752533
     52          6           0       -6.465584   -2.320304    0.483255
     53          6           0       -6.099981   -1.090901    1.369133
     54          6           0       -7.208557   -0.312201    1.951604
     55          6           0       -6.849140    0.322653    3.257507
     56          6           0       -8.129199    0.562741    1.058393
     57          6           0       -9.584323   -0.058968    0.694701
     58          6           0      -10.689169    0.337384    1.668024
     59          6           0      -11.811065    1.142270    0.985132
     60          6           0      -12.704096    1.871914    1.970262
     61          6           0      -12.685623    0.101314    0.225423
     62          6           0      -13.061934    0.566574   -1.181679
     63          6           0      -14.461231    1.141801   -1.455232
     64          6           0      -14.534791    2.675733   -1.379782
     65          6           0      -16.025912    3.106885   -1.250186
     66          6           0      -14.093676    3.295164   -2.700586
     67          1           0        0.621682    1.963123    0.072359
     68          1           0        6.074020    5.510353   -0.600680
     69          1           0        9.466300    0.033248   -0.267668
     70          1           0        1.483255   -2.691835   -0.482306
     71          1           0        0.136851   -0.434082    0.476657
     72          1           0        0.207646   -1.496771   -1.988021
     73          1           0        0.678977    0.195415   -2.190834
     74          1           0       -0.746215   -0.150426   -1.328713
     75          1           0        1.264851   -1.611753    2.316402
     76          1           0        2.555735   -2.643444    2.081497
     77          1           0       -0.082275   -3.514331    2.640826
     78          1           0        1.305697   -4.471769    2.316982
     79          1           0        0.515588    5.215545    1.063798
     80          1           0        0.020198    3.699507    0.291924
     81          1           0        0.234669    5.265601   -0.675204
     82          1           0        1.414485    7.055227   -0.841825
     83          1           0        2.263309    8.485536   -0.246031
     84          1           0        1.512919    7.357302    0.858902
     85          1           0        8.530043    4.886305    0.232506
     86          1           0       10.000878    2.570100   -0.766522
     87          1           0        9.589641    4.366561   -2.283692
     88          1           0        8.537578    5.725486   -1.826669
     89          1           0        7.776901    4.313452   -2.612750
     90          1           0        9.950297    4.092501    1.527071
     91          1           0       11.038472    2.931925    1.231173
     92          1           0        9.642812    2.666162    3.509527
     93          1           0       10.432802    1.442865    2.556008
     94          1           0        8.645414    1.645319    2.426285
     95          1           0        9.728028   -3.224961    0.446428
     96          1           0        9.974908   -1.949345   -0.739946
     97          1           0        9.255662   -3.459228   -1.264166
     98          1           0        4.214213   -4.116704    1.098589
     99          1           0        3.369963   -8.017737   -1.153965
    100          1           0        3.349631   -6.732915   -2.416679
    101          1           0        2.089378   -6.950822   -1.384801
    102          1           0       -2.643493   -5.291092    0.268828
    103          1           0       -1.950956   -4.498625   -1.139444
    104          1           0       -3.207159   -2.330549    0.111903
    105          1           0       -4.692403   -5.608747   -0.864146
    106          1           0       -4.547244   -4.754844   -2.448123
    107          1           0       -6.092804   -4.617971   -1.645358
    108          1           0       -6.352284   -2.500698   -1.594806
    109          1           0       -5.255794   -1.448943   -1.087426
    110          1           0       -6.247742   -3.236214    1.032618
    111          1           0       -7.498783   -2.278980    0.140629
    112          1           0       -5.503929   -0.324220    0.873118
    113          1           0       -5.525506   -1.521657    2.190180
    114          1           0       -7.935555   -1.051688    2.284632
    115          1           0       -7.268623   -0.234605    4.095274
    116          1           0       -7.279273    1.320651    3.348494
    117          1           0       -5.784437    0.484439    3.427740
    118          1           0       -7.671781    0.778693    0.093695
    119          1           0       -8.371080    1.492389    1.573294
    120          1           0       -9.427184   -1.136146    0.634870
    121          1           0       -9.800409    0.254973   -0.325645
    122          1           0      -10.316815    0.995435    2.453658
    123          1           0      -11.009746   -0.482247    2.312338
    124          1           0      -11.285023    1.822766    0.314912
    125          1           0      -12.551095    1.510812    2.987137
    126          1           0      -13.768563    1.830316    1.743826
    127          1           0      -12.442051    2.929709    2.012783
    128          1           0      -13.681507    0.044290    0.664677
    129          1           0      -12.310762   -0.910577    0.071080
    130          1           0      -12.733779   -0.278298   -1.787832
    131          1           0      -12.323320    1.277143   -1.550130
    132          1           0      -15.155009    0.696912   -0.741785
    133          1           0      -14.798690    0.811331   -2.437483
    134          1           0      -13.923625    2.983515   -0.531441
    135          1           0      -16.686692    2.245382   -1.344910
    136          1           0      -16.349565    3.883310   -1.943762
    137          1           0      -16.205501    3.492044   -0.246385
    138          1           0      -13.220915    2.828657   -3.157189
    139          1           0      -13.645553    4.243501   -2.402417
    140          1           0      -14.875493    3.394822   -3.452686
 ---------------------------------------------------------------------

 SCF Done:  E(RZINDO/S) =  -474.396682269     A.U. after   17 cycles

 Excitation energies and oscillator strengths:

 Excited State   1:      Singlet-A      1.2226 eV 1014.08 nm  f=0.6129  <S**2>=0.000
     175 ->178        -0.17423
     176 ->177         0.66782
 This state for optimization and/or second-order correction.
 Total Energy, E(CIS/TDA) =  -474.351751699
 Copying the excited state density for this state as the 1-particle RhoCI density.

 Excited State   2:      Singlet-A      1.9225 eV  644.92 nm  f=0.0732  <S**2>=0.000
     175 ->177         0.56525
     176 ->178         0.39456

 Excited State   3:      Singlet-A      2.9229 eV  424.19 nm  f=0.0019  <S**2>=0.000
     167 ->179        -0.12238
     168 ->177         0.29680
     168 ->179        -0.38423
     168 ->180         0.21623
     168 ->186        -0.19309
     171 ->177        -0.26979
     171 ->179         0.10670

 Excited State   4:      Singlet-A      2.9547 eV  419.62 nm  f=0.6642  <S**2>=0.000
     171 ->177        -0.16794
     175 ->177        -0.29254
     176 ->178         0.47413
     176 ->179         0.24920
     176 ->180         0.21694

 Excited State   5:      Singlet-A      3.0358 eV  408.40 nm  f=0.0565  <S**2>=0.000
     168 ->177         0.12721
     168 ->179        -0.13468
     170 ->180         0.11051
     171 ->177         0.27959
     172 ->177         0.25841
     176 ->178        -0.11235
     176 ->179         0.45135
     176 ->180         0.13582

 The electronic state is 1-A.
 Alpha  occ. eigenvalues --   -1.83877  -1.81160  -1.78169  -1.75946  -1.69658
 Alpha  occ. eigenvalues --   -1.69018  -1.67272  -1.63778  -1.57314  -1.57069
 Alpha  occ. eigenvalues --   -1.55238  -1.53623  -1.50109  -1.47855  -1.44235
 Alpha  occ. eigenvalues --   -1.43281  -1.42144  -1.39796  -1.39729  -1.39081
 Alpha  occ. eigenvalues --   -1.37113  -1.34928  -1.32772  -1.31423  -1.30017
 Alpha  occ. eigenvalues --   -1.28886  -1.24640  -1.23289  -1.21430  -1.17423
 Alpha  occ. eigenvalues --   -1.16744  -1.15277  -1.15154  -1.14276  -1.14137
 Alpha  occ. eigenvalues --   -1.12744  -1.10974  -1.10398  -1.05256  -1.03863
 Alpha  occ. eigenvalues --   -1.03418  -1.00346  -0.99118  -0.97997  -0.97488
 Alpha  occ. eigenvalues --   -0.95901  -0.94644  -0.94543  -0.93517  -0.93287
 Alpha  occ. eigenvalues --   -0.92144  -0.89961  -0.89652  -0.87839  -0.87252
 Alpha  occ. eigenvalues --   -0.86367  -0.85443  -0.83412  -0.82098  -0.80565
 Alpha  occ. eigenvalues --   -0.80316  -0.78343  -0.78054  -0.76419  -0.75601
 Alpha  occ. eigenvalues --   -0.75110  -0.74305  -0.73863  -0.73649  -0.73145
 Alpha  occ. eigenvalues --   -0.72818  -0.72466  -0.72192  -0.71333  -0.70921
 Alpha  occ. eigenvalues --   -0.70519  -0.69827  -0.68719  -0.68489  -0.67972
 Alpha  occ. eigenvalues --   -0.67594  -0.67022  -0.66442  -0.65911  -0.65386
 Alpha  occ. eigenvalues --   -0.64725  -0.64214  -0.64048  -0.63796  -0.63118
 Alpha  occ. eigenvalues --   -0.62875  -0.62796  -0.62487  -0.61747  -0.61500
 Alpha  occ. eigenvalues --   -0.61241  -0.61092  -0.60776  -0.60608  -0.60227
 Alpha  occ. eigenvalues --   -0.59756  -0.59408  -0.59125  -0.58734  -0.58663
 Alpha  occ. eigenvalues --   -0.58202  -0.57662  -0.57410  -0.57213  -0.56353
 Alpha  occ. eigenvalues --   -0.55634  -0.55185  -0.55090  -0.54952  -0.54300
 Alpha  occ. eigenvalues --   -0.54106  -0.53697  -0.53551  -0.52990  -0.52933
 Alpha  occ. eigenvalues --   -0.52180  -0.51651  -0.51307  -0.51142  -0.50986
 Alpha  occ. eigenvalues --   -0.50619  -0.50320  -0.50248  -0.50055  -0.49882
 Alpha  occ. eigenvalues --   -0.49207  -0.49069  -0.48869  -0.48856  -0.48750
 Alpha  occ. eigenvalues --   -0.48601  -0.48556  -0.48418  -0.47744  -0.47546
 Alpha  occ. eigenvalues --   -0.47370  -0.46788  -0.46654  -0.46574  -0.46173
 Alpha  occ. eigenvalues --   -0.46047  -0.45729  -0.45409  -0.45057  -0.44902
 Alpha  occ. eigenvalues --   -0.44792  -0.44587  -0.44213  -0.43702  -0.43625
 Alpha  occ. eigenvalues --   -0.43579  -0.42770  -0.42645  -0.41855  -0.41745
 Alpha  occ. eigenvalues --   -0.41611  -0.41133  -0.40570  -0.38595  -0.38181
 Alpha  occ. eigenvalues --   -0.37522  -0.36898  -0.36012  -0.34852  -0.34255
 Alpha  occ. eigenvalues --   -0.32946  -0.32059  -0.31612  -0.31375  -0.26610
 Alpha  occ. eigenvalues --   -0.21726
 Alpha virt. eigenvalues --   -0.08765  -0.01770  -0.00621   0.01253   0.02024
 Alpha virt. eigenvalues --    0.02622   0.02937   0.03393   0.04622   0.04815
 Alpha virt. eigenvalues --    0.06307   0.06684   0.07101   0.07796   0.08221

 Mulliken charges:
               1
     1  Mg   0.422199
     2  C   -0.017547
     3  C   -0.069903
     4  C   -0.100492
     5  C   -0.063432
     6  N   -0.281825
     7  C    0.090499
     8  C    0.013730
     9  C   -0.002308
    10  C    0.161356
    11  C   -0.044926
    12  C    0.001723
    13  C    0.004951
    14  C    0.468918
    15  O   -0.521990
    16  O   -0.258491
    17  N   -0.347983
    18  C    0.104507
    19  C    0.019579
    20  C   -0.037010
    21  C    0.162972
    22  C   -0.045465
    23  C    0.331978
    24  O   -0.530806
    25  C   -0.027066
    26  N   -0.271656
    27  C    0.185739
    28  C    0.007647
    29  C    0.003842
    30  C    0.106021
    31  C   -0.046786
    32  C   -0.040454
    33  C   -0.053357
    34  N   -0.315532
    35  C    0.089879
    36  C    0.004897
    37  C   -0.064848
    38  C    0.098446
    39  C   -0.036722
    40  C    0.320466
    41  O   -0.524371
    42  C    0.062450
    43  C    0.489273
    44  O   -0.523192
    45  O   -0.263812
    46  C    0.068907
    47  C    0.112770
    48  C   -0.098528
    49  C   -0.014626
    50  C   -0.047774
    51  C   -0.017225
    52  C   -0.022038
    53  C   -0.021567
    54  C   -0.003880
    55  C   -0.051871
    56  C   -0.040698
    57  C   -0.040369
    58  C   -0.030136
    59  C   -0.000702
    60  C   -0.054019
    61  C   -0.039995
    62  C   -0.049309
    63  C   -0.024768
    64  C   -0.005589
    65  C   -0.059823
    66  C   -0.054496
    67  H    0.030847
    68  H    0.034962
    69  H    0.021285
    70  H    0.059636
    71  H    0.022717
    72  H    0.031527
    73  H    0.021605
    74  H    0.013788
    75  H    0.020977
    76  H    0.021213
    77  H    0.021149
    78  H    0.040821
    79  H    0.030401
    80  H    0.036119
    81  H    0.036021
    82  H    0.029160
    83  H    0.035957
    84  H    0.038787
    85  H    0.037649
    86  H    0.021896
    87  H    0.025130
    88  H    0.023664
    89  H    0.037650
    90  H    0.015669
    91  H    0.014786
    92  H    0.023316
    93  H    0.018243
    94  H    0.029642
    95  H    0.038348
    96  H    0.012699
    97  H    0.035147
    98  H    0.057419
    99  H    0.038656
   100  H    0.044791
   101  H    0.036900
   102  H    0.048555
   103  H    0.059755
   104  H    0.025811
   105  H    0.038384
   106  H    0.032169
   107  H    0.026270
   108  H    0.001203
   109  H    0.015749
   110  H    0.024615
   111  H    0.024035
   112  H    0.021244
   113  H    0.014810
   114  H    0.004349
   115  H    0.017182
   116  H    0.009469
   117  H    0.014715
   118  H    0.014510
   119  H    0.021455
   120  H    0.017309
   121  H    0.018381
   122  H    0.003971
   123  H    0.021151
   124  H    0.031214
   125  H    0.018161
   126  H    0.022000
   127  H    0.008953
   128  H    0.019552
   129  H    0.024686
   130  H    0.008353
   131  H    0.007337
   132  H    0.012878
   133  H    0.016767
   134  H    0.031816
   135  H    0.019359
   136  H    0.022376
   137  H    0.008657
   138  H    0.008422
   139  H    0.009539
   140  H    0.030899
 Sum of Mulliken charges =  -0.00000

 Dipole moment (field-independent basis, Debye):
    X=             -8.4945    Y=              5.0592    Z=              3.7627  Tot=             10.5788
 N-N= 4.337332819192D+03 E-N= 0.000000000000D+00  KE=-9.349561190476D+03
 Leave Link  601 at Fri Apr 29 19:56:10 2022, MaxMem=  6710886400 cpu:               0.8 elap:               0.1
 (Enter /sw/apps/gaussian-16.0/g16/l9999.exe)
 1\1\GINC-BP1-COMPUTE161\SP\RZINDO CIS\STO-3G\C55H74Mg1N4O6\OF15641\29-
 Apr-2022\0\\#p ZINDO=(nstates=5)\\step_451_chromophore_18 ZINDO\\0,1\M
 g,0,35.329,49.311,25.04\C,0,34.948,47.277,28.047\C,0,34.093,51.984,26.
 93\C,0,35.049,50.964,22.176\C,0,36.107,46.415,23.399\N,0,34.659,49.539
 ,27.18\C,0,34.654,48.649,28.273\C,0,34.306,49.38,29.629\C,0,33.639,50.
 695,29.042\C,0,34.142,50.742,27.609\C,0,32.116,50.925,29.116\C,0,35.53
 1,49.517,30.43\C,0,35.424,49.287,31.925\C,0,34.032,49.208,32.566\O,0,3

 Normal termination of Gaussian 16 at Fri Apr 29 19:56:10 2022.
