 Gaussian 16, Revision A.03,
 Gaussian 16:  ES64L-G16RevA.03 25-Dec-2016

 ------------------------------
 #p blyp/Def2SVP td=(nstates=5)
 ------------------------------

 --------------------------------------------------
 step_351_chromophore_13 TDDFT with blyp functional
 --------------------------------------------------
 Symbolic Z-matrix:
 Charge =  0 Multiplicity = 1

                         Standard orientation:
 ---------------------------------------------------------------------
 Center     Atomic      Atomic             Coordinates (Angstroms)
 Number     Number       Type             X           Y           Z
 ---------------------------------------------------------------------
      1         12           0       -5.923439    0.273008   -0.033878
      2          6           0       -3.507775   -2.219051   -0.158354
      3          6           0       -3.358716    2.536237    0.947323
      4          6           0       -8.242058    2.760309    0.373887
      5          6           0       -8.411859   -2.002268   -0.674356
      6          7           0       -3.775611    0.116502    0.465404
      7          6           0       -2.996203   -0.992377    0.209144
      8          6           0       -1.472832   -0.718583    0.468248
      9          6           0       -1.497106    0.814768    0.843035
     10          6           0       -2.975312    1.212240    0.781652
     11          6           0       -0.791077    1.062300    2.275753
     12          6           0       -0.419606   -1.056198   -0.620999
     13          6           0        0.805561   -1.854956   -0.108916
     14          6           0        2.084229   -2.021507   -0.970037
     15          8           0        2.109250   -2.033207   -2.194430
     16          8           0        3.231089   -2.150085   -0.191963
     17          7           0       -5.812074    2.380864    0.457011
     18          6           0       -4.721000    3.103706    0.865353
     19          6           0       -5.018382    4.523663    0.879558
     20          6           0       -6.396482    4.652428    0.581898
     21          6           0       -6.907098    3.237625    0.422615
     22          6           0       -3.982321    5.622279    0.968296
     23          6           0       -7.303723    5.855528    0.408727
     24          8           0       -8.507438    5.701018    0.127823
     25          6           0       -6.761140    7.290067    0.676865
     26          7           0       -8.065378    0.346866    0.132805
     27          6           0       -8.844660    1.514392    0.213194
     28          6           0      -10.352130    1.197425    0.004411
     29          6           0      -10.316783   -0.275198   -0.576277
     30          6           0       -8.854389   -0.690815   -0.320621
     31          6           0      -11.122641    1.499024    1.338597
     32          6           0      -11.022224   -0.322059   -1.996669
     33          6           0      -10.273016    0.306150   -3.220891
     34          7           0       -5.984575   -1.712813   -0.469861
     35          6           0       -7.065591   -2.530883   -0.721335
     36          6           0       -6.581792   -3.819119   -0.930515
     37          6           0       -5.173129   -3.762652   -0.730983
     38          6           0       -4.890517   -2.521655   -0.370359
     39          6           0       -7.450773   -5.090058   -1.118644
     40          6           0       -3.967457   -4.521099   -0.640684
     41          8           0       -3.805185   -5.688005   -1.073233
     42          6           0       -2.840725   -3.592690   -0.111558
     43          6           0       -2.459956   -4.087230    1.223990
     44          8           0       -3.149944   -4.342741    2.224109
     45          8           0       -1.097913   -4.384803    1.268304
     46          6           0       -0.523602   -4.977497    2.513053
     47          6           0        4.571497   -2.191695   -0.863415
     48          6           0        5.434726   -1.233005   -0.147325
     49          6           0        6.769381   -1.088682   -0.119692
     50          6           0        7.690095   -2.073696   -0.778053
     51          6           0        7.426441   -0.008560    0.713344
     52          6           0        7.285759    1.433017    0.209890
     53          6           0        8.640882    2.165930    0.403296
     54          6           0        9.339220    2.737141   -0.848447
     55          6           0        8.438799    3.853725   -1.544730
     56          6           0        9.714070    1.696882   -1.952789
     57          6           0       11.108447    2.028437   -2.642670
     58          6           0       12.135033    0.973122   -2.539793
     59          6           0       13.145268    1.447557   -1.443256
     60          6           0       14.165590    2.232441   -2.149582
     61          6           0       13.821660    0.214061   -0.716592
     62          6           0       13.773619    0.416819    0.818040
     63          6           0       12.333932    0.151469    1.384610
     64          6           0       12.369999   -1.104824    2.275252
     65          6           0       10.888236   -1.553286    2.532081
     66          6           0       13.039560   -0.688546    3.626756
     67          1           0       -2.532323    3.174084    1.265984
     68          1           0       -9.051466    3.484528    0.487423
     69          1           0       -9.246672   -2.636751   -0.980535
     70          1           0       -1.125123   -1.305265    1.317872
     71          1           0       -0.943846    1.448115    0.149496
     72          1           0       -1.366752    1.796518    2.838505
     73          1           0        0.217011    1.416656    2.062485
     74          1           0       -0.885036    0.189770    2.921665
     75          1           0       -0.084623   -0.107612   -1.040722
     76          1           0       -0.989165   -1.603298   -1.372441
     77          1           0        0.376441   -2.836871    0.093503
     78          1           0        1.044063   -1.406256    0.854819
     79          1           0       -4.201492    6.136789    1.903867
     80          1           0       -4.081520    6.395973    0.208164
     81          1           0       -2.940823    5.310262    0.884581
     82          1           0       -6.055611    7.462987    1.489959
     83          1           0       -7.685147    7.836543    0.866443
     84          1           0       -6.308193    7.603668   -0.263575
     85          1           0      -10.761624    1.859549   -0.757645
     86          1           0      -10.885759   -0.857587    0.147565
     87          1           0      -11.550937    2.463655    1.065802
     88          1           0      -10.403783    1.745251    2.120173
     89          1           0      -11.835392    0.767981    1.720483
     90          1           0      -11.997420    0.139200   -1.837717
     91          1           0      -11.184481   -1.380932   -2.194775
     92          1           0       -9.345999    0.707356   -2.809596
     93          1           0      -10.898539    1.030520   -3.740932
     94          1           0      -10.231531   -0.511806   -3.940238
     95          1           0       -7.374043   -5.642351   -0.183062
     96          1           0       -6.967620   -5.690723   -1.889875
     97          1           0       -8.445299   -4.847252   -1.493322
     98          1           0       -2.020933   -3.622815   -0.828892
     99          1           0        0.555413   -4.841363    2.441611
    100          1           0       -0.822834   -6.014295    2.665974
    101          1           0       -0.713666   -4.314606    3.356402
    102          1           0        4.536058   -2.001166   -1.935859
    103          1           0        5.007859   -3.175813   -0.693291
    104          1           0        4.816759   -0.502155    0.374671
    105          1           0        8.500597   -2.341850   -0.100623
    106          1           0        7.992982   -1.475253   -1.636665
    107          1           0        7.294409   -3.009760   -1.171109
    108          1           0        8.452952   -0.203106    1.025206
    109          1           0        6.865429    0.026871    1.646814
    110          1           0        6.463566    1.970568    0.681808
    111          1           0        7.112057    1.379408   -0.864774
    112          1           0        9.502584    1.528367    0.602265
    113          1           0        8.623824    2.967582    1.142071
    114          1           0       10.258248    3.251762   -0.567564
    115          1           0        7.877572    3.348239   -2.330609
    116          1           0        9.015981    4.649394   -2.016005
    117          1           0        7.706404    4.316441   -0.884000
    118          1           0        9.059694    1.682447   -2.824328
    119          1           0        9.673823    0.675460   -1.573170
    120          1           0       11.509312    2.969046   -2.265692
    121          1           0       10.962508    2.200286   -3.708902
    122          1           0       12.593555    0.810172   -3.514830
    123          1           0       11.679216    0.014188   -2.294199
    124          1           0       12.648112    2.002193   -0.647753
    125          1           0       14.127986    2.411663   -3.224364
    126          1           0       15.196521    1.886236   -2.083478
    127          1           0       14.184330    3.217442   -1.682110
    128          1           0       14.847574    0.136721   -1.076760
    129          1           0       13.287321   -0.721039   -0.884171
    130          1           0       14.127263    1.425979    1.029648
    131          1           0       14.647328   -0.131869    1.168836
    132          1           0       11.624004   -0.109248    0.599823
    133          1           0       11.889618    0.940029    1.992717
    134          1           0       12.859685   -1.982032    1.851427
    135          1           0       10.089726   -0.883005    2.216058
    136          1           0       10.671369   -1.780951    3.575584
    137          1           0       10.705558   -2.447851    1.937432
    138          1           0       12.359051   -0.253016    4.358892
    139          1           0       13.788019    0.100335    3.547868
    140          1           0       13.612162   -1.499098    4.075848
 ---------------------------------------------------------------------

 SCF Done:  E(RB-LYP) =  -3007.36086744     A.U. after   21 cycles

 Excitation energies and oscillator strengths:

 Excited State   1:      Singlet-A      1.6998 eV  729.42 nm  f=0.0031  <S**2>=0.000
     244 -> 247        0.68398
     245 -> 247       -0.17388
 This state for optimization and/or second-order correction.
 Total Energy, E(TD-HF/TD-DFT) =  -3007.29840190
 Copying the excited state density for this state as the 1-particle RhoCI density.

 Excited State   2:      Singlet-A      1.7767 eV  697.83 nm  f=0.3081  <S**2>=0.000
     245 -> 248        0.16846
     246 -> 247        0.69215
     246 <- 247       -0.15693

 Excited State   3:      Singlet-A      1.9025 eV  651.68 nm  f=0.0433  <S**2>=0.000
     243 -> 247        0.53174
     244 -> 247       -0.12343
     245 -> 247       -0.42297

 Excited State   4:      Singlet-A      1.9511 eV  635.47 nm  f=0.0631  <S**2>=0.000
     243 -> 247        0.46328
     244 -> 247        0.12224
     245 -> 247        0.47992
     246 -> 248       -0.13995

 Excited State   5:      Singlet-A      1.9702 eV  629.31 nm  f=0.0003  <S**2>=0.000
     242 -> 247        0.70599

 The electronic state is 1-A.
 Alpha  occ. eigenvalues --  -46.27279 -18.81898 -18.81687 -18.76706 -18.76586
 Alpha  occ. eigenvalues --  -18.76112 -18.75238 -14.03640 -14.03498 -14.01787
 Alpha  occ. eigenvalues --  -14.00281 -10.04400 -10.04352 -10.00680  -9.99393
 Alpha  occ. eigenvalues --   -9.98033  -9.97895  -9.97048  -9.97031  -9.96859
 Alpha  occ. eigenvalues --   -9.96800  -9.96713  -9.96608  -9.95293  -9.94745
 Alpha  occ. eigenvalues --   -9.94592  -9.94405  -9.94285  -9.94245  -9.94115
 Alpha  occ. eigenvalues --   -9.93936  -9.93810  -9.93672  -9.93649  -9.93549
 Alpha  occ. eigenvalues --   -9.93523  -9.93398  -9.93395  -9.93200  -9.93122
 Alpha  occ. eigenvalues --   -9.92997  -9.92717  -9.92707  -9.92574  -9.92530
 Alpha  occ. eigenvalues --   -9.92467  -9.92333  -9.92317  -9.92257  -9.92033
 Alpha  occ. eigenvalues --   -9.91998  -9.91916  -9.91797  -9.91483  -9.91383
 Alpha  occ. eigenvalues --   -9.91344  -9.91290  -9.91017  -9.90956  -9.90832
 Alpha  occ. eigenvalues --   -9.90693  -9.90684  -9.90465  -9.90334  -9.90318
 Alpha  occ. eigenvalues --   -9.90165  -2.91823  -1.72247  -1.71701  -1.71546
 Alpha  occ. eigenvalues --   -0.96585  -0.96393  -0.90847  -0.89526  -0.89004
 Alpha  occ. eigenvalues --   -0.88249  -0.86494  -0.85262  -0.84752  -0.84194
 Alpha  occ. eigenvalues --   -0.76353  -0.73964  -0.73492  -0.72539  -0.72007
 Alpha  occ. eigenvalues --   -0.71722  -0.71426  -0.71200  -0.70719  -0.70400
 Alpha  occ. eigenvalues --   -0.68974  -0.68694  -0.68050  -0.67642  -0.67087
 Alpha  occ. eigenvalues --   -0.66513  -0.65700  -0.65203  -0.65050  -0.64431
 Alpha  occ. eigenvalues --   -0.64174  -0.62609  -0.62187  -0.62025  -0.61120
 Alpha  occ. eigenvalues --   -0.60377  -0.60283  -0.60000  -0.59045  -0.58872
 Alpha  occ. eigenvalues --   -0.58343  -0.57778  -0.56602  -0.55666  -0.55044
 Alpha  occ. eigenvalues --   -0.54319  -0.53924  -0.53478  -0.52942  -0.51309
 Alpha  occ. eigenvalues --   -0.50929  -0.50708  -0.50499  -0.50354  -0.50222
 Alpha  occ. eigenvalues --   -0.49269  -0.49211  -0.48316  -0.47826  -0.46600
 Alpha  occ. eigenvalues --   -0.46325  -0.46019  -0.45659  -0.45053  -0.44934
 Alpha  occ. eigenvalues --   -0.44076  -0.43393  -0.42861  -0.42761  -0.42354
 Alpha  occ. eigenvalues --   -0.42187  -0.42089  -0.41804  -0.41329  -0.41158
 Alpha  occ. eigenvalues --   -0.41048  -0.40647  -0.40355  -0.39817  -0.39769
 Alpha  occ. eigenvalues --   -0.39642  -0.39609  -0.39513  -0.39391  -0.39125
 Alpha  occ. eigenvalues --   -0.38915  -0.38638  -0.38487  -0.38339  -0.38277
 Alpha  occ. eigenvalues --   -0.37890  -0.37761  -0.37613  -0.37346  -0.37211
 Alpha  occ. eigenvalues --   -0.37110  -0.36922  -0.36837  -0.36755  -0.36538
 Alpha  occ. eigenvalues --   -0.36408  -0.36218  -0.35991  -0.35658  -0.35604
 Alpha  occ. eigenvalues --   -0.35265  -0.35215  -0.35008  -0.34789  -0.34726
 Alpha  occ. eigenvalues --   -0.34615  -0.34442  -0.34298  -0.34140  -0.33821
 Alpha  occ. eigenvalues --   -0.33753  -0.33486  -0.33265  -0.33055  -0.33045
 Alpha  occ. eigenvalues --   -0.32968  -0.32325  -0.32292  -0.32227  -0.31931
 Alpha  occ. eigenvalues --   -0.31830  -0.31666  -0.31539  -0.31462  -0.31336
 Alpha  occ. eigenvalues --   -0.31183  -0.30982  -0.30824  -0.30670  -0.30646
 Alpha  occ. eigenvalues --   -0.30406  -0.30330  -0.30137  -0.30115  -0.29906
 Alpha  occ. eigenvalues --   -0.29824  -0.29654  -0.29479  -0.29379  -0.29008
 Alpha  occ. eigenvalues --   -0.28907  -0.28720  -0.28569  -0.28203  -0.27968
 Alpha  occ. eigenvalues --   -0.27702  -0.27399  -0.27150  -0.26880  -0.26749
 Alpha  occ. eigenvalues --   -0.26363  -0.26182  -0.25782  -0.25381  -0.25046
 Alpha  occ. eigenvalues --   -0.24968  -0.24679  -0.24520  -0.24151  -0.23712
 Alpha  occ. eigenvalues --   -0.22900  -0.22434  -0.21760  -0.21600  -0.20845
 Alpha  occ. eigenvalues --   -0.19943  -0.19523  -0.19254  -0.18460  -0.17384
 Alpha  occ. eigenvalues --   -0.16399
 Alpha virt. eigenvalues --   -0.12283  -0.07366  -0.06193  -0.05052  -0.03349
 Alpha virt. eigenvalues --   -0.02548  -0.02176  -0.01858  -0.01373  -0.00309
 Alpha virt. eigenvalues --    0.00767   0.01576   0.01638   0.02291   0.02515

 Mulliken charges:
               1
     1  Mg   0.692675
     2  C   -0.042465
     3  C   -0.070607
     4  C    0.012834
     5  C   -0.054485
     6  N   -0.230389
     7  C   -0.047859
     8  C    0.028317
     9  C   -0.042011
    10  C    0.062064
    11  C    0.106026
    12  C    0.132992
    13  C    0.056091
    14  C    0.112023
    15  O   -0.185708
    16  O   -0.300733
    17  N   -0.264660
    18  C    0.121034
    19  C   -0.131427
    20  C    0.045845
    21  C    0.104378
    22  C    0.159127
    23  C   -0.066471
    24  O   -0.182652
    25  C    0.104204
    26  N   -0.248747
    27  C   -0.042653
    28  C   -0.016547
    29  C    0.058783
    30  C    0.005780
    31  C    0.124153
    32  C    0.062914
    33  C    0.079384
    34  N   -0.308391
    35  C    0.152566
    36  C   -0.191051
    37  C    0.146684
    38  C    0.085916
    39  C    0.177876
    40  C   -0.111159
    41  O   -0.168246
    42  C    0.143628
    43  C    0.145928
    44  O   -0.191204
    45  O   -0.297350
    46  C    0.226911
    47  C    0.346168
    48  C   -0.148624
    49  C   -0.127614
    50  C    0.129753
    51  C    0.130683
    52  C    0.112999
    53  C    0.064188
    54  C   -0.091155
    55  C    0.091718
    56  C    0.091923
    57  C    0.061826
    58  C    0.115289
    59  C   -0.089615
    60  C    0.128081
    61  C    0.099586
    62  C    0.080919
    63  C    0.078321
    64  C   -0.077108
    65  C    0.089951
    66  C    0.092412
    67  H   -0.054653
    68  H   -0.049101
    69  H   -0.063519
    70  H   -0.018050
    71  H   -0.013402
    72  H   -0.014093
    73  H    0.006093
    74  H   -0.007484
    75  H   -0.025698
    76  H   -0.016666
    77  H    0.027803
    78  H   -0.007941
    79  H    0.008329
    80  H   -0.002249
    81  H   -0.004301
    82  H    0.002855
    83  H    0.002246
    84  H    0.015246
    85  H   -0.012106
    86  H   -0.036159
    87  H    0.001187
    88  H   -0.001145
    89  H    0.005611
    90  H   -0.012931
    91  H   -0.022155
    92  H    0.024184
    93  H   -0.007040
    94  H   -0.003789
    95  H    0.019525
    96  H    0.001328
    97  H   -0.011434
    98  H   -0.004412
    99  H    0.008041
   100  H    0.039122
   101  H    0.007255
   102  H    0.019593
   103  H   -0.002649
   104  H   -0.044840
   105  H    0.004847
   106  H    0.008281
   107  H   -0.018371
   108  H   -0.025655
   109  H   -0.025899
   110  H   -0.018321
   111  H   -0.022995
   112  H   -0.024296
   113  H   -0.029961
   114  H   -0.029593
   115  H   -0.020481
   116  H   -0.016633
   117  H   -0.025317
   118  H   -0.026936
   119  H   -0.030271
   120  H   -0.028363
   121  H   -0.047944
   122  H   -0.039682
   123  H   -0.048671
   124  H   -0.016656
   125  H   -0.017799
   126  H   -0.030817
   127  H   -0.028109
   128  H   -0.042288
   129  H   -0.038058
   130  H   -0.045777
   131  H   -0.032164
   132  H   -0.007122
   133  H   -0.012562
   134  H   -0.026858
   135  H   -0.019127
   136  H   -0.021015
   137  H   -0.016300
   138  H   -0.018988
   139  H   -0.027104
   140  H   -0.018612
 Sum of Mulliken charges =  -0.00000

 Dipole moment (field-independent basis, Debye):
    X=              2.4119    Y=              4.4279    Z=              1.6823  Tot=              5.3154
 Quadrupole moment (field-independent basis, Debye-Ang):
   XX=           -358.8705   YY=           -425.6858   ZZ=           -410.4375
   XY=             -3.4125   XZ=             11.7306   YZ=             -2.6754

 Normal termination of Gaussian 16 at Fri Apr 29 14:44:08 2022.
