 Gaussian 16, Revision A.03,
 Gaussian 16:  ES64L-G16RevA.03 25-Dec-2016

 -----------------------------------
 #p cam-b3lyp/Def2SVP td=(nstates=5)
 -----------------------------------

 -------------------------------------------------------
 step_351_chromophore_13 TDDFT with cam-b3lyp functional
 -------------------------------------------------------
 Symbolic Z-matrix:
 Charge =  0 Multiplicity = 1

                         Standard orientation:
 ---------------------------------------------------------------------
 Center     Atomic      Atomic             Coordinates (Angstroms)
 Number     Number       Type             X           Y           Z
 ---------------------------------------------------------------------
      1         12           0       -5.923439    0.273008   -0.033878
      2          6           0       -3.507775   -2.219051   -0.158354
      3          6           0       -3.358716    2.536237    0.947323
      4          6           0       -8.242058    2.760309    0.373887
      5          6           0       -8.411859   -2.002268   -0.674356
      6          7           0       -3.775611    0.116502    0.465404
      7          6           0       -2.996203   -0.992377    0.209144
      8          6           0       -1.472832   -0.718583    0.468248
      9          6           0       -1.497106    0.814768    0.843035
     10          6           0       -2.975312    1.212240    0.781652
     11          6           0       -0.791077    1.062300    2.275753
     12          6           0       -0.419606   -1.056198   -0.620999
     13          6           0        0.805561   -1.854956   -0.108916
     14          6           0        2.084229   -2.021507   -0.970037
     15          8           0        2.109250   -2.033207   -2.194430
     16          8           0        3.231089   -2.150085   -0.191963
     17          7           0       -5.812074    2.380864    0.457011
     18          6           0       -4.721000    3.103706    0.865353
     19          6           0       -5.018382    4.523663    0.879558
     20          6           0       -6.396482    4.652428    0.581898
     21          6           0       -6.907098    3.237625    0.422615
     22          6           0       -3.982321    5.622279    0.968296
     23          6           0       -7.303723    5.855528    0.408727
     24          8           0       -8.507438    5.701018    0.127823
     25          6           0       -6.761140    7.290067    0.676865
     26          7           0       -8.065378    0.346866    0.132805
     27          6           0       -8.844660    1.514392    0.213194
     28          6           0      -10.352130    1.197425    0.004411
     29          6           0      -10.316783   -0.275198   -0.576277
     30          6           0       -8.854389   -0.690815   -0.320621
     31          6           0      -11.122641    1.499024    1.338597
     32          6           0      -11.022224   -0.322059   -1.996669
     33          6           0      -10.273016    0.306150   -3.220891
     34          7           0       -5.984575   -1.712813   -0.469861
     35          6           0       -7.065591   -2.530883   -0.721335
     36          6           0       -6.581792   -3.819119   -0.930515
     37          6           0       -5.173129   -3.762652   -0.730983
     38          6           0       -4.890517   -2.521655   -0.370359
     39          6           0       -7.450773   -5.090058   -1.118644
     40          6           0       -3.967457   -4.521099   -0.640684
     41          8           0       -3.805185   -5.688005   -1.073233
     42          6           0       -2.840725   -3.592690   -0.111558
     43          6           0       -2.459956   -4.087230    1.223990
     44          8           0       -3.149944   -4.342741    2.224109
     45          8           0       -1.097913   -4.384803    1.268304
     46          6           0       -0.523602   -4.977497    2.513053
     47          6           0        4.571497   -2.191695   -0.863415
     48          6           0        5.434726   -1.233005   -0.147325
     49          6           0        6.769381   -1.088682   -0.119692
     50          6           0        7.690095   -2.073696   -0.778053
     51          6           0        7.426441   -0.008560    0.713344
     52          6           0        7.285759    1.433017    0.209890
     53          6           0        8.640882    2.165930    0.403296
     54          6           0        9.339220    2.737141   -0.848447
     55          6           0        8.438799    3.853725   -1.544730
     56          6           0        9.714070    1.696882   -1.952789
     57          6           0       11.108447    2.028437   -2.642670
     58          6           0       12.135033    0.973122   -2.539793
     59          6           0       13.145268    1.447557   -1.443256
     60          6           0       14.165590    2.232441   -2.149582
     61          6           0       13.821660    0.214061   -0.716592
     62          6           0       13.773619    0.416819    0.818040
     63          6           0       12.333932    0.151469    1.384610
     64          6           0       12.369999   -1.104824    2.275252
     65          6           0       10.888236   -1.553286    2.532081
     66          6           0       13.039560   -0.688546    3.626756
     67          1           0       -2.532323    3.174084    1.265984
     68          1           0       -9.051466    3.484528    0.487423
     69          1           0       -9.246672   -2.636751   -0.980535
     70          1           0       -1.125123   -1.305265    1.317872
     71          1           0       -0.943846    1.448115    0.149496
     72          1           0       -1.366752    1.796518    2.838505
     73          1           0        0.217011    1.416656    2.062485
     74          1           0       -0.885036    0.189770    2.921665
     75          1           0       -0.084623   -0.107612   -1.040722
     76          1           0       -0.989165   -1.603298   -1.372441
     77          1           0        0.376441   -2.836871    0.093503
     78          1           0        1.044063   -1.406256    0.854819
     79          1           0       -4.201492    6.136789    1.903867
     80          1           0       -4.081520    6.395973    0.208164
     81          1           0       -2.940823    5.310262    0.884581
     82          1           0       -6.055611    7.462987    1.489959
     83          1           0       -7.685147    7.836543    0.866443
     84          1           0       -6.308193    7.603668   -0.263575
     85          1           0      -10.761624    1.859549   -0.757645
     86          1           0      -10.885759   -0.857587    0.147565
     87          1           0      -11.550937    2.463655    1.065802
     88          1           0      -10.403783    1.745251    2.120173
     89          1           0      -11.835392    0.767981    1.720483
     90          1           0      -11.997420    0.139200   -1.837717
     91          1           0      -11.184481   -1.380932   -2.194775
     92          1           0       -9.345999    0.707356   -2.809596
     93          1           0      -10.898539    1.030520   -3.740932
     94          1           0      -10.231531   -0.511806   -3.940238
     95          1           0       -7.374043   -5.642351   -0.183062
     96          1           0       -6.967620   -5.690723   -1.889875
     97          1           0       -8.445299   -4.847252   -1.493322
     98          1           0       -2.020933   -3.622815   -0.828892
     99          1           0        0.555413   -4.841363    2.441611
    100          1           0       -0.822834   -6.014295    2.665974
    101          1           0       -0.713666   -4.314606    3.356402
    102          1           0        4.536058   -2.001166   -1.935859
    103          1           0        5.007859   -3.175813   -0.693291
    104          1           0        4.816759   -0.502155    0.374671
    105          1           0        8.500597   -2.341850   -0.100623
    106          1           0        7.992982   -1.475253   -1.636665
    107          1           0        7.294409   -3.009760   -1.171109
    108          1           0        8.452952   -0.203106    1.025206
    109          1           0        6.865429    0.026871    1.646814
    110          1           0        6.463566    1.970568    0.681808
    111          1           0        7.112057    1.379408   -0.864774
    112          1           0        9.502584    1.528367    0.602265
    113          1           0        8.623824    2.967582    1.142071
    114          1           0       10.258248    3.251762   -0.567564
    115          1           0        7.877572    3.348239   -2.330609
    116          1           0        9.015981    4.649394   -2.016005
    117          1           0        7.706404    4.316441   -0.884000
    118          1           0        9.059694    1.682447   -2.824328
    119          1           0        9.673823    0.675460   -1.573170
    120          1           0       11.509312    2.969046   -2.265692
    121          1           0       10.962508    2.200286   -3.708902
    122          1           0       12.593555    0.810172   -3.514830
    123          1           0       11.679216    0.014188   -2.294199
    124          1           0       12.648112    2.002193   -0.647753
    125          1           0       14.127986    2.411663   -3.224364
    126          1           0       15.196521    1.886236   -2.083478
    127          1           0       14.184330    3.217442   -1.682110
    128          1           0       14.847574    0.136721   -1.076760
    129          1           0       13.287321   -0.721039   -0.884171
    130          1           0       14.127263    1.425979    1.029648
    131          1           0       14.647328   -0.131869    1.168836
    132          1           0       11.624004   -0.109248    0.599823
    133          1           0       11.889618    0.940029    1.992717
    134          1           0       12.859685   -1.982032    1.851427
    135          1           0       10.089726   -0.883005    2.216058
    136          1           0       10.671369   -1.780951    3.575584
    137          1           0       10.705558   -2.447851    1.937432
    138          1           0       12.359051   -0.253016    4.358892
    139          1           0       13.788019    0.100335    3.547868
    140          1           0       13.612162   -1.499098    4.075848
 ---------------------------------------------------------------------

 SCF Done:  E(RCAM-B3LYP) =  -3007.13963125     A.U. after   19 cycles

 Excitation energies and oscillator strengths:

 Excited State   1:      Singlet-A      1.6727 eV  741.23 nm  f=0.3930  <S**2>=0.000
     245 -> 248        0.15961
     246 -> 247        0.68863
 This state for optimization and/or second-order correction.
 Total Energy, E(TD-HF/TD-DFT) =  -3007.07816121
 Copying the excited state density for this state as the 1-particle RhoCI density.

 Excited State   2:      Singlet-A      2.1085 eV  588.02 nm  f=0.1852  <S**2>=0.000
     245 -> 247        0.66451
     246 -> 248       -0.21250

 Excited State   3:      Singlet-A      3.0259 eV  409.75 nm  f=0.0074  <S**2>=0.000
     244 -> 247        0.68517

 Excited State   4:      Singlet-A      3.3092 eV  374.66 nm  f=0.0074  <S**2>=0.000
     240 -> 247        0.13927
     241 -> 247       -0.44284
     242 -> 247        0.48391
     246 -> 248        0.12138

 Excited State   5:      Singlet-A      3.4059 eV  364.02 nm  f=0.0011  <S**2>=0.000
     241 -> 247        0.45851
     241 -> 249       -0.11408
     241 -> 250       -0.13080
     242 -> 247        0.37291
     242 -> 249       -0.19620
     242 -> 250       -0.21719

 The electronic state is 1-A.
 Alpha  occ. eigenvalues --  -46.88763 -19.24735 -19.24523 -19.19743 -19.19715
 Alpha  occ. eigenvalues --  -19.19536 -19.18023 -14.42589 -14.42334 -14.40536
 Alpha  occ. eigenvalues --  -14.38324 -10.39818 -10.39694 -10.36372 -10.34406
 Alpha  occ. eigenvalues --  -10.31961 -10.31930 -10.31647 -10.31533 -10.31502
 Alpha  occ. eigenvalues --  -10.31455 -10.31397 -10.31324 -10.29614 -10.29043
 Alpha  occ. eigenvalues --  -10.28911 -10.28474 -10.28335 -10.28321 -10.28236
 Alpha  occ. eigenvalues --  -10.28056 -10.27883 -10.27864 -10.27791 -10.27742
 Alpha  occ. eigenvalues --  -10.27657 -10.27607 -10.27161 -10.27132 -10.27030
 Alpha  occ. eigenvalues --  -10.26989 -10.26903 -10.26838 -10.26824 -10.26446
 Alpha  occ. eigenvalues --  -10.26221 -10.26057 -10.25948 -10.25899 -10.25682
 Alpha  occ. eigenvalues --  -10.25617 -10.25512 -10.25479 -10.25176 -10.25112
 Alpha  occ. eigenvalues --  -10.25020 -10.24959 -10.24956 -10.24581 -10.24432
 Alpha  occ. eigenvalues --  -10.24377 -10.24325 -10.24107 -10.23944 -10.23857
 Alpha  occ. eigenvalues --  -10.23714  -3.17209  -1.92111  -1.91657  -1.91522
 Alpha  occ. eigenvalues --   -1.14984  -1.14787  -1.09599  -1.07503  -1.06795
 Alpha  occ. eigenvalues --   -1.06003  -1.03881  -1.03057  -1.02357  -1.01775
 Alpha  occ. eigenvalues --   -0.93284  -0.90869  -0.90331  -0.89273  -0.88701
 Alpha  occ. eigenvalues --   -0.88554  -0.88104  -0.87798  -0.87402  -0.87152
 Alpha  occ. eigenvalues --   -0.85143  -0.84980  -0.84313  -0.83768  -0.83220
 Alpha  occ. eigenvalues --   -0.82561  -0.81906  -0.81262  -0.80868  -0.80325
 Alpha  occ. eigenvalues --   -0.79951  -0.78563  -0.77670  -0.77521  -0.76449
 Alpha  occ. eigenvalues --   -0.75737  -0.75640  -0.75333  -0.74279  -0.74098
 Alpha  occ. eigenvalues --   -0.73319  -0.72744  -0.71495  -0.70509  -0.69628
 Alpha  occ. eigenvalues --   -0.68971  -0.68489  -0.67959  -0.67620  -0.65364
 Alpha  occ. eigenvalues --   -0.65020  -0.64906  -0.64563  -0.64428  -0.64095
 Alpha  occ. eigenvalues --   -0.63152  -0.62899  -0.61880  -0.61595  -0.60162
 Alpha  occ. eigenvalues --   -0.60118  -0.59566  -0.59066  -0.58466  -0.58218
 Alpha  occ. eigenvalues --   -0.57467  -0.56767  -0.55979  -0.55842  -0.55402
 Alpha  occ. eigenvalues --   -0.55053  -0.54995  -0.54777  -0.54248  -0.54150
 Alpha  occ. eigenvalues --   -0.53926  -0.53331  -0.53214  -0.52780  -0.52519
 Alpha  occ. eigenvalues --   -0.52440  -0.52283  -0.52094  -0.51947  -0.51591
 Alpha  occ. eigenvalues --   -0.51368  -0.51136  -0.51026  -0.50920  -0.50671
 Alpha  occ. eigenvalues --   -0.50339  -0.50077  -0.49842  -0.49748  -0.49646
 Alpha  occ. eigenvalues --   -0.49365  -0.49275  -0.49098  -0.48940  -0.48817
 Alpha  occ. eigenvalues --   -0.48693  -0.48354  -0.48096  -0.48053  -0.47932
 Alpha  occ. eigenvalues --   -0.47708  -0.47481  -0.46906  -0.46766  -0.46538
 Alpha  occ. eigenvalues --   -0.46446  -0.46340  -0.46170  -0.45833  -0.45719
 Alpha  occ. eigenvalues --   -0.45477  -0.45344  -0.45033  -0.44727  -0.44628
 Alpha  occ. eigenvalues --   -0.44612  -0.44239  -0.44041  -0.43746  -0.43619
 Alpha  occ. eigenvalues --   -0.43468  -0.43253  -0.43123  -0.42867  -0.42773
 Alpha  occ. eigenvalues --   -0.42626  -0.42398  -0.42346  -0.42158  -0.42061
 Alpha  occ. eigenvalues --   -0.41826  -0.41637  -0.41561  -0.41471  -0.41357
 Alpha  occ. eigenvalues --   -0.41077  -0.41031  -0.40886  -0.40755  -0.40099
 Alpha  occ. eigenvalues --   -0.39956  -0.39861  -0.39580  -0.39088  -0.38887
 Alpha  occ. eigenvalues --   -0.38780  -0.38237  -0.38070  -0.37920  -0.37651
 Alpha  occ. eigenvalues --   -0.37104  -0.37054  -0.36567  -0.36293  -0.36201
 Alpha  occ. eigenvalues --   -0.35963  -0.35366  -0.35104  -0.34979  -0.34236
 Alpha  occ. eigenvalues --   -0.33786  -0.33241  -0.33027  -0.32003  -0.31423
 Alpha  occ. eigenvalues --   -0.30568  -0.30261  -0.29168  -0.28882  -0.24098
 Alpha  occ. eigenvalues --   -0.21889
 Alpha virt. eigenvalues --   -0.09667  -0.01892   0.00162   0.01939   0.03053
 Alpha virt. eigenvalues --    0.04449   0.04985   0.05474   0.06063   0.06760
 Alpha virt. eigenvalues --    0.07636   0.07752   0.08345   0.08581   0.08755

 Mulliken charges:
               1
     1  Mg   0.822001
     2  C   -0.065132
     3  C   -0.088626
     4  C   -0.010299
     5  C   -0.054659
     6  N   -0.305747
     7  C   -0.009324
     8  C   -0.017254
     9  C   -0.096285
    10  C    0.085330
    11  C    0.050040
    12  C    0.081622
    13  C   -0.011133
    14  C    0.198026
    15  O   -0.227399
    16  O   -0.367703
    17  N   -0.347149
    18  C    0.139238
    19  C   -0.137732
    20  C   -0.016945
    21  C    0.128528
    22  C    0.100036
    23  C    0.010636
    24  O   -0.221835
    25  C    0.027819
    26  N   -0.313618
    27  C   -0.023307
    28  C   -0.061049
    29  C   -0.000469
    30  C    0.019910
    31  C    0.064470
    32  C    0.013024
    33  C    0.017093
    34  N   -0.400418
    35  C    0.149167
    36  C   -0.190536
    37  C    0.068057
    38  C    0.128010
    39  C    0.131609
    40  C   -0.016569
    41  O   -0.209619
    42  C    0.055329
    43  C    0.238589
    44  O   -0.228150
    45  O   -0.364678
    46  C    0.190260
    47  C    0.311574
    48  C   -0.162487
    49  C   -0.155439
    50  C    0.071412
    51  C    0.079084
    52  C    0.053609
    53  C    0.021239
    54  C   -0.143829
    55  C    0.036096
    56  C    0.038668
    57  C    0.012819
    58  C    0.060695
    59  C   -0.147973
    60  C    0.065069
    61  C    0.054616
    62  C    0.022416
    63  C    0.024391
    64  C   -0.133363
    65  C    0.035850
    66  C    0.031635
    67  H   -0.022608
    68  H   -0.009208
    69  H   -0.027934
    70  H    0.013694
    71  H    0.020408
    72  H    0.011216
    73  H    0.029414
    74  H    0.018234
    75  H    0.004585
    76  H    0.013896
    77  H    0.057047
    78  H    0.022066
    79  H    0.033980
    80  H    0.025004
    81  H    0.025514
    82  H    0.031912
    83  H    0.037192
    84  H    0.043406
    85  H    0.021830
    86  H    0.000766
    87  H    0.023873
    88  H    0.025044
    89  H    0.030770
    90  H    0.013623
    91  H    0.004975
    92  H    0.041947
    93  H    0.016733
    94  H    0.020587
    95  H    0.043585
    96  H    0.027172
    97  H    0.010164
    98  H    0.040682
    99  H    0.029972
   100  H    0.061059
   101  H    0.029957
   102  H    0.052101
   103  H    0.023683
   104  H   -0.011007
   105  H    0.025725
   106  H    0.029578
   107  H    0.007984
   108  H   -0.003913
   109  H    0.006425
   110  H    0.010014
   111  H    0.005034
   112  H   -0.002161
   113  H   -0.000650
   114  H    0.001474
   115  H    0.001136
   116  H    0.007734
   117  H   -0.000652
   118  H    0.002328
   119  H   -0.008221
   120  H   -0.002759
   121  H   -0.016739
   122  H   -0.008571
   123  H   -0.019816
   124  H    0.010915
   125  H    0.007650
   126  H   -0.004305
   127  H   -0.003318
   128  H   -0.012483
   129  H   -0.010866
   130  H   -0.016900
   131  H   -0.002451
   132  H    0.013807
   133  H    0.014617
   134  H    0.004369
   135  H   -0.000569
   136  H    0.005197
   137  H    0.006096
   138  H    0.005621
   139  H   -0.002532
   140  H    0.006623
 Sum of Mulliken charges =  -0.00000

 Dipole moment (field-independent basis, Debye):
    X=              2.3775    Y=              5.8952    Z=              1.9846  Tot=              6.6592
 Quadrupole moment (field-independent basis, Debye-Ang):
   XX=           -354.8753   YY=           -420.6304   ZZ=           -410.7843
   XY=            -10.9650   XZ=             10.6578   YZ=             -2.1193

 Normal termination of Gaussian 16 at Fri Apr 29 13:43:50 2022.
