 Gaussian 16, Revision A.03,
 Gaussian 16:  ES64L-G16RevA.03 25-Dec-2016

 ---------------------------------
 #p PBE1PBE/Def2SVP td=(nstates=5)
 ---------------------------------

 -----------------------------------------------------
 step_351_chromophore_13 TDDFT with PBE1PBE functional
 -----------------------------------------------------
 Symbolic Z-matrix:
 Charge =  0 Multiplicity = 1

                         Standard orientation:
 ---------------------------------------------------------------------
 Center     Atomic      Atomic             Coordinates (Angstroms)
 Number     Number       Type             X           Y           Z
 ---------------------------------------------------------------------
      1         12           0       -5.923439    0.273008   -0.033878
      2          6           0       -3.507775   -2.219051   -0.158354
      3          6           0       -3.358716    2.536237    0.947323
      4          6           0       -8.242058    2.760309    0.373887
      5          6           0       -8.411859   -2.002268   -0.674356
      6          7           0       -3.775611    0.116502    0.465404
      7          6           0       -2.996203   -0.992377    0.209144
      8          6           0       -1.472832   -0.718583    0.468248
      9          6           0       -1.497106    0.814768    0.843035
     10          6           0       -2.975312    1.212240    0.781652
     11          6           0       -0.791077    1.062300    2.275753
     12          6           0       -0.419606   -1.056198   -0.620999
     13          6           0        0.805561   -1.854956   -0.108916
     14          6           0        2.084229   -2.021507   -0.970037
     15          8           0        2.109250   -2.033207   -2.194430
     16          8           0        3.231089   -2.150085   -0.191963
     17          7           0       -5.812074    2.380864    0.457011
     18          6           0       -4.721000    3.103706    0.865353
     19          6           0       -5.018382    4.523663    0.879558
     20          6           0       -6.396482    4.652428    0.581898
     21          6           0       -6.907098    3.237625    0.422615
     22          6           0       -3.982321    5.622279    0.968296
     23          6           0       -7.303723    5.855528    0.408727
     24          8           0       -8.507438    5.701018    0.127823
     25          6           0       -6.761140    7.290067    0.676865
     26          7           0       -8.065378    0.346866    0.132805
     27          6           0       -8.844660    1.514392    0.213194
     28          6           0      -10.352130    1.197425    0.004411
     29          6           0      -10.316783   -0.275198   -0.576277
     30          6           0       -8.854389   -0.690815   -0.320621
     31          6           0      -11.122641    1.499024    1.338597
     32          6           0      -11.022224   -0.322059   -1.996669
     33          6           0      -10.273016    0.306150   -3.220891
     34          7           0       -5.984575   -1.712813   -0.469861
     35          6           0       -7.065591   -2.530883   -0.721335
     36          6           0       -6.581792   -3.819119   -0.930515
     37          6           0       -5.173129   -3.762652   -0.730983
     38          6           0       -4.890517   -2.521655   -0.370359
     39          6           0       -7.450773   -5.090058   -1.118644
     40          6           0       -3.967457   -4.521099   -0.640684
     41          8           0       -3.805185   -5.688005   -1.073233
     42          6           0       -2.840725   -3.592690   -0.111558
     43          6           0       -2.459956   -4.087230    1.223990
     44          8           0       -3.149944   -4.342741    2.224109
     45          8           0       -1.097913   -4.384803    1.268304
     46          6           0       -0.523602   -4.977497    2.513053
     47          6           0        4.571497   -2.191695   -0.863415
     48          6           0        5.434726   -1.233005   -0.147325
     49          6           0        6.769381   -1.088682   -0.119692
     50          6           0        7.690095   -2.073696   -0.778053
     51          6           0        7.426441   -0.008560    0.713344
     52          6           0        7.285759    1.433017    0.209890
     53          6           0        8.640882    2.165930    0.403296
     54          6           0        9.339220    2.737141   -0.848447
     55          6           0        8.438799    3.853725   -1.544730
     56          6           0        9.714070    1.696882   -1.952789
     57          6           0       11.108447    2.028437   -2.642670
     58          6           0       12.135033    0.973122   -2.539793
     59          6           0       13.145268    1.447557   -1.443256
     60          6           0       14.165590    2.232441   -2.149582
     61          6           0       13.821660    0.214061   -0.716592
     62          6           0       13.773619    0.416819    0.818040
     63          6           0       12.333932    0.151469    1.384610
     64          6           0       12.369999   -1.104824    2.275252
     65          6           0       10.888236   -1.553286    2.532081
     66          6           0       13.039560   -0.688546    3.626756
     67          1           0       -2.532323    3.174084    1.265984
     68          1           0       -9.051466    3.484528    0.487423
     69          1           0       -9.246672   -2.636751   -0.980535
     70          1           0       -1.125123   -1.305265    1.317872
     71          1           0       -0.943846    1.448115    0.149496
     72          1           0       -1.366752    1.796518    2.838505
     73          1           0        0.217011    1.416656    2.062485
     74          1           0       -0.885036    0.189770    2.921665
     75          1           0       -0.084623   -0.107612   -1.040722
     76          1           0       -0.989165   -1.603298   -1.372441
     77          1           0        0.376441   -2.836871    0.093503
     78          1           0        1.044063   -1.406256    0.854819
     79          1           0       -4.201492    6.136789    1.903867
     80          1           0       -4.081520    6.395973    0.208164
     81          1           0       -2.940823    5.310262    0.884581
     82          1           0       -6.055611    7.462987    1.489959
     83          1           0       -7.685147    7.836543    0.866443
     84          1           0       -6.308193    7.603668   -0.263575
     85          1           0      -10.761624    1.859549   -0.757645
     86          1           0      -10.885759   -0.857587    0.147565
     87          1           0      -11.550937    2.463655    1.065802
     88          1           0      -10.403783    1.745251    2.120173
     89          1           0      -11.835392    0.767981    1.720483
     90          1           0      -11.997420    0.139200   -1.837717
     91          1           0      -11.184481   -1.380932   -2.194775
     92          1           0       -9.345999    0.707356   -2.809596
     93          1           0      -10.898539    1.030520   -3.740932
     94          1           0      -10.231531   -0.511806   -3.940238
     95          1           0       -7.374043   -5.642351   -0.183062
     96          1           0       -6.967620   -5.690723   -1.889875
     97          1           0       -8.445299   -4.847252   -1.493322
     98          1           0       -2.020933   -3.622815   -0.828892
     99          1           0        0.555413   -4.841363    2.441611
    100          1           0       -0.822834   -6.014295    2.665974
    101          1           0       -0.713666   -4.314606    3.356402
    102          1           0        4.536058   -2.001166   -1.935859
    103          1           0        5.007859   -3.175813   -0.693291
    104          1           0        4.816759   -0.502155    0.374671
    105          1           0        8.500597   -2.341850   -0.100623
    106          1           0        7.992982   -1.475253   -1.636665
    107          1           0        7.294409   -3.009760   -1.171109
    108          1           0        8.452952   -0.203106    1.025206
    109          1           0        6.865429    0.026871    1.646814
    110          1           0        6.463566    1.970568    0.681808
    111          1           0        7.112057    1.379408   -0.864774
    112          1           0        9.502584    1.528367    0.602265
    113          1           0        8.623824    2.967582    1.142071
    114          1           0       10.258248    3.251762   -0.567564
    115          1           0        7.877572    3.348239   -2.330609
    116          1           0        9.015981    4.649394   -2.016005
    117          1           0        7.706404    4.316441   -0.884000
    118          1           0        9.059694    1.682447   -2.824328
    119          1           0        9.673823    0.675460   -1.573170
    120          1           0       11.509312    2.969046   -2.265692
    121          1           0       10.962508    2.200286   -3.708902
    122          1           0       12.593555    0.810172   -3.514830
    123          1           0       11.679216    0.014188   -2.294199
    124          1           0       12.648112    2.002193   -0.647753
    125          1           0       14.127986    2.411663   -3.224364
    126          1           0       15.196521    1.886236   -2.083478
    127          1           0       14.184330    3.217442   -1.682110
    128          1           0       14.847574    0.136721   -1.076760
    129          1           0       13.287321   -0.721039   -0.884171
    130          1           0       14.127263    1.425979    1.029648
    131          1           0       14.647328   -0.131869    1.168836
    132          1           0       11.624004   -0.109248    0.599823
    133          1           0       11.889618    0.940029    1.992717
    134          1           0       12.859685   -1.982032    1.851427
    135          1           0       10.089726   -0.883005    2.216058
    136          1           0       10.671369   -1.780951    3.575584
    137          1           0       10.705558   -2.447851    1.937432
    138          1           0       12.359051   -0.253016    4.358892
    139          1           0       13.788019    0.100335    3.547868
    140          1           0       13.612162   -1.499098    4.075848
 ---------------------------------------------------------------------

 SCF Done:  E(RPBE1PBE) =  -3005.32777125     A.U. after   16 cycles

 Excitation energies and oscillator strengths:

 Excited State   1:      Singlet-A      1.8198 eV  681.30 nm  f=0.3759  <S**2>=0.000
     245 -> 248        0.15281
     246 -> 247        0.69542
     246 <- 247       -0.11457
 This state for optimization and/or second-order correction.
 Total Energy, E(TD-HF/TD-DFT) =  -3005.26089426
 Copying the excited state density for this state as the 1-particle RhoCI density.

 Excited State   2:      Singlet-A      2.1244 eV  583.61 nm  f=0.1660  <S**2>=0.000
     245 -> 247        0.67052
     246 -> 248       -0.19079

 Excited State   3:      Singlet-A      2.7041 eV  458.51 nm  f=0.0099  <S**2>=0.000
     243 -> 247        0.69620

 Excited State   4:      Singlet-A      2.8013 eV  442.60 nm  f=0.0001  <S**2>=0.000
     242 -> 247        0.68260
     242 -> 249        0.12334
     242 -> 250       -0.10330

 Excited State   5:      Singlet-A      3.0047 eV  412.63 nm  f=0.0098  <S**2>=0.000
     240 -> 247        0.44231
     241 -> 247        0.52296

 The electronic state is 1-A.
 Alpha  occ. eigenvalues --  -46.92199 -19.25454 -19.25302 -19.20011 -19.19872
 Alpha  occ. eigenvalues --  -19.19756 -19.18543 -14.42018 -14.42009 -14.40061
 Alpha  occ. eigenvalues --  -14.38200 -10.36903 -10.36796 -10.33312 -10.31796
 Alpha  occ. eigenvalues --  -10.29369 -10.29263 -10.29237 -10.29230 -10.29216
 Alpha  occ. eigenvalues --  -10.29085 -10.29042 -10.28881 -10.27048 -10.27008
 Alpha  occ. eigenvalues --  -10.26670 -10.26304 -10.26220 -10.26100 -10.25932
 Alpha  occ. eigenvalues --  -10.25800 -10.25749 -10.25703 -10.25388 -10.25354
 Alpha  occ. eigenvalues --  -10.25183 -10.25147 -10.25110 -10.24805 -10.24660
 Alpha  occ. eigenvalues --  -10.24509 -10.24374 -10.24317 -10.24139 -10.24136
 Alpha  occ. eigenvalues --  -10.23784 -10.23673 -10.23353 -10.23313 -10.23237
 Alpha  occ. eigenvalues --  -10.23189 -10.23097 -10.23093 -10.22881 -10.22710
 Alpha  occ. eigenvalues --  -10.22623 -10.22532 -10.22505 -10.22012 -10.21965
 Alpha  occ. eigenvalues --  -10.21869 -10.21833 -10.21699 -10.21518 -10.21499
 Alpha  occ. eigenvalues --  -10.21244  -3.14228  -1.87071  -1.86595  -1.86463
 Alpha  occ. eigenvalues --   -1.09790  -1.09646  -1.04104  -1.02449  -1.01725
 Alpha  occ. eigenvalues --   -1.00883  -0.98759  -0.97582  -0.96945  -0.96364
 Alpha  occ. eigenvalues --   -0.87843  -0.85000  -0.84443  -0.83533  -0.82809
 Alpha  occ. eigenvalues --   -0.82737  -0.82347  -0.81925  -0.81675  -0.81377
 Alpha  occ. eigenvalues --   -0.79669  -0.79221  -0.78566  -0.78077  -0.77445
 Alpha  occ. eigenvalues --   -0.76784  -0.76030  -0.75425  -0.75166  -0.74639
 Alpha  occ. eigenvalues --   -0.74125  -0.72721  -0.71991  -0.71855  -0.70805
 Alpha  occ. eigenvalues --   -0.69917  -0.69717  -0.69674  -0.68421  -0.68249
 Alpha  occ. eigenvalues --   -0.67794  -0.67133  -0.65891  -0.64836  -0.63993
 Alpha  occ. eigenvalues --   -0.63275  -0.62892  -0.62229  -0.61975  -0.59858
 Alpha  occ. eigenvalues --   -0.59560  -0.59102  -0.59086  -0.58643  -0.58544
 Alpha  occ. eigenvalues --   -0.57499  -0.57326  -0.56544  -0.55856  -0.54608
 Alpha  occ. eigenvalues --   -0.54509  -0.54091  -0.53727  -0.53014  -0.52884
 Alpha  occ. eigenvalues --   -0.52111  -0.51281  -0.50553  -0.50236  -0.49930
 Alpha  occ. eigenvalues --   -0.49573  -0.49333  -0.49252  -0.48825  -0.48644
 Alpha  occ. eigenvalues --   -0.48518  -0.47893  -0.47668  -0.47460  -0.47143
 Alpha  occ. eigenvalues --   -0.46863  -0.46713  -0.46586  -0.46521  -0.46171
 Alpha  occ. eigenvalues --   -0.46010  -0.45727  -0.45647  -0.45524  -0.45210
 Alpha  occ. eigenvalues --   -0.44705  -0.44670  -0.44423  -0.44297  -0.44207
 Alpha  occ. eigenvalues --   -0.43967  -0.43895  -0.43675  -0.43476  -0.43401
 Alpha  occ. eigenvalues --   -0.43351  -0.43020  -0.42848  -0.42745  -0.42604
 Alpha  occ. eigenvalues --   -0.42299  -0.42067  -0.41541  -0.41423  -0.41336
 Alpha  occ. eigenvalues --   -0.41109  -0.40984  -0.40887  -0.40460  -0.40399
 Alpha  occ. eigenvalues --   -0.40209  -0.40090  -0.39811  -0.39585  -0.39388
 Alpha  occ. eigenvalues --   -0.39298  -0.38952  -0.38846  -0.38473  -0.38350
 Alpha  occ. eigenvalues --   -0.38217  -0.37999  -0.37961  -0.37749  -0.37560
 Alpha  occ. eigenvalues --   -0.37324  -0.37251  -0.37127  -0.36986  -0.36872
 Alpha  occ. eigenvalues --   -0.36583  -0.36545  -0.36455  -0.36395  -0.36148
 Alpha  occ. eigenvalues --   -0.36002  -0.35728  -0.35649  -0.35611  -0.34849
 Alpha  occ. eigenvalues --   -0.34848  -0.34792  -0.34323  -0.33904  -0.33775
 Alpha  occ. eigenvalues --   -0.33677  -0.33235  -0.33083  -0.32767  -0.32518
 Alpha  occ. eigenvalues --   -0.32169  -0.31899  -0.31616  -0.31299  -0.31276
 Alpha  occ. eigenvalues --   -0.30845  -0.30298  -0.30224  -0.29993  -0.29091
 Alpha  occ. eigenvalues --   -0.28703  -0.28613  -0.28194  -0.27231  -0.26355
 Alpha  occ. eigenvalues --   -0.25970  -0.25371  -0.24745  -0.24477  -0.21070
 Alpha  occ. eigenvalues --   -0.19435
 Alpha virt. eigenvalues --   -0.12022  -0.05552  -0.03987  -0.02520  -0.00298
 Alpha virt. eigenvalues --    0.00299   0.00566   0.00820   0.01627   0.02695
 Alpha virt. eigenvalues --    0.03881   0.04146   0.04418   0.05148   0.05408

 Mulliken charges:
               1
     1  Mg   0.972013
     2  C   -0.070015
     3  C   -0.077011
     4  C   -0.015958
     5  C   -0.051264
     6  N   -0.409828
     7  C    0.051388
     8  C   -0.078599
     9  C   -0.171359
    10  C    0.116215
    11  C   -0.007177
    12  C    0.033136
    13  C   -0.098974
    14  C    0.268969
    15  O   -0.261101
    16  O   -0.398422
    17  N   -0.453517
    18  C    0.166264
    19  C   -0.171885
    20  C   -0.060178
    21  C    0.156886
    22  C    0.042325
    23  C    0.057419
    24  O   -0.258547
    25  C   -0.042960
    26  N   -0.411643
    27  C    0.004444
    28  C   -0.128125
    29  C   -0.074128
    30  C    0.061918
    31  C    0.006927
    32  C   -0.051464
    33  C   -0.058386
    34  N   -0.524237
    35  C    0.175527
    36  C   -0.214877
    37  C    0.022393
    38  C    0.184254
    39  C    0.077945
    40  C    0.079035
    41  O   -0.250974
    42  C   -0.062816
    43  C    0.333048
    44  O   -0.263826
    45  O   -0.397929
    46  C    0.136121
    47  C    0.269650
    48  C   -0.164776
    49  C   -0.210217
    50  C    0.007342
    51  C    0.003581
    52  C   -0.006795
    53  C   -0.043018
    54  C   -0.231657
    55  C   -0.019573
    56  C   -0.015789
    57  C   -0.045997
    58  C    0.006912
    59  C   -0.244255
    60  C    0.016216
    61  C    0.002693
    62  C   -0.040073
    63  C   -0.042337
    64  C   -0.223926
    65  C   -0.032471
    66  C   -0.025740
    67  H    0.008704
    68  H    0.023175
    69  H    0.004153
    70  H    0.053420
    71  H    0.055802
    72  H    0.039090
    73  H    0.056078
    74  H    0.044669
    75  H    0.038169
    76  H    0.047494
    77  H    0.095254
    78  H    0.054878
    79  H    0.061349
    80  H    0.052070
    81  H    0.050345
    82  H    0.056727
    83  H    0.063274
    84  H    0.069684
    85  H    0.058700
    86  H    0.040245
    87  H    0.051120
    88  H    0.053708
    89  H    0.056462
    90  H    0.046763
    91  H    0.037213
    92  H    0.072801
    93  H    0.044590
    94  H    0.047703
    95  H    0.072211
    96  H    0.056023
    97  H    0.037963
    98  H    0.078034
    99  H    0.051139
   100  H    0.082220
   101  H    0.051592
   102  H    0.077480
   103  H    0.050765
   104  H    0.019593
   105  H    0.053463
   106  H    0.058994
   107  H    0.034431
   108  H    0.038985
   109  H    0.040777
   110  H    0.040924
   111  H    0.039962
   112  H    0.037963
   113  H    0.032426
   114  H    0.039150
   115  H    0.027520
   116  H    0.035618
   117  H    0.027143
   118  H    0.033898
   119  H    0.026636
   120  H    0.029341
   121  H    0.016595
   122  H    0.023933
   123  H    0.011727
   124  H    0.050468
   125  H    0.033638
   126  H    0.021986
   127  H    0.024108
   128  H    0.019771
   129  H    0.022347
   130  H    0.017246
   131  H    0.029044
   132  H    0.049321
   133  H    0.046099
   134  H    0.039949
   135  H    0.034777
   136  H    0.033084
   137  H    0.034373
   138  H    0.032610
   139  H    0.025488
   140  H    0.034746
 Sum of Mulliken charges =  -0.00000

 Dipole moment (field-independent basis, Debye):
    X=              2.4327    Y=              5.3455    Z=              1.8712  Tot=              6.1639
 Quadrupole moment (field-independent basis, Debye-Ang):
   XX=           -349.5364   YY=           -418.6356   ZZ=           -408.2601
   XY=             -6.8739   XZ=             11.6722   YZ=             -1.8947

 Normal termination of Gaussian 16 at Fri Apr 29 14:02:20 2022.
