 Gaussian 16, Revision A.03,
 Gaussian 16:  ES64L-G16RevA.03 25-Dec-2016

 --------------------------------
 #p wB97XD/Def2SVP td=(nstates=5)
 --------------------------------

 ----------------------------------------------------
 step_351_chromophore_13 TDDFT with wB97XD functional
 ----------------------------------------------------
 Symbolic Z-matrix:
 Charge =  0 Multiplicity = 1

                         Standard orientation:
 ---------------------------------------------------------------------
 Center     Atomic      Atomic             Coordinates (Angstroms)
 Number     Number       Type             X           Y           Z
 ---------------------------------------------------------------------
      1         12           0       -5.923439    0.273008   -0.033878
      2          6           0       -3.507775   -2.219051   -0.158354
      3          6           0       -3.358716    2.536237    0.947323
      4          6           0       -8.242058    2.760309    0.373887
      5          6           0       -8.411859   -2.002268   -0.674356
      6          7           0       -3.775611    0.116502    0.465404
      7          6           0       -2.996203   -0.992377    0.209144
      8          6           0       -1.472832   -0.718583    0.468248
      9          6           0       -1.497106    0.814768    0.843035
     10          6           0       -2.975312    1.212240    0.781652
     11          6           0       -0.791077    1.062300    2.275753
     12          6           0       -0.419606   -1.056198   -0.620999
     13          6           0        0.805561   -1.854956   -0.108916
     14          6           0        2.084229   -2.021507   -0.970037
     15          8           0        2.109250   -2.033207   -2.194430
     16          8           0        3.231089   -2.150085   -0.191963
     17          7           0       -5.812074    2.380864    0.457011
     18          6           0       -4.721000    3.103706    0.865353
     19          6           0       -5.018382    4.523663    0.879558
     20          6           0       -6.396482    4.652428    0.581898
     21          6           0       -6.907098    3.237625    0.422615
     22          6           0       -3.982321    5.622279    0.968296
     23          6           0       -7.303723    5.855528    0.408727
     24          8           0       -8.507438    5.701018    0.127823
     25          6           0       -6.761140    7.290067    0.676865
     26          7           0       -8.065378    0.346866    0.132805
     27          6           0       -8.844660    1.514392    0.213194
     28          6           0      -10.352130    1.197425    0.004411
     29          6           0      -10.316783   -0.275198   -0.576277
     30          6           0       -8.854389   -0.690815   -0.320621
     31          6           0      -11.122641    1.499024    1.338597
     32          6           0      -11.022224   -0.322059   -1.996669
     33          6           0      -10.273016    0.306150   -3.220891
     34          7           0       -5.984575   -1.712813   -0.469861
     35          6           0       -7.065591   -2.530883   -0.721335
     36          6           0       -6.581792   -3.819119   -0.930515
     37          6           0       -5.173129   -3.762652   -0.730983
     38          6           0       -4.890517   -2.521655   -0.370359
     39          6           0       -7.450773   -5.090058   -1.118644
     40          6           0       -3.967457   -4.521099   -0.640684
     41          8           0       -3.805185   -5.688005   -1.073233
     42          6           0       -2.840725   -3.592690   -0.111558
     43          6           0       -2.459956   -4.087230    1.223990
     44          8           0       -3.149944   -4.342741    2.224109
     45          8           0       -1.097913   -4.384803    1.268304
     46          6           0       -0.523602   -4.977497    2.513053
     47          6           0        4.571497   -2.191695   -0.863415
     48          6           0        5.434726   -1.233005   -0.147325
     49          6           0        6.769381   -1.088682   -0.119692
     50          6           0        7.690095   -2.073696   -0.778053
     51          6           0        7.426441   -0.008560    0.713344
     52          6           0        7.285759    1.433017    0.209890
     53          6           0        8.640882    2.165930    0.403296
     54          6           0        9.339220    2.737141   -0.848447
     55          6           0        8.438799    3.853725   -1.544730
     56          6           0        9.714070    1.696882   -1.952789
     57          6           0       11.108447    2.028437   -2.642670
     58          6           0       12.135033    0.973122   -2.539793
     59          6           0       13.145268    1.447557   -1.443256
     60          6           0       14.165590    2.232441   -2.149582
     61          6           0       13.821660    0.214061   -0.716592
     62          6           0       13.773619    0.416819    0.818040
     63          6           0       12.333932    0.151469    1.384610
     64          6           0       12.369999   -1.104824    2.275252
     65          6           0       10.888236   -1.553286    2.532081
     66          6           0       13.039560   -0.688546    3.626756
     67          1           0       -2.532323    3.174084    1.265984
     68          1           0       -9.051466    3.484528    0.487423
     69          1           0       -9.246672   -2.636751   -0.980535
     70          1           0       -1.125123   -1.305265    1.317872
     71          1           0       -0.943846    1.448115    0.149496
     72          1           0       -1.366752    1.796518    2.838505
     73          1           0        0.217011    1.416656    2.062485
     74          1           0       -0.885036    0.189770    2.921665
     75          1           0       -0.084623   -0.107612   -1.040722
     76          1           0       -0.989165   -1.603298   -1.372441
     77          1           0        0.376441   -2.836871    0.093503
     78          1           0        1.044063   -1.406256    0.854819
     79          1           0       -4.201492    6.136789    1.903867
     80          1           0       -4.081520    6.395973    0.208164
     81          1           0       -2.940823    5.310262    0.884581
     82          1           0       -6.055611    7.462987    1.489959
     83          1           0       -7.685147    7.836543    0.866443
     84          1           0       -6.308193    7.603668   -0.263575
     85          1           0      -10.761624    1.859549   -0.757645
     86          1           0      -10.885759   -0.857587    0.147565
     87          1           0      -11.550937    2.463655    1.065802
     88          1           0      -10.403783    1.745251    2.120173
     89          1           0      -11.835392    0.767981    1.720483
     90          1           0      -11.997420    0.139200   -1.837717
     91          1           0      -11.184481   -1.380932   -2.194775
     92          1           0       -9.345999    0.707356   -2.809596
     93          1           0      -10.898539    1.030520   -3.740932
     94          1           0      -10.231531   -0.511806   -3.940238
     95          1           0       -7.374043   -5.642351   -0.183062
     96          1           0       -6.967620   -5.690723   -1.889875
     97          1           0       -8.445299   -4.847252   -1.493322
     98          1           0       -2.020933   -3.622815   -0.828892
     99          1           0        0.555413   -4.841363    2.441611
    100          1           0       -0.822834   -6.014295    2.665974
    101          1           0       -0.713666   -4.314606    3.356402
    102          1           0        4.536058   -2.001166   -1.935859
    103          1           0        5.007859   -3.175813   -0.693291
    104          1           0        4.816759   -0.502155    0.374671
    105          1           0        8.500597   -2.341850   -0.100623
    106          1           0        7.992982   -1.475253   -1.636665
    107          1           0        7.294409   -3.009760   -1.171109
    108          1           0        8.452952   -0.203106    1.025206
    109          1           0        6.865429    0.026871    1.646814
    110          1           0        6.463566    1.970568    0.681808
    111          1           0        7.112057    1.379408   -0.864774
    112          1           0        9.502584    1.528367    0.602265
    113          1           0        8.623824    2.967582    1.142071
    114          1           0       10.258248    3.251762   -0.567564
    115          1           0        7.877572    3.348239   -2.330609
    116          1           0        9.015981    4.649394   -2.016005
    117          1           0        7.706404    4.316441   -0.884000
    118          1           0        9.059694    1.682447   -2.824328
    119          1           0        9.673823    0.675460   -1.573170
    120          1           0       11.509312    2.969046   -2.265692
    121          1           0       10.962508    2.200286   -3.708902
    122          1           0       12.593555    0.810172   -3.514830
    123          1           0       11.679216    0.014188   -2.294199
    124          1           0       12.648112    2.002193   -0.647753
    125          1           0       14.127986    2.411663   -3.224364
    126          1           0       15.196521    1.886236   -2.083478
    127          1           0       14.184330    3.217442   -1.682110
    128          1           0       14.847574    0.136721   -1.076760
    129          1           0       13.287321   -0.721039   -0.884171
    130          1           0       14.127263    1.425979    1.029648
    131          1           0       14.647328   -0.131869    1.168836
    132          1           0       11.624004   -0.109248    0.599823
    133          1           0       11.889618    0.940029    1.992717
    134          1           0       12.859685   -1.982032    1.851427
    135          1           0       10.089726   -0.883005    2.216058
    136          1           0       10.671369   -1.780951    3.575584
    137          1           0       10.705558   -2.447851    1.937432
    138          1           0       12.359051   -0.253016    4.358892
    139          1           0       13.788019    0.100335    3.547868
    140          1           0       13.612162   -1.499098    4.075848
 ---------------------------------------------------------------------

 SCF Done:  E(RwB97XD) =  -3007.84174109     A.U. after   20 cycles

 Excitation energies and oscillator strengths:

 Excited State   1:      Singlet-A      1.6192 eV  765.70 nm  f=0.3922  <S**2>=0.000
     245 -> 248        0.16456
     246 -> 247        0.68651
     245 <- 248        0.10701
 This state for optimization and/or second-order correction.
 Total Energy, E(TD-HF/TD-DFT) =  -3007.78223577
 Copying the excited state density for this state as the 1-particle RhoCI density.

 Excited State   2:      Singlet-A      2.0560 eV  603.03 nm  f=0.1802  <S**2>=0.000
     245 -> 247        0.66153
     246 -> 248       -0.21646

 Excited State   3:      Singlet-A      3.0630 eV  404.78 nm  f=0.0071  <S**2>=0.000
     241 -> 247       -0.12943
     244 -> 247        0.67459

 Excited State   4:      Singlet-A      3.3311 eV  372.20 nm  f=0.0058  <S**2>=0.000
     240 -> 247        0.14464
     241 -> 247        0.57769
     242 -> 247        0.27807
     244 -> 247        0.11180
     246 -> 248        0.15432

 Excited State   5:      Singlet-A      3.4647 eV  357.85 nm  f=0.0015  <S**2>=0.000
     241 -> 247       -0.26116
     242 -> 247        0.49869
     242 -> 249       -0.24508
     242 -> 250       -0.28060

 The electronic state is 1-A.
 Alpha  occ. eigenvalues --  -46.95095 -19.29935 -19.29811 -19.24844 -19.24629
 Alpha  occ. eigenvalues --  -19.24505 -19.23049 -14.47241 -14.46931 -14.45196
 Alpha  occ. eigenvalues --  -14.42904 -10.43636 -10.43543 -10.40422 -10.38391
 Alpha  occ. eigenvalues --  -10.35835 -10.35747 -10.35686 -10.35674 -10.35601
 Alpha  occ. eigenvalues --  -10.35584 -10.35402 -10.35319 -10.33838 -10.32996
 Alpha  occ. eigenvalues --  -10.32922 -10.32546 -10.32423 -10.32403 -10.32392
 Alpha  occ. eigenvalues --  -10.32112 -10.31873 -10.31851 -10.31815 -10.31806
 Alpha  occ. eigenvalues --  -10.31732 -10.31558 -10.31220 -10.31070 -10.31015
 Alpha  occ. eigenvalues --  -10.30964 -10.30949 -10.30849 -10.30723 -10.30411
 Alpha  occ. eigenvalues --  -10.30103 -10.30055 -10.29778 -10.29705 -10.29631
 Alpha  occ. eigenvalues --  -10.29561 -10.29479 -10.29315 -10.29154 -10.29064
 Alpha  occ. eigenvalues --  -10.28973 -10.28891 -10.28886 -10.28418 -10.28308
 Alpha  occ. eigenvalues --  -10.28259 -10.28230 -10.27951 -10.27855 -10.27676
 Alpha  occ. eigenvalues --  -10.27658  -3.20994  -1.94585  -1.94108  -1.93973
 Alpha  occ. eigenvalues --   -1.17109  -1.16990  -1.11874  -1.09677  -1.09029
 Alpha  occ. eigenvalues --   -1.08169  -1.05888  -1.05141  -1.04360  -1.03819
 Alpha  occ. eigenvalues --   -0.95248  -0.92669  -0.92101  -0.91123  -0.90520
 Alpha  occ. eigenvalues --   -0.90469  -0.89988  -0.89584  -0.89387  -0.89102
 Alpha  occ. eigenvalues --   -0.87066  -0.86860  -0.86191  -0.85660  -0.85103
 Alpha  occ. eigenvalues --   -0.84427  -0.83849  -0.83164  -0.82780  -0.82280
 Alpha  occ. eigenvalues --   -0.81779  -0.80565  -0.79579  -0.79425  -0.78361
 Alpha  occ. eigenvalues --   -0.77583  -0.77415  -0.77314  -0.76092  -0.75921
 Alpha  occ. eigenvalues --   -0.75264  -0.74688  -0.73470  -0.72460  -0.71542
 Alpha  occ. eigenvalues --   -0.70881  -0.70430  -0.69849  -0.69652  -0.67312
 Alpha  occ. eigenvalues --   -0.67028  -0.66749  -0.66554  -0.66224  -0.66087
 Alpha  occ. eigenvalues --   -0.64984  -0.64902  -0.63862  -0.63461  -0.62195
 Alpha  occ. eigenvalues --   -0.62046  -0.61545  -0.61040  -0.60383  -0.60219
 Alpha  occ. eigenvalues --   -0.59473  -0.58725  -0.57970  -0.57712  -0.57304
 Alpha  occ. eigenvalues --   -0.57014  -0.56830  -0.56681  -0.56204  -0.56015
 Alpha  occ. eigenvalues --   -0.55863  -0.55244  -0.55106  -0.54748  -0.54477
 Alpha  occ. eigenvalues --   -0.54411  -0.54183  -0.54000  -0.53851  -0.53497
 Alpha  occ. eigenvalues --   -0.53283  -0.53032  -0.52923  -0.52816  -0.52568
 Alpha  occ. eigenvalues --   -0.52340  -0.51967  -0.51763  -0.51737  -0.51556
 Alpha  occ. eigenvalues --   -0.51252  -0.51157  -0.51042  -0.50855  -0.50697
 Alpha  occ. eigenvalues --   -0.50568  -0.50274  -0.50035  -0.49997  -0.49891
 Alpha  occ. eigenvalues --   -0.49681  -0.49371  -0.48825  -0.48637  -0.48453
 Alpha  occ. eigenvalues --   -0.48306  -0.48234  -0.48095  -0.47661  -0.47653
 Alpha  occ. eigenvalues --   -0.47373  -0.47282  -0.46997  -0.46632  -0.46517
 Alpha  occ. eigenvalues --   -0.46477  -0.46192  -0.45961  -0.45629  -0.45557
 Alpha  occ. eigenvalues --   -0.45395  -0.45141  -0.45099  -0.44817  -0.44671
 Alpha  occ. eigenvalues --   -0.44499  -0.44431  -0.44247  -0.44057  -0.43965
 Alpha  occ. eigenvalues --   -0.43696  -0.43574  -0.43504  -0.43452  -0.43214
 Alpha  occ. eigenvalues --   -0.42974  -0.42877  -0.42747  -0.42653  -0.41936
 Alpha  occ. eigenvalues --   -0.41858  -0.41799  -0.41415  -0.40935  -0.40746
 Alpha  occ. eigenvalues --   -0.40688  -0.40172  -0.40005  -0.39770  -0.39524
 Alpha  occ. eigenvalues --   -0.39119  -0.38901  -0.38549  -0.38304  -0.38269
 Alpha  occ. eigenvalues --   -0.37803  -0.37238  -0.36979  -0.36948  -0.36138
 Alpha  occ. eigenvalues --   -0.35720  -0.35289  -0.35081  -0.34073  -0.33556
 Alpha  occ. eigenvalues --   -0.32754  -0.32238  -0.31211  -0.31012  -0.26024
 Alpha  occ. eigenvalues --   -0.23698
 Alpha virt. eigenvalues --   -0.08028   0.00038   0.02180   0.04044   0.06106
 Alpha virt. eigenvalues --    0.06646   0.07296   0.07686   0.08360   0.09354
 Alpha virt. eigenvalues --    0.10390   0.10780   0.10939   0.11862   0.12023

 Mulliken charges:
               1
     1  Mg   0.960868
     2  C   -0.076722
     3  C   -0.099165
     4  C   -0.027128
     5  C   -0.060673
     6  N   -0.378959
     7  C    0.027937
     8  C   -0.053750
     9  C   -0.146622
    10  C    0.109915
    11  C    0.004005
    12  C    0.041613
    13  C   -0.069244
    14  C    0.258727
    15  O   -0.258726
    16  O   -0.397714
    17  N   -0.424857
    18  C    0.160497
    19  C   -0.157118
    20  C   -0.055475
    21  C    0.150497
    22  C    0.052445
    23  C    0.054521
    24  O   -0.251554
    25  C   -0.033271
    26  N   -0.380663
    27  C   -0.001531
    28  C   -0.108137
    29  C   -0.048338
    30  C    0.040474
    31  C    0.016924
    32  C   -0.035196
    33  C   -0.040151
    34  N   -0.490611
    35  C    0.162438
    36  C   -0.210302
    37  C    0.025528
    38  C    0.164902
    39  C    0.090424
    40  C    0.058724
    41  O   -0.244037
    42  C   -0.019612
    43  C    0.305704
    44  O   -0.257742
    45  O   -0.395371
    46  C    0.150410
    47  C    0.282673
    48  C   -0.177207
    49  C   -0.190946
    50  C    0.023029
    51  C    0.041225
    52  C    0.005863
    53  C   -0.012137
    54  C   -0.199270
    55  C   -0.009298
    56  C    0.001659
    57  C   -0.027830
    58  C    0.022748
    59  C   -0.204884
    60  C    0.020100
    61  C    0.019921
    62  C   -0.024826
    63  C   -0.014545
    64  C   -0.195533
    65  C   -0.013804
    66  C   -0.016882
    67  H    0.000504
    68  H    0.018727
    69  H   -0.001683
    70  H    0.034679
    71  H    0.045866
    72  H    0.032074
    73  H    0.051481
    74  H    0.040119
    75  H    0.029809
    76  H    0.038416
    77  H    0.080191
    78  H    0.046415
    79  H    0.056176
    80  H    0.047625
    81  H    0.048795
    82  H    0.053251
    83  H    0.062546
    84  H    0.066219
    85  H    0.047841
    86  H    0.029514
    87  H    0.045139
    88  H    0.046557
    89  H    0.053361
    90  H    0.038022
    91  H    0.029522
    92  H    0.061732
    93  H    0.039302
    94  H    0.042868
    95  H    0.066266
    96  H    0.050555
    97  H    0.031304
    98  H    0.070846
    99  H    0.047377
   100  H    0.079261
   101  H    0.047110
   102  H    0.074410
   103  H    0.044623
   104  H    0.015175
   105  H    0.047684
   106  H    0.051004
   107  H    0.030212
   108  H    0.008585
   109  H    0.033207
   110  H    0.035849
   111  H    0.026003
   112  H    0.013631
   113  H    0.025886
   114  H    0.026634
   115  H    0.019329
   116  H    0.030561
   117  H    0.021437
   118  H    0.025138
   119  H    0.009106
   120  H    0.016066
   121  H    0.010001
   122  H    0.016314
   123  H    0.001540
   124  H    0.030252
   125  H    0.027890
   126  H    0.016239
   127  H    0.018792
   128  H    0.011497
   129  H    0.011300
   130  H    0.007534
   131  H    0.021318
   132  H    0.029418
   133  H    0.037465
   134  H    0.031132
   135  H    0.022409
   136  H    0.027920
   137  H    0.028067
   138  H    0.026707
   139  H    0.018206
   140  H    0.029726
 Sum of Mulliken charges =  -0.00000

 Dipole moment (field-independent basis, Debye):
    X=              2.3687    Y=              6.1609    Z=              2.0173  Tot=              6.9019
 Quadrupole moment (field-independent basis, Debye-Ang):
   XX=           -349.2713   YY=           -416.1312   ZZ=           -407.9795
   XY=            -11.9600   XZ=             10.8355   YZ=             -1.8915

 Normal termination of Gaussian 16 at Fri Apr 29 14:31:22 2022.
