 Gaussian 16, Revision A.03,
 Gaussian 16:  ES64L-G16RevA.03 25-Dec-2016

 --------------------
 #p ZINDO=(nstates=5)
 --------------------

 -----------------------------
 step_351_chromophore_13 ZINDO
 -----------------------------
 Symbolic Z-matrix:
 Charge =  0 Multiplicity = 1

                         Standard orientation:
 ---------------------------------------------------------------------
 Center     Atomic      Atomic             Coordinates (Angstroms)
 Number     Number       Type             X           Y           Z
 ---------------------------------------------------------------------
      1         12           0       -5.923439    0.273008   -0.033878
      2          6           0       -3.507775   -2.219051   -0.158354
      3          6           0       -3.358716    2.536237    0.947323
      4          6           0       -8.242058    2.760309    0.373887
      5          6           0       -8.411859   -2.002268   -0.674356
      6          7           0       -3.775611    0.116502    0.465404
      7          6           0       -2.996203   -0.992377    0.209144
      8          6           0       -1.472832   -0.718583    0.468248
      9          6           0       -1.497106    0.814768    0.843035
     10          6           0       -2.975312    1.212240    0.781652
     11          6           0       -0.791077    1.062300    2.275753
     12          6           0       -0.419606   -1.056198   -0.620999
     13          6           0        0.805561   -1.854956   -0.108916
     14          6           0        2.084229   -2.021507   -0.970037
     15          8           0        2.109250   -2.033207   -2.194430
     16          8           0        3.231089   -2.150085   -0.191963
     17          7           0       -5.812074    2.380864    0.457011
     18          6           0       -4.721000    3.103706    0.865353
     19          6           0       -5.018382    4.523663    0.879558
     20          6           0       -6.396482    4.652428    0.581898
     21          6           0       -6.907098    3.237625    0.422615
     22          6           0       -3.982321    5.622279    0.968296
     23          6           0       -7.303723    5.855528    0.408727
     24          8           0       -8.507438    5.701018    0.127823
     25          6           0       -6.761140    7.290067    0.676865
     26          7           0       -8.065378    0.346866    0.132805
     27          6           0       -8.844660    1.514392    0.213194
     28          6           0      -10.352130    1.197425    0.004411
     29          6           0      -10.316783   -0.275198   -0.576277
     30          6           0       -8.854389   -0.690815   -0.320621
     31          6           0      -11.122641    1.499024    1.338597
     32          6           0      -11.022224   -0.322059   -1.996669
     33          6           0      -10.273016    0.306150   -3.220891
     34          7           0       -5.984575   -1.712813   -0.469861
     35          6           0       -7.065591   -2.530883   -0.721335
     36          6           0       -6.581792   -3.819119   -0.930515
     37          6           0       -5.173129   -3.762652   -0.730983
     38          6           0       -4.890517   -2.521655   -0.370359
     39          6           0       -7.450773   -5.090058   -1.118644
     40          6           0       -3.967457   -4.521099   -0.640684
     41          8           0       -3.805185   -5.688005   -1.073233
     42          6           0       -2.840725   -3.592690   -0.111558
     43          6           0       -2.459956   -4.087230    1.223990
     44          8           0       -3.149944   -4.342741    2.224109
     45          8           0       -1.097913   -4.384803    1.268304
     46          6           0       -0.523602   -4.977497    2.513053
     47          6           0        4.571497   -2.191695   -0.863415
     48          6           0        5.434726   -1.233005   -0.147325
     49          6           0        6.769381   -1.088682   -0.119692
     50          6           0        7.690095   -2.073696   -0.778053
     51          6           0        7.426441   -0.008560    0.713344
     52          6           0        7.285759    1.433017    0.209890
     53          6           0        8.640882    2.165930    0.403296
     54          6           0        9.339220    2.737141   -0.848447
     55          6           0        8.438799    3.853725   -1.544730
     56          6           0        9.714070    1.696882   -1.952789
     57          6           0       11.108447    2.028437   -2.642670
     58          6           0       12.135033    0.973122   -2.539793
     59          6           0       13.145268    1.447557   -1.443256
     60          6           0       14.165590    2.232441   -2.149582
     61          6           0       13.821660    0.214061   -0.716592
     62          6           0       13.773619    0.416819    0.818040
     63          6           0       12.333932    0.151469    1.384610
     64          6           0       12.369999   -1.104824    2.275252
     65          6           0       10.888236   -1.553286    2.532081
     66          6           0       13.039560   -0.688546    3.626756
     67          1           0       -2.532323    3.174084    1.265984
     68          1           0       -9.051466    3.484528    0.487423
     69          1           0       -9.246672   -2.636751   -0.980535
     70          1           0       -1.125123   -1.305265    1.317872
     71          1           0       -0.943846    1.448115    0.149496
     72          1           0       -1.366752    1.796518    2.838505
     73          1           0        0.217011    1.416656    2.062485
     74          1           0       -0.885036    0.189770    2.921665
     75          1           0       -0.084623   -0.107612   -1.040722
     76          1           0       -0.989165   -1.603298   -1.372441
     77          1           0        0.376441   -2.836871    0.093503
     78          1           0        1.044063   -1.406256    0.854819
     79          1           0       -4.201492    6.136789    1.903867
     80          1           0       -4.081520    6.395973    0.208164
     81          1           0       -2.940823    5.310262    0.884581
     82          1           0       -6.055611    7.462987    1.489959
     83          1           0       -7.685147    7.836543    0.866443
     84          1           0       -6.308193    7.603668   -0.263575
     85          1           0      -10.761624    1.859549   -0.757645
     86          1           0      -10.885759   -0.857587    0.147565
     87          1           0      -11.550937    2.463655    1.065802
     88          1           0      -10.403783    1.745251    2.120173
     89          1           0      -11.835392    0.767981    1.720483
     90          1           0      -11.997420    0.139200   -1.837717
     91          1           0      -11.184481   -1.380932   -2.194775
     92          1           0       -9.345999    0.707356   -2.809596
     93          1           0      -10.898539    1.030520   -3.740932
     94          1           0      -10.231531   -0.511806   -3.940238
     95          1           0       -7.374043   -5.642351   -0.183062
     96          1           0       -6.967620   -5.690723   -1.889875
     97          1           0       -8.445299   -4.847252   -1.493322
     98          1           0       -2.020933   -3.622815   -0.828892
     99          1           0        0.555413   -4.841363    2.441611
    100          1           0       -0.822834   -6.014295    2.665974
    101          1           0       -0.713666   -4.314606    3.356402
    102          1           0        4.536058   -2.001166   -1.935859
    103          1           0        5.007859   -3.175813   -0.693291
    104          1           0        4.816759   -0.502155    0.374671
    105          1           0        8.500597   -2.341850   -0.100623
    106          1           0        7.992982   -1.475253   -1.636665
    107          1           0        7.294409   -3.009760   -1.171109
    108          1           0        8.452952   -0.203106    1.025206
    109          1           0        6.865429    0.026871    1.646814
    110          1           0        6.463566    1.970568    0.681808
    111          1           0        7.112057    1.379408   -0.864774
    112          1           0        9.502584    1.528367    0.602265
    113          1           0        8.623824    2.967582    1.142071
    114          1           0       10.258248    3.251762   -0.567564
    115          1           0        7.877572    3.348239   -2.330609
    116          1           0        9.015981    4.649394   -2.016005
    117          1           0        7.706404    4.316441   -0.884000
    118          1           0        9.059694    1.682447   -2.824328
    119          1           0        9.673823    0.675460   -1.573170
    120          1           0       11.509312    2.969046   -2.265692
    121          1           0       10.962508    2.200286   -3.708902
    122          1           0       12.593555    0.810172   -3.514830
    123          1           0       11.679216    0.014188   -2.294199
    124          1           0       12.648112    2.002193   -0.647753
    125          1           0       14.127986    2.411663   -3.224364
    126          1           0       15.196521    1.886236   -2.083478
    127          1           0       14.184330    3.217442   -1.682110
    128          1           0       14.847574    0.136721   -1.076760
    129          1           0       13.287321   -0.721039   -0.884171
    130          1           0       14.127263    1.425979    1.029648
    131          1           0       14.647328   -0.131869    1.168836
    132          1           0       11.624004   -0.109248    0.599823
    133          1           0       11.889618    0.940029    1.992717
    134          1           0       12.859685   -1.982032    1.851427
    135          1           0       10.089726   -0.883005    2.216058
    136          1           0       10.671369   -1.780951    3.575584
    137          1           0       10.705558   -2.447851    1.937432
    138          1           0       12.359051   -0.253016    4.358892
    139          1           0       13.788019    0.100335    3.547868
    140          1           0       13.612162   -1.499098    4.075848
 ---------------------------------------------------------------------

 SCF Done:  E(RZINDO/S) =  -473.868371569     A.U. after   19 cycles

 Excitation energies and oscillator strengths:

 Excited State   1:      Singlet-A      1.2449 eV  995.91 nm  f=0.6055  <S**2>=0.000
     175 ->178         0.15591
     176 ->177         0.66860
 This state for optimization and/or second-order correction.
 Total Energy, E(CIS/TDA) =  -473.822621138
 Copying the excited state density for this state as the 1-particle RhoCI density.

 Excited State   2:      Singlet-A      1.8636 eV  665.31 nm  f=0.1528  <S**2>=0.000
     175 ->177         0.60332
     176 ->178        -0.31099

 Excited State   3:      Singlet-A      2.9350 eV  422.43 nm  f=0.0006  <S**2>=0.000
     168 ->177         0.32887
     168 ->178        -0.27123
     168 ->179        -0.38030
     168 ->180        -0.21538
     168 ->185        -0.19161
     168 ->187        -0.12786
     171 ->177         0.10848

 Excited State   4:      Singlet-A      2.9674 eV  417.82 nm  f=0.0042  <S**2>=0.000
     170 ->177         0.18624
     170 ->179         0.19809
     170 ->180        -0.24927
     170 ->185         0.14321
     170 ->187        -0.10027
     171 ->177         0.21501
     171 ->179         0.20395
     171 ->180        -0.24882
     171 ->185         0.14382
     174 ->177        -0.22469

 Excited State   5:      Singlet-A      2.9965 eV  413.77 nm  f=0.4530  <S**2>=0.000
     170 ->177        -0.15441
     171 ->177         0.19588
     172 ->177         0.15432
     174 ->177         0.31098
     175 ->177         0.22570
     176 ->178         0.47214
     176 ->179         0.10218

 The electronic state is 1-A.
 Alpha  occ. eigenvalues --   -1.85416  -1.78375  -1.76940  -1.70293  -1.69899
 Alpha  occ. eigenvalues --   -1.68831  -1.67742  -1.61005  -1.58106  -1.57635
 Alpha  occ. eigenvalues --   -1.56464  -1.51744  -1.48438  -1.45826  -1.44756
 Alpha  occ. eigenvalues --   -1.43877  -1.41693  -1.39681  -1.39426  -1.37928
 Alpha  occ. eigenvalues --   -1.35573  -1.32930  -1.30863  -1.30376  -1.28067
 Alpha  occ. eigenvalues --   -1.26727  -1.24201  -1.21751  -1.21202  -1.18029
 Alpha  occ. eigenvalues --   -1.16796  -1.16585  -1.15253  -1.14207  -1.13075
 Alpha  occ. eigenvalues --   -1.11034  -1.10858  -1.10208  -1.04978  -1.03863
 Alpha  occ. eigenvalues --   -1.03665  -1.00718  -1.00086  -0.98945  -0.97857
 Alpha  occ. eigenvalues --   -0.96657  -0.95464  -0.94001  -0.93288  -0.92341
 Alpha  occ. eigenvalues --   -0.90349  -0.89625  -0.88291  -0.87900  -0.85006
 Alpha  occ. eigenvalues --   -0.84514  -0.84228  -0.83457  -0.81273  -0.81115
 Alpha  occ. eigenvalues --   -0.80298  -0.79030  -0.78800  -0.77220  -0.75883
 Alpha  occ. eigenvalues --   -0.75723  -0.75147  -0.74552  -0.74313  -0.73688
 Alpha  occ. eigenvalues --   -0.73303  -0.72385  -0.72122  -0.71564  -0.70605
 Alpha  occ. eigenvalues --   -0.70256  -0.69763  -0.68666  -0.68295  -0.68092
 Alpha  occ. eigenvalues --   -0.67539  -0.67372  -0.66285  -0.66028  -0.65508
 Alpha  occ. eigenvalues --   -0.65136  -0.64570  -0.64346  -0.63517  -0.63276
 Alpha  occ. eigenvalues --   -0.63037  -0.62912  -0.62692  -0.62218  -0.62078
 Alpha  occ. eigenvalues --   -0.61943  -0.61620  -0.60663  -0.60514  -0.60348
 Alpha  occ. eigenvalues --   -0.59671  -0.59333  -0.59056  -0.58810  -0.58361
 Alpha  occ. eigenvalues --   -0.58035  -0.57459  -0.57283  -0.56951  -0.56518
 Alpha  occ. eigenvalues --   -0.55884  -0.55682  -0.55621  -0.54805  -0.54637
 Alpha  occ. eigenvalues --   -0.54252  -0.53664  -0.53289  -0.53126  -0.52932
 Alpha  occ. eigenvalues --   -0.52542  -0.52333  -0.52106  -0.51533  -0.51308
 Alpha  occ. eigenvalues --   -0.51012  -0.50823  -0.50716  -0.50177  -0.50078
 Alpha  occ. eigenvalues --   -0.49977  -0.49588  -0.49398  -0.49183  -0.48941
 Alpha  occ. eigenvalues --   -0.48561  -0.48346  -0.48154  -0.48012  -0.47883
 Alpha  occ. eigenvalues --   -0.47683  -0.47596  -0.47468  -0.46778  -0.46656
 Alpha  occ. eigenvalues --   -0.46369  -0.46097  -0.46007  -0.45470  -0.45438
 Alpha  occ. eigenvalues --   -0.45122  -0.44902  -0.44726  -0.44513  -0.43717
 Alpha  occ. eigenvalues --   -0.43672  -0.43207  -0.42637  -0.42605  -0.42407
 Alpha  occ. eigenvalues --   -0.41873  -0.41289  -0.40615  -0.39097  -0.38826
 Alpha  occ. eigenvalues --   -0.38258  -0.37833  -0.36709  -0.34589  -0.34084
 Alpha  occ. eigenvalues --   -0.33883  -0.32761  -0.31819  -0.31316  -0.26690
 Alpha  occ. eigenvalues --   -0.22483
 Alpha virt. eigenvalues --   -0.09404  -0.02086  -0.00950   0.00869   0.01848
 Alpha virt. eigenvalues --    0.02641   0.02751   0.03030   0.04411   0.04935
 Alpha virt. eigenvalues --    0.05742   0.05988   0.07093   0.07299   0.07546

 Mulliken charges:
               1
     1  Mg   0.421774
     2  C   -0.050782
     3  C   -0.100820
     4  C   -0.045120
     5  C   -0.055511
     6  N   -0.298490
     7  C    0.113884
     8  C   -0.009279
     9  C   -0.006317
    10  C    0.159640
    11  C   -0.060017
    12  C   -0.022272
    13  C    0.004710
    14  C    0.467174
    15  O   -0.510595
    16  O   -0.281905
    17  N   -0.320159
    18  C    0.139136
    19  C    0.029830
    20  C   -0.037101
    21  C    0.145935
    22  C   -0.039837
    23  C    0.327118
    24  O   -0.519111
    25  C   -0.035175
    26  N   -0.272243
    27  C    0.157989
    28  C    0.003469
    29  C   -0.003075
    30  C    0.099710
    31  C   -0.053744
    32  C   -0.028110
    33  C   -0.059358
    34  N   -0.339231
    35  C    0.081917
    36  C    0.014166
    37  C   -0.042638
    38  C    0.120026
    39  C   -0.047896
    40  C    0.332161
    41  O   -0.548614
    42  C    0.070661
    43  C    0.492756
    44  O   -0.522001
    45  O   -0.290642
    46  C    0.076324
    47  C    0.112662
    48  C   -0.087417
    49  C   -0.004693
    50  C   -0.046539
    51  C   -0.022977
    52  C   -0.021687
    53  C   -0.041779
    54  C   -0.013075
    55  C   -0.068637
    56  C   -0.038652
    57  C   -0.036686
    58  C   -0.029394
    59  C   -0.004461
    60  C   -0.049240
    61  C   -0.048631
    62  C   -0.041212
    63  C   -0.022581
    64  C   -0.008819
    65  C   -0.067216
    66  C   -0.060117
    67  H    0.028008
    68  H    0.037984
    69  H    0.027728
    70  H    0.032749
    71  H    0.033691
    72  H    0.018139
    73  H    0.028133
    74  H    0.029903
    75  H    0.025006
    76  H    0.029558
    77  H    0.051596
    78  H    0.032360
    79  H    0.032145
    80  H    0.027102
    81  H    0.031269
    82  H    0.038366
    83  H    0.039833
    84  H    0.042152
    85  H    0.032208
    86  H    0.025143
    87  H    0.022500
    88  H    0.023790
    89  H    0.035793
    90  H    0.020214
    91  H    0.016310
    92  H    0.038695
    93  H    0.022571
    94  H    0.025307
    95  H    0.042284
    96  H    0.028263
    97  H    0.024693
    98  H    0.055393
    99  H    0.025086
   100  H    0.061318
   101  H    0.040429
   102  H    0.065686
   103  H    0.042819
   104  H    0.020553
   105  H    0.026540
   106  H    0.031885
   107  H    0.024141
   108  H    0.029057
   109  H    0.014185
   110  H    0.029355
   111  H    0.022642
   112  H    0.020098
   113  H    0.019320
   114  H    0.020364
   115  H    0.015976
   116  H    0.017116
   117  H    0.015420
   118  H    0.020056
   119  H    0.018702
   120  H    0.019911
   121  H    0.007373
   122  H    0.018856
   123  H    0.010865
   124  H    0.031884
   125  H    0.019308
   126  H    0.012427
   127  H    0.004636
   128  H    0.019378
   129  H    0.017725
   130  H    0.009701
   131  H    0.021117
   132  H    0.017969
   133  H    0.028489
   134  H    0.032294
   135  H    0.019238
   136  H    0.017225
   137  H    0.009358
   138  H    0.020933
   139  H    0.010548
   140  H    0.013951
 Sum of Mulliken charges =  -0.00000

 Dipole moment (field-independent basis, Debye):
    X=              3.6211    Y=             10.7704    Z=              3.3377  Tot=             11.8429
 N-N= 4.287123132648D+03 E-N= 0.000000000000D+00  KE=-9.248143526383D+03
 Leave Link  601 at Fri Apr 29 14:44:14 2022, MaxMem=  6710886400 cpu:               0.8 elap:               0.0
 (Enter /sw/apps/gaussian-16.0/g16/l9999.exe)
 1\1\GINC-BP1-COMPUTE103\SP\RZINDO CIS\STO-3G\C55H74Mg1N4O6\OF15641\29-
 Apr-2022\0\\#p ZINDO=(nstates=5)\\step_351_chromophore_13 ZINDO\\0,1\M
 g,0,46.382,24.85,28.466\C,0,46.864,27.029,31.127\C,0,45.476,22.355,30.
 836\C,0,46.116,22.532,25.959\C,0,47.561,27.184,26.243\N,0,46.336,24.69
 9,30.671\C,0,46.456,25.774,31.527\C,0,46.159,25.381,33.017\C,0,45.745,
 23.866,32.857\C,0,45.875,23.578,31.358\C,0,46.653,22.924,33.806\C,0,45
 .14,26.199,33.855\C,0,45.645,26.614,35.26\C,0,44.679,27.166,36.34\O,0,

 Normal termination of Gaussian 16 at Fri Apr 29 14:44:14 2022.
