 Gaussian 16, Revision A.03,
 Gaussian 16:  ES64L-G16RevA.03 25-Dec-2016

 ------------------------------
 #p blyp/Def2SVP td=(nstates=5)
 ------------------------------

 --------------------------------------------------
 step_701_chromophore_11 TDDFT with blyp functional
 --------------------------------------------------
 Symbolic Z-matrix:
 Charge =  0 Multiplicity = 1

                         Standard orientation:
 ---------------------------------------------------------------------
 Center     Atomic      Atomic             Coordinates (Angstroms)
 Number     Number       Type             X           Y           Z
 ---------------------------------------------------------------------
      1         12           0       -4.880517    1.158986    0.679977
      2          6           0       -5.292606   -2.359045    0.286038
      3          6           0       -2.568627    0.528128    3.214718
      4          6           0       -3.844618    4.375675    0.332085
      5          6           0       -6.879879    1.584004   -2.186682
      6          7           0       -3.870834   -0.779518    1.435400
      7          6           0       -4.303411   -2.014138    1.258993
      8          6           0       -3.516407   -2.970895    2.151878
      9          6           0       -3.017313   -2.071181    3.313564
     10          6           0       -3.142150   -0.612669    2.641806
     11          6           0       -3.813843   -2.035023    4.659903
     12          6           0       -2.384923   -3.883924    1.498966
     13          6           0       -1.446701   -3.127988    0.565372
     14          6           0       -0.277456   -3.886026   -0.113090
     15          8           0       -0.125514   -5.117634   -0.241448
     16          8           0        0.548177   -2.858980   -0.637186
     17          7           0       -3.547776    2.367751    1.825981
     18          6           0       -2.719965    1.888157    2.774407
     19          6           0       -1.964617    3.056434    3.297337
     20          6           0       -2.327748    4.187113    2.500078
     21          6           0       -3.251867    3.715874    1.476899
     22          6           0       -1.095821    2.811120    4.493175
     23          6           0       -1.631720    5.541174    2.699238
     24          8           0       -0.554560    5.633810    3.362900
     25          6           0       -2.159405    6.749945    1.891328
     26          7           0       -5.228639    2.740999   -0.837829
     27          6           0       -4.774787    3.952491   -0.588166
     28          6           0       -5.351352    4.984389   -1.645923
     29          6           0       -6.505193    4.129031   -2.311072
     30          6           0       -6.157345    2.720855   -1.850722
     31          6           0       -5.878814    6.359130   -1.017488
     32          6           0       -6.486092    4.232337   -3.876297
     33          6           0       -6.432011    5.630237   -4.497930
     34          7           0       -5.841895   -0.056220   -0.699004
     35          6           0       -6.664078    0.253306   -1.823197
     36          6           0       -7.236353   -0.939481   -2.350311
     37          6           0       -6.789689   -1.974882   -1.555337
     38          6           0       -5.897579   -1.431115   -0.579657
     39          6           0       -8.324389   -0.968289   -3.368853
     40          6           0       -6.808428   -3.381260   -1.385484
     41          8           0       -7.339726   -4.202213   -2.118380
     42          6           0       -5.844075   -3.771490   -0.145983
     43          6           0       -4.757468   -4.647290   -0.690651
     44          8           0       -4.092707   -4.408557   -1.678225
     45          8           0       -4.651612   -5.809165    0.000579
     46          6           0       -3.755135   -6.864308   -0.519040
     47          6           0        1.796813   -3.365913   -1.252833
     48          6           0        2.905977   -2.544269   -0.692361
     49          6           0        3.524020   -2.790324    0.460248
     50          6           0        2.998655   -3.789318    1.584209
     51          6           0        4.917564   -2.266249    0.777562
     52          6           0        5.164366   -0.802813    0.447245
     53          6           0        5.487080   -0.558520   -0.999959
     54          6           0        6.871736    0.018937   -1.180229
     55          6           0        7.126817    0.183555   -2.730207
     56          6           0        8.069817   -0.704621   -0.392189
     57          6           0        8.785999    0.132385    0.736005
     58          6           0       10.131026    0.769795    0.344841
     59          6           0       11.285010    0.314904    1.270068
     60          6           0       11.056821    0.720967    2.677815
     61          6           0       12.620419    0.825751    0.658766
     62          6           0       13.189859   -0.282767   -0.310564
     63          6           0       13.171381    0.258679   -1.804440
     64          6           0       14.265481    1.296527   -2.060279
     65          6           0       13.769886    2.726005   -2.545613
     66          6           0       15.437995    0.794663   -2.934788
     67          1           0       -1.837912    0.345037    4.006354
     68          1           0       -3.524851    5.413142    0.219372
     69          1           0       -7.550518    1.739546   -3.034112
     70          1           0       -4.313243   -3.591780    2.561720
     71          1           0       -1.980761   -2.262803    3.589267
     72          1           0       -3.981765   -1.006335    4.979995
     73          1           0       -3.184429   -2.534732    5.396067
     74          1           0       -4.758067   -2.499290    4.377394
     75          1           0       -2.806522   -4.792662    1.068595
     76          1           0       -1.722170   -4.372906    2.213232
     77          1           0       -0.878485   -2.427454    1.177290
     78          1           0       -1.927756   -2.527296   -0.206032
     79          1           0       -0.421167    3.650066    4.661350
     80          1           0       -0.566176    1.861048    4.419534
     81          1           0       -1.761382    2.756063    5.355424
     82          1           0       -2.018952    6.609726    0.819740
     83          1           0       -1.665472    7.588619    2.382795
     84          1           0       -3.218875    6.844819    2.127796
     85          1           0       -4.522088    5.203483   -2.318819
     86          1           0       -7.445905    4.521455   -1.924851
     87          1           0       -5.592227    6.255056    0.028851
     88          1           0       -6.933209    6.573697   -1.189648
     89          1           0       -5.149729    7.101800   -1.344225
     90          1           0       -7.326648    3.644340   -4.242389
     91          1           0       -5.526747    3.757818   -4.085074
     92          1           0       -6.440390    6.431734   -3.759672
     93          1           0       -7.319127    5.643848   -5.132251
     94          1           0       -5.587750    5.806443   -5.164437
     95          1           0       -8.761154   -1.955310   -3.515916
     96          1           0       -8.025844   -0.620363   -4.357504
     97          1           0       -9.153503   -0.344019   -3.036401
     98          1           0       -6.414282   -4.213484    0.670964
     99          1           0       -4.374598   -7.756073   -0.618194
    100          1           0       -2.841698   -7.081839    0.033714
    101          1           0       -3.307450   -6.651056   -1.489911
    102          1           0        1.773417   -3.131080   -2.316751
    103          1           0        1.961529   -4.441833   -1.190982
    104          1           0        3.354705   -1.818622   -1.370842
    105          1           0        2.854726   -3.166606    2.467146
    106          1           0        3.752496   -4.524515    1.868804
    107          1           0        2.063923   -4.318181    1.398948
    108          1           0        5.726623   -2.850244    0.339319
    109          1           0        5.091717   -2.263111    1.853666
    110          1           0        5.980446   -0.550112    1.124844
    111          1           0        4.370009   -0.106545    0.717637
    112          1           0        4.893754    0.290769   -1.338433
    113          1           0        5.324279   -1.482406   -1.554575
    114          1           0        6.857229    0.990586   -0.686568
    115          1           0        7.872247   -0.535436   -3.069736
    116          1           0        7.448639    1.195580   -2.973914
    117          1           0        6.221258   -0.018257   -3.302730
    118          1           0        8.842372   -0.819209   -1.152408
    119          1           0        7.812586   -1.668105    0.049037
    120          1           0        8.931785   -0.578908    1.548065
    121          1           0        8.077541    0.902944    1.041273
    122          1           0       10.076209    1.856684    0.403849
    123          1           0       10.240868    0.539136   -0.715410
    124          1           0       11.314228   -0.774937    1.259782
    125          1           0       10.244704    1.437193    2.557928
    126          1           0       11.894626    1.209306    3.175576
    127          1           0       10.731737   -0.152363    3.243624
    128          1           0       13.261599    1.029415    1.515252
    129          1           0       12.483590    1.762966    0.119126
    130          1           0       12.638048   -1.218539   -0.225024
    131          1           0       14.236840   -0.491906   -0.089900
    132          1           0       12.192113    0.689634   -2.011267
    133          1           0       13.301794   -0.677734   -2.347418
    134          1           0       14.723891    1.480886   -1.088587
    135          1           0       12.896354    2.583696   -3.181750
    136          1           0       14.548565    3.271934   -3.079462
    137          1           0       13.623173    3.431798   -1.728599
    138          1           0       16.161249    0.341176   -2.258254
    139          1           0       15.945502    1.609168   -3.451704
    140          1           0       15.183092   -0.048197   -3.576233
 ---------------------------------------------------------------------

 SCF Done:  E(RB-LYP) =  -3007.37242394     A.U. after   22 cycles

 Excitation energies and oscillator strengths:

 Excited State   1:      Singlet-A      1.7938 eV  691.18 nm  f=0.2800  <S**2>=0.000
     244 -> 247       -0.14786
     245 -> 248        0.18009
     246 -> 247        0.67434
     246 <- 247       -0.14940
 This state for optimization and/or second-order correction.
 Total Energy, E(TD-HF/TD-DFT) =  -3007.30650255
 Copying the excited state density for this state as the 1-particle RhoCI density.

 Excited State   2:      Singlet-A      1.8738 eV  661.67 nm  f=0.0235  <S**2>=0.000
     244 -> 247        0.60266
     245 -> 247        0.31804
     246 -> 247        0.14380

 Excited State   3:      Singlet-A      1.9290 eV  642.74 nm  f=0.0026  <S**2>=0.000
     243 -> 247        0.67989
     244 -> 247        0.14744
     245 -> 247       -0.10572

 Excited State   4:      Singlet-A      2.0294 eV  610.95 nm  f=0.0486  <S**2>=0.000
     243 -> 247        0.15895
     244 -> 247       -0.29501
     245 -> 247        0.54704
     246 -> 248       -0.25077

 Excited State   5:      Singlet-A      2.1718 eV  570.88 nm  f=0.0014  <S**2>=0.000
     242 -> 247        0.70542

 The electronic state is 1-A.
 Alpha  occ. eigenvalues --  -46.28720 -18.82001 -18.81483 -18.77571 -18.76226
 Alpha  occ. eigenvalues --  -18.75908 -18.75679 -14.03614 -14.03286 -14.01878
 Alpha  occ. eigenvalues --  -14.01204 -10.04301 -10.03577 -10.00755  -9.99525
 Alpha  occ. eigenvalues --   -9.97332  -9.97330  -9.97175  -9.96975  -9.96790
 Alpha  occ. eigenvalues --   -9.96639  -9.96584  -9.96048  -9.95612  -9.95004
 Alpha  occ. eigenvalues --   -9.94652  -9.94434  -9.94398  -9.94338  -9.94205
 Alpha  occ. eigenvalues --   -9.94126  -9.93904  -9.93874  -9.93639  -9.93625
 Alpha  occ. eigenvalues --   -9.93330  -9.93081  -9.93050  -9.92988  -9.92982
 Alpha  occ. eigenvalues --   -9.92909  -9.92860  -9.92793  -9.92717  -9.92201
 Alpha  occ. eigenvalues --   -9.92135  -9.92135  -9.91870  -9.91833  -9.91825
 Alpha  occ. eigenvalues --   -9.91791  -9.91214  -9.91074  -9.91064  -9.91048
 Alpha  occ. eigenvalues --   -9.90967  -9.90852  -9.90828  -9.90806  -9.90804
 Alpha  occ. eigenvalues --   -9.90780  -9.90656  -9.90592  -9.90495  -9.90467
 Alpha  occ. eigenvalues --   -9.90206  -2.93098  -1.73493  -1.73029  -1.72783
 Alpha  occ. eigenvalues --   -0.97684  -0.95518  -0.91303  -0.89586  -0.89277
 Alpha  occ. eigenvalues --   -0.88932  -0.86783  -0.86002  -0.84857  -0.84452
 Alpha  occ. eigenvalues --   -0.74763  -0.73767  -0.73019  -0.72577  -0.72076
 Alpha  occ. eigenvalues --   -0.71784  -0.71306  -0.70996  -0.70685  -0.70432
 Alpha  occ. eigenvalues --   -0.69324  -0.68981  -0.67822  -0.67468  -0.67013
 Alpha  occ. eigenvalues --   -0.66207  -0.66025  -0.65299  -0.64888  -0.64598
 Alpha  occ. eigenvalues --   -0.63845  -0.62583  -0.62336  -0.61948  -0.60731
 Alpha  occ. eigenvalues --   -0.59851  -0.59793  -0.59744  -0.59256  -0.58756
 Alpha  occ. eigenvalues --   -0.58421  -0.57813  -0.56840  -0.55495  -0.54984
 Alpha  occ. eigenvalues --   -0.54130  -0.53362  -0.52525  -0.52212  -0.51305
 Alpha  occ. eigenvalues --   -0.51163  -0.51089  -0.50929  -0.50386  -0.49261
 Alpha  occ. eigenvalues --   -0.48979  -0.48513  -0.48480  -0.48296  -0.46489
 Alpha  occ. eigenvalues --   -0.46088  -0.45624  -0.45162  -0.44867  -0.44438
 Alpha  occ. eigenvalues --   -0.44174  -0.43657  -0.43420  -0.43161  -0.42498
 Alpha  occ. eigenvalues --   -0.42129  -0.41896  -0.41586  -0.41440  -0.41016
 Alpha  occ. eigenvalues --   -0.40571  -0.40522  -0.40322  -0.40190  -0.39934
 Alpha  occ. eigenvalues --   -0.39775  -0.39414  -0.39157  -0.39053  -0.39028
 Alpha  occ. eigenvalues --   -0.38613  -0.38507  -0.38478  -0.38316  -0.38166
 Alpha  occ. eigenvalues --   -0.37976  -0.37734  -0.37642  -0.37243  -0.37053
 Alpha  occ. eigenvalues --   -0.36843  -0.36592  -0.36495  -0.36238  -0.36148
 Alpha  occ. eigenvalues --   -0.36017  -0.35805  -0.35670  -0.35452  -0.35265
 Alpha  occ. eigenvalues --   -0.35063  -0.35049  -0.34717  -0.34593  -0.34565
 Alpha  occ. eigenvalues --   -0.34351  -0.34093  -0.34073  -0.33983  -0.33910
 Alpha  occ. eigenvalues --   -0.33715  -0.33633  -0.33438  -0.33282  -0.33217
 Alpha  occ. eigenvalues --   -0.33071  -0.32914  -0.32557  -0.32536  -0.32451
 Alpha  occ. eigenvalues --   -0.32243  -0.32010  -0.31844  -0.31712  -0.31594
 Alpha  occ. eigenvalues --   -0.31279  -0.31231  -0.30757  -0.30738  -0.30355
 Alpha  occ. eigenvalues --   -0.30284  -0.30247  -0.30048  -0.29734  -0.29627
 Alpha  occ. eigenvalues --   -0.29343  -0.29125  -0.28996  -0.28915  -0.28846
 Alpha  occ. eigenvalues --   -0.28448  -0.28434  -0.27979  -0.27909  -0.27815
 Alpha  occ. eigenvalues --   -0.27618  -0.27511  -0.26754  -0.26730  -0.26461
 Alpha  occ. eigenvalues --   -0.26073  -0.25681  -0.25275  -0.25016  -0.24808
 Alpha  occ. eigenvalues --   -0.24765  -0.24522  -0.24337  -0.24254  -0.23564
 Alpha  occ. eigenvalues --   -0.23296  -0.22653  -0.22431  -0.21515  -0.20948
 Alpha  occ. eigenvalues --   -0.20333  -0.19964  -0.18990  -0.18822  -0.17862
 Alpha  occ. eigenvalues --   -0.16189
 Alpha virt. eigenvalues --   -0.11988  -0.07623  -0.06774  -0.05332  -0.04123
 Alpha virt. eigenvalues --   -0.03103  -0.02453  -0.02369  -0.02070  -0.00384
 Alpha virt. eigenvalues --    0.01300   0.01789   0.02200   0.03155   0.03221

 Mulliken charges:
               1
     1  Mg   0.676929
     2  C   -0.032555
     3  C   -0.040085
     4  C   -0.016710
     5  C   -0.063889
     6  N   -0.188465
     7  C   -0.127712
     8  C    0.110222
     9  C   -0.074224
    10  C    0.034676
    11  C    0.146341
    12  C    0.148580
    13  C    0.073042
    14  C    0.137359
    15  O   -0.211399
    16  O   -0.300942
    17  N   -0.312102
    18  C    0.109297
    19  C   -0.131475
    20  C    0.020972
    21  C    0.113006
    22  C    0.174507
    23  C   -0.065104
    24  O   -0.195530
    25  C    0.118585
    26  N   -0.177325
    27  C    0.010260
    28  C   -0.051636
    29  C    0.049865
    30  C    0.012975
    31  C    0.135002
    32  C    0.034584
    33  C    0.092995
    34  N   -0.296540
    35  C    0.126225
    36  C   -0.151715
    37  C    0.152285
    38  C    0.089094
    39  C    0.167592
    40  C   -0.086107
    41  O   -0.128987
    42  C    0.103649
    43  C    0.104715
    44  O   -0.169567
    45  O   -0.263803
    46  C    0.196932
    47  C    0.337234
    48  C   -0.116470
    49  C   -0.100962
    50  C    0.109236
    51  C    0.122279
    52  C    0.071000
    53  C    0.093801
    54  C   -0.080276
    55  C    0.111059
    56  C    0.083668
    57  C    0.050171
    58  C    0.095287
    59  C   -0.131088
    60  C    0.164273
    61  C    0.128757
    62  C    0.045704
    63  C    0.110160
    64  C   -0.085774
    65  C    0.085440
    66  C    0.108883
    67  H   -0.050348
    68  H   -0.091988
    69  H   -0.061262
    70  H   -0.046032
    71  H   -0.027230
    72  H   -0.005813
    73  H    0.001352
    74  H   -0.009392
    75  H   -0.017636
    76  H   -0.036893
    77  H   -0.004073
    78  H    0.034815
    79  H    0.006608
    80  H    0.004623
    81  H   -0.004439
    82  H    0.049774
    83  H   -0.001903
    84  H    0.000354
    85  H   -0.011101
    86  H   -0.022118
    87  H   -0.016121
    88  H    0.015623
    89  H   -0.014780
    90  H   -0.006502
    91  H   -0.017178
    92  H   -0.010362
    93  H   -0.011931
    94  H   -0.006620
    95  H    0.000455
    96  H   -0.003854
    97  H   -0.002405
    98  H   -0.010113
    99  H    0.019641
   100  H    0.028023
   101  H    0.022090
   102  H   -0.026612
   103  H    0.008544
   104  H   -0.030933
   105  H   -0.003901
   106  H   -0.003628
   107  H   -0.004385
   108  H   -0.003565
   109  H   -0.047451
   110  H   -0.036041
   111  H   -0.035743
   112  H   -0.025355
   113  H   -0.008731
   114  H   -0.042741
   115  H   -0.013548
   116  H   -0.012876
   117  H   -0.022575
   118  H   -0.041737
   119  H   -0.032742
   120  H   -0.035591
   121  H   -0.022950
   122  H   -0.037726
   123  H   -0.029660
   124  H   -0.041897
   125  H   -0.027905
   126  H   -0.016762
   127  H   -0.012974
   128  H   -0.050245
   129  H   -0.026037
   130  H   -0.026338
   131  H   -0.031254
   132  H   -0.031543
   133  H   -0.036232
   134  H   -0.030388
   135  H   -0.002194
   136  H   -0.030255
   137  H   -0.013886
   138  H   -0.028837
   139  H   -0.014553
   140  H   -0.018220
 Sum of Mulliken charges =  -0.00000

 Dipole moment (field-independent basis, Debye):
    X=             -0.9368    Y=              3.2548    Z=              2.0159  Tot=              3.9415
 Quadrupole moment (field-independent basis, Debye-Ang):
   XX=           -383.2186   YY=           -412.8504   ZZ=           -403.8124
   XY=            -44.4735   XZ=             -9.5330   YZ=            -34.2251

 Normal termination of Gaussian 16 at Sat Apr 30 10:13:53 2022.
