 Gaussian 16, Revision A.03,
 Gaussian 16:  ES64L-G16RevA.03 25-Dec-2016

 -----------------------------------
 #p cam-b3lyp/Def2SVP td=(nstates=5)
 -----------------------------------

 -------------------------------------------------------
 step_701_chromophore_11 TDDFT with cam-b3lyp functional
 -------------------------------------------------------
 Symbolic Z-matrix:
 Charge =  0 Multiplicity = 1

                         Standard orientation:
 ---------------------------------------------------------------------
 Center     Atomic      Atomic             Coordinates (Angstroms)
 Number     Number       Type             X           Y           Z
 ---------------------------------------------------------------------
      1         12           0       -4.880517    1.158986    0.679977
      2          6           0       -5.292606   -2.359045    0.286038
      3          6           0       -2.568627    0.528128    3.214718
      4          6           0       -3.844618    4.375675    0.332085
      5          6           0       -6.879879    1.584004   -2.186682
      6          7           0       -3.870834   -0.779518    1.435400
      7          6           0       -4.303411   -2.014138    1.258993
      8          6           0       -3.516407   -2.970895    2.151878
      9          6           0       -3.017313   -2.071181    3.313564
     10          6           0       -3.142150   -0.612669    2.641806
     11          6           0       -3.813843   -2.035023    4.659903
     12          6           0       -2.384923   -3.883924    1.498966
     13          6           0       -1.446701   -3.127988    0.565372
     14          6           0       -0.277456   -3.886026   -0.113090
     15          8           0       -0.125514   -5.117634   -0.241448
     16          8           0        0.548177   -2.858980   -0.637186
     17          7           0       -3.547776    2.367751    1.825981
     18          6           0       -2.719965    1.888157    2.774407
     19          6           0       -1.964617    3.056434    3.297337
     20          6           0       -2.327748    4.187113    2.500078
     21          6           0       -3.251867    3.715874    1.476899
     22          6           0       -1.095821    2.811120    4.493175
     23          6           0       -1.631720    5.541174    2.699238
     24          8           0       -0.554560    5.633810    3.362900
     25          6           0       -2.159405    6.749945    1.891328
     26          7           0       -5.228639    2.740999   -0.837829
     27          6           0       -4.774787    3.952491   -0.588166
     28          6           0       -5.351352    4.984389   -1.645923
     29          6           0       -6.505193    4.129031   -2.311072
     30          6           0       -6.157345    2.720855   -1.850722
     31          6           0       -5.878814    6.359130   -1.017488
     32          6           0       -6.486092    4.232337   -3.876297
     33          6           0       -6.432011    5.630237   -4.497930
     34          7           0       -5.841895   -0.056220   -0.699004
     35          6           0       -6.664078    0.253306   -1.823197
     36          6           0       -7.236353   -0.939481   -2.350311
     37          6           0       -6.789689   -1.974882   -1.555337
     38          6           0       -5.897579   -1.431115   -0.579657
     39          6           0       -8.324389   -0.968289   -3.368853
     40          6           0       -6.808428   -3.381260   -1.385484
     41          8           0       -7.339726   -4.202213   -2.118380
     42          6           0       -5.844075   -3.771490   -0.145983
     43          6           0       -4.757468   -4.647290   -0.690651
     44          8           0       -4.092707   -4.408557   -1.678225
     45          8           0       -4.651612   -5.809165    0.000579
     46          6           0       -3.755135   -6.864308   -0.519040
     47          6           0        1.796813   -3.365913   -1.252833
     48          6           0        2.905977   -2.544269   -0.692361
     49          6           0        3.524020   -2.790324    0.460248
     50          6           0        2.998655   -3.789318    1.584209
     51          6           0        4.917564   -2.266249    0.777562
     52          6           0        5.164366   -0.802813    0.447245
     53          6           0        5.487080   -0.558520   -0.999959
     54          6           0        6.871736    0.018937   -1.180229
     55          6           0        7.126817    0.183555   -2.730207
     56          6           0        8.069817   -0.704621   -0.392189
     57          6           0        8.785999    0.132385    0.736005
     58          6           0       10.131026    0.769795    0.344841
     59          6           0       11.285010    0.314904    1.270068
     60          6           0       11.056821    0.720967    2.677815
     61          6           0       12.620419    0.825751    0.658766
     62          6           0       13.189859   -0.282767   -0.310564
     63          6           0       13.171381    0.258679   -1.804440
     64          6           0       14.265481    1.296527   -2.060279
     65          6           0       13.769886    2.726005   -2.545613
     66          6           0       15.437995    0.794663   -2.934788
     67          1           0       -1.837912    0.345037    4.006354
     68          1           0       -3.524851    5.413142    0.219372
     69          1           0       -7.550518    1.739546   -3.034112
     70          1           0       -4.313243   -3.591780    2.561720
     71          1           0       -1.980761   -2.262803    3.589267
     72          1           0       -3.981765   -1.006335    4.979995
     73          1           0       -3.184429   -2.534732    5.396067
     74          1           0       -4.758067   -2.499290    4.377394
     75          1           0       -2.806522   -4.792662    1.068595
     76          1           0       -1.722170   -4.372906    2.213232
     77          1           0       -0.878485   -2.427454    1.177290
     78          1           0       -1.927756   -2.527296   -0.206032
     79          1           0       -0.421167    3.650066    4.661350
     80          1           0       -0.566176    1.861048    4.419534
     81          1           0       -1.761382    2.756063    5.355424
     82          1           0       -2.018952    6.609726    0.819740
     83          1           0       -1.665472    7.588619    2.382795
     84          1           0       -3.218875    6.844819    2.127796
     85          1           0       -4.522088    5.203483   -2.318819
     86          1           0       -7.445905    4.521455   -1.924851
     87          1           0       -5.592227    6.255056    0.028851
     88          1           0       -6.933209    6.573697   -1.189648
     89          1           0       -5.149729    7.101800   -1.344225
     90          1           0       -7.326648    3.644340   -4.242389
     91          1           0       -5.526747    3.757818   -4.085074
     92          1           0       -6.440390    6.431734   -3.759672
     93          1           0       -7.319127    5.643848   -5.132251
     94          1           0       -5.587750    5.806443   -5.164437
     95          1           0       -8.761154   -1.955310   -3.515916
     96          1           0       -8.025844   -0.620363   -4.357504
     97          1           0       -9.153503   -0.344019   -3.036401
     98          1           0       -6.414282   -4.213484    0.670964
     99          1           0       -4.374598   -7.756073   -0.618194
    100          1           0       -2.841698   -7.081839    0.033714
    101          1           0       -3.307450   -6.651056   -1.489911
    102          1           0        1.773417   -3.131080   -2.316751
    103          1           0        1.961529   -4.441833   -1.190982
    104          1           0        3.354705   -1.818622   -1.370842
    105          1           0        2.854726   -3.166606    2.467146
    106          1           0        3.752496   -4.524515    1.868804
    107          1           0        2.063923   -4.318181    1.398948
    108          1           0        5.726623   -2.850244    0.339319
    109          1           0        5.091717   -2.263111    1.853666
    110          1           0        5.980446   -0.550112    1.124844
    111          1           0        4.370009   -0.106545    0.717637
    112          1           0        4.893754    0.290769   -1.338433
    113          1           0        5.324279   -1.482406   -1.554575
    114          1           0        6.857229    0.990586   -0.686568
    115          1           0        7.872247   -0.535436   -3.069736
    116          1           0        7.448639    1.195580   -2.973914
    117          1           0        6.221258   -0.018257   -3.302730
    118          1           0        8.842372   -0.819209   -1.152408
    119          1           0        7.812586   -1.668105    0.049037
    120          1           0        8.931785   -0.578908    1.548065
    121          1           0        8.077541    0.902944    1.041273
    122          1           0       10.076209    1.856684    0.403849
    123          1           0       10.240868    0.539136   -0.715410
    124          1           0       11.314228   -0.774937    1.259782
    125          1           0       10.244704    1.437193    2.557928
    126          1           0       11.894626    1.209306    3.175576
    127          1           0       10.731737   -0.152363    3.243624
    128          1           0       13.261599    1.029415    1.515252
    129          1           0       12.483590    1.762966    0.119126
    130          1           0       12.638048   -1.218539   -0.225024
    131          1           0       14.236840   -0.491906   -0.089900
    132          1           0       12.192113    0.689634   -2.011267
    133          1           0       13.301794   -0.677734   -2.347418
    134          1           0       14.723891    1.480886   -1.088587
    135          1           0       12.896354    2.583696   -3.181750
    136          1           0       14.548565    3.271934   -3.079462
    137          1           0       13.623173    3.431798   -1.728599
    138          1           0       16.161249    0.341176   -2.258254
    139          1           0       15.945502    1.609168   -3.451704
    140          1           0       15.183092   -0.048197   -3.576233
 ---------------------------------------------------------------------

 SCF Done:  E(RCAM-B3LYP) =  -3007.15443711     A.U. after   17 cycles

 Excitation energies and oscillator strengths:

 Excited State   1:      Singlet-A      1.6832 eV  736.61 nm  f=0.3712  <S**2>=0.000
     245 -> 248       -0.18514
     246 -> 247        0.68476
     245 <- 248       -0.11045
 This state for optimization and/or second-order correction.
 Total Energy, E(TD-HF/TD-DFT) =  -3007.09258149
 Copying the excited state density for this state as the 1-particle RhoCI density.

 Excited State   2:      Singlet-A      2.2294 eV  556.14 nm  f=0.0733  <S**2>=0.000
     245 -> 247        0.62056
     246 -> 248        0.32427

 Excited State   3:      Singlet-A      3.2423 eV  382.40 nm  f=0.0197  <S**2>=0.000
     244 -> 247        0.64717
     246 -> 248        0.20896

 Excited State   4:      Singlet-A      3.3450 eV  370.65 nm  f=0.1530  <S**2>=0.000
     241 -> 247       -0.13739
     241 -> 251        0.10363
     242 -> 247        0.51039
     244 -> 247       -0.14211
     245 -> 247       -0.15537
     246 -> 248        0.36279

 Excited State   5:      Singlet-A      3.4505 eV  359.32 nm  f=0.1519  <S**2>=0.000
     241 -> 247        0.51801
     241 -> 249        0.21117
     241 -> 251       -0.20742
     245 -> 247       -0.15096
     246 -> 248        0.29052

 The electronic state is 1-A.
 Alpha  occ. eigenvalues --  -46.90404 -19.24938 -19.24298 -19.20507 -19.19471
 Alpha  occ. eigenvalues --  -19.18982 -19.18817 -14.42419 -14.42209 -14.40429
 Alpha  occ. eigenvalues --  -14.39612 -10.39767 -10.38972 -10.36100 -10.34832
 Alpha  occ. eigenvalues --  -10.31980 -10.31904 -10.31726 -10.31079 -10.30980
 Alpha  occ. eigenvalues --  -10.30936 -10.30816 -10.30473 -10.29800 -10.29379
 Alpha  occ. eigenvalues --  -10.29114 -10.28661 -10.28529 -10.28477 -10.28410
 Alpha  occ. eigenvalues --  -10.28291 -10.28077 -10.28069 -10.27988 -10.27861
 Alpha  occ. eigenvalues --  -10.27727 -10.27169 -10.27032 -10.26995 -10.26922
 Alpha  occ. eigenvalues --  -10.26887 -10.26800 -10.26659 -10.26509 -10.25911
 Alpha  occ. eigenvalues --  -10.25831 -10.25775 -10.25629 -10.25619 -10.25544
 Alpha  occ. eigenvalues --  -10.25451 -10.25098 -10.24920 -10.24799 -10.24710
 Alpha  occ. eigenvalues --  -10.24645 -10.24582 -10.24540 -10.24467 -10.24450
 Alpha  occ. eigenvalues --  -10.24414 -10.24339 -10.24193 -10.24080 -10.24053
 Alpha  occ. eigenvalues --  -10.23746  -3.18669  -1.93545  -1.93151  -1.92940
 Alpha  occ. eigenvalues --   -1.16236  -1.13852  -1.09662  -1.07904  -1.07205
 Alpha  occ. eigenvalues --   -1.06701  -1.04522  -1.03697  -1.02432  -1.01938
 Alpha  occ. eigenvalues --   -0.91826  -0.90636  -0.89832  -0.89304  -0.88802
 Alpha  occ. eigenvalues --   -0.88462  -0.87949  -0.87605  -0.87257  -0.86938
 Alpha  occ. eigenvalues --   -0.85940  -0.85367  -0.84049  -0.83648  -0.83212
 Alpha  occ. eigenvalues --   -0.82267  -0.82121  -0.81227  -0.80769  -0.80479
 Alpha  occ. eigenvalues --   -0.79593  -0.78242  -0.77898  -0.77558  -0.76166
 Alpha  occ. eigenvalues --   -0.75132  -0.75131  -0.75024  -0.74532  -0.74004
 Alpha  occ. eigenvalues --   -0.73481  -0.72815  -0.71722  -0.70290  -0.69612
 Alpha  occ. eigenvalues --   -0.68719  -0.67938  -0.67091  -0.66598  -0.65412
 Alpha  occ. eigenvalues --   -0.65314  -0.65089  -0.65064  -0.64426  -0.63237
 Alpha  occ. eigenvalues --   -0.62670  -0.62391  -0.62172  -0.62153  -0.60040
 Alpha  occ. eigenvalues --   -0.59639  -0.59065  -0.58654  -0.58438  -0.57765
 Alpha  occ. eigenvalues --   -0.57625  -0.56827  -0.56627  -0.56298  -0.55626
 Alpha  occ. eigenvalues --   -0.55292  -0.54939  -0.54573  -0.54412  -0.53748
 Alpha  occ. eigenvalues --   -0.53676  -0.53288  -0.53070  -0.53040  -0.52721
 Alpha  occ. eigenvalues --   -0.52637  -0.52085  -0.51875  -0.51737  -0.51438
 Alpha  occ. eigenvalues --   -0.51296  -0.51034  -0.50791  -0.50753  -0.50693
 Alpha  occ. eigenvalues --   -0.50375  -0.50086  -0.49886  -0.49591  -0.49436
 Alpha  occ. eigenvalues --   -0.49262  -0.48982  -0.48712  -0.48491  -0.48301
 Alpha  occ. eigenvalues --   -0.48191  -0.48025  -0.47957  -0.47590  -0.47394
 Alpha  occ. eigenvalues --   -0.47342  -0.46974  -0.46675  -0.46580  -0.46543
 Alpha  occ. eigenvalues --   -0.46188  -0.46014  -0.45920  -0.45813  -0.45673
 Alpha  occ. eigenvalues --   -0.45470  -0.45409  -0.45175  -0.45095  -0.45000
 Alpha  occ. eigenvalues --   -0.44806  -0.44611  -0.44269  -0.44213  -0.44073
 Alpha  occ. eigenvalues --   -0.43979  -0.43695  -0.43500  -0.43381  -0.43186
 Alpha  occ. eigenvalues --   -0.42650  -0.42594  -0.42233  -0.42076  -0.41942
 Alpha  occ. eigenvalues --   -0.41741  -0.41538  -0.41421  -0.41123  -0.40876
 Alpha  occ. eigenvalues --   -0.40783  -0.40502  -0.40420  -0.40078  -0.39948
 Alpha  occ. eigenvalues --   -0.39441  -0.39424  -0.38960  -0.38914  -0.38731
 Alpha  occ. eigenvalues --   -0.38511  -0.38358  -0.37518  -0.37446  -0.37211
 Alpha  occ. eigenvalues --   -0.37198  -0.36312  -0.36255  -0.36082  -0.35881
 Alpha  occ. eigenvalues --   -0.35751  -0.35258  -0.34812  -0.34306  -0.34220
 Alpha  occ. eigenvalues --   -0.34050  -0.33956  -0.33693  -0.31690  -0.31409
 Alpha  occ. eigenvalues --   -0.30873  -0.30136  -0.29778  -0.29584  -0.24719
 Alpha  occ. eigenvalues --   -0.21423
 Alpha virt. eigenvalues --   -0.09098  -0.02576  -0.00268   0.00869   0.01725
 Alpha virt. eigenvalues --    0.04659   0.04914   0.05414   0.05646   0.06436
 Alpha virt. eigenvalues --    0.07938   0.08487   0.08934   0.09264   0.09492

 Mulliken charges:
               1
     1  Mg   0.803917
     2  C   -0.065494
     3  C   -0.057562
     4  C   -0.039131
     5  C   -0.068077
     6  N   -0.254685
     7  C   -0.080289
     8  C    0.054672
     9  C   -0.120346
    10  C    0.047207
    11  C    0.090725
    12  C    0.094101
    13  C    0.006810
    14  C    0.219319
    15  O   -0.253967
    16  O   -0.364062
    17  N   -0.397057
    18  C    0.121599
    19  C   -0.136531
    20  C   -0.043476
    21  C    0.139224
    22  C    0.113583
    23  C    0.013924
    24  O   -0.236353
    25  C    0.036589
    26  N   -0.247712
    27  C    0.033690
    28  C   -0.100349
    29  C   -0.008915
    30  C    0.031788
    31  C    0.072911
    32  C   -0.013712
    33  C    0.029268
    34  N   -0.382822
    35  C    0.129589
    36  C   -0.141618
    37  C    0.067533
    38  C    0.127177
    39  C    0.108489
    40  C    0.011233
    41  O   -0.168284
    42  C    0.032695
    43  C    0.190706
    44  O   -0.206433
    45  O   -0.328561
    46  C    0.159253
    47  C    0.298543
    48  C   -0.142863
    49  C   -0.117139
    50  C    0.053113
    51  C    0.066294
    52  C    0.010767
    53  C    0.032626
    54  C   -0.126634
    55  C    0.051835
    56  C    0.030961
    57  C   -0.002597
    58  C    0.044973
    59  C   -0.181287
    60  C    0.097814
    61  C    0.073412
    62  C   -0.005634
    63  C    0.056321
    64  C   -0.151590
    65  C    0.029829
    66  C    0.053258
    67  H   -0.014502
    68  H   -0.057275
    69  H   -0.027601
    70  H   -0.007479
    71  H    0.006768
    72  H    0.020507
    73  H    0.025243
    74  H    0.013599
    75  H    0.009713
    76  H   -0.004008
    77  H    0.026882
    78  H    0.066316
    79  H    0.039741
    80  H    0.028306
    81  H    0.023171
    82  H    0.073473
    83  H    0.033854
    84  H    0.027810
    85  H    0.022252
    86  H    0.010905
    87  H    0.009044
    88  H    0.039169
    89  H    0.010022
    90  H    0.019345
    91  H    0.011256
    92  H    0.011464
    93  H    0.012601
    94  H    0.018466
    95  H    0.030617
    96  H    0.022390
    97  H    0.023080
    98  H    0.034106
    99  H    0.042526
   100  H    0.047545
   101  H    0.049591
   102  H    0.003710
   103  H    0.042020
   104  H    0.002641
   105  H    0.019057
   106  H    0.020741
   107  H    0.017153
   108  H    0.022882
   109  H   -0.015100
   110  H   -0.008002
   111  H   -0.003030
   112  H    0.005267
   113  H    0.016122
   114  H   -0.010676
   115  H    0.009803
   116  H    0.011312
   117  H    0.003283
   118  H   -0.014094
   119  H   -0.005809
   120  H   -0.006649
   121  H    0.003067
   122  H   -0.008082
   123  H   -0.005663
   124  H   -0.010564
   125  H   -0.002585
   126  H    0.009295
   127  H    0.011147
   128  H   -0.018992
   129  H   -0.001255
   130  H    0.001781
   131  H   -0.003478
   132  H   -0.005963
   133  H   -0.006119
   134  H    0.001281
   135  H    0.019952
   136  H   -0.005172
   137  H    0.009159
   138  H   -0.005047
   139  H    0.009569
   140  H    0.005573
 Sum of Mulliken charges =  -0.00000

 Dipole moment (field-independent basis, Debye):
    X=             -0.9919    Y=              3.6003    Z=              2.2436  Tot=              4.3566
 Quadrupole moment (field-independent basis, Debye-Ang):
   XX=           -382.3645   YY=           -408.7524   ZZ=           -402.3847
   XY=            -46.3681   XZ=            -10.0146   YZ=            -35.1567

 Normal termination of Gaussian 16 at Sat Apr 30 08:55:55 2022.
