 Gaussian 16, Revision A.03,
 Gaussian 16:  ES64L-G16RevA.03 25-Dec-2016

 ---------------------------------
 #p PBE1PBE/Def2SVP td=(nstates=5)
 ---------------------------------

 -----------------------------------------------------
 step_701_chromophore_11 TDDFT with PBE1PBE functional
 -----------------------------------------------------
 Symbolic Z-matrix:
 Charge =  0 Multiplicity = 1

                         Standard orientation:
 ---------------------------------------------------------------------
 Center     Atomic      Atomic             Coordinates (Angstroms)
 Number     Number       Type             X           Y           Z
 ---------------------------------------------------------------------
      1         12           0       -4.880517    1.158986    0.679977
      2          6           0       -5.292606   -2.359045    0.286038
      3          6           0       -2.568627    0.528128    3.214718
      4          6           0       -3.844618    4.375675    0.332085
      5          6           0       -6.879879    1.584004   -2.186682
      6          7           0       -3.870834   -0.779518    1.435400
      7          6           0       -4.303411   -2.014138    1.258993
      8          6           0       -3.516407   -2.970895    2.151878
      9          6           0       -3.017313   -2.071181    3.313564
     10          6           0       -3.142150   -0.612669    2.641806
     11          6           0       -3.813843   -2.035023    4.659903
     12          6           0       -2.384923   -3.883924    1.498966
     13          6           0       -1.446701   -3.127988    0.565372
     14          6           0       -0.277456   -3.886026   -0.113090
     15          8           0       -0.125514   -5.117634   -0.241448
     16          8           0        0.548177   -2.858980   -0.637186
     17          7           0       -3.547776    2.367751    1.825981
     18          6           0       -2.719965    1.888157    2.774407
     19          6           0       -1.964617    3.056434    3.297337
     20          6           0       -2.327748    4.187113    2.500078
     21          6           0       -3.251867    3.715874    1.476899
     22          6           0       -1.095821    2.811120    4.493175
     23          6           0       -1.631720    5.541174    2.699238
     24          8           0       -0.554560    5.633810    3.362900
     25          6           0       -2.159405    6.749945    1.891328
     26          7           0       -5.228639    2.740999   -0.837829
     27          6           0       -4.774787    3.952491   -0.588166
     28          6           0       -5.351352    4.984389   -1.645923
     29          6           0       -6.505193    4.129031   -2.311072
     30          6           0       -6.157345    2.720855   -1.850722
     31          6           0       -5.878814    6.359130   -1.017488
     32          6           0       -6.486092    4.232337   -3.876297
     33          6           0       -6.432011    5.630237   -4.497930
     34          7           0       -5.841895   -0.056220   -0.699004
     35          6           0       -6.664078    0.253306   -1.823197
     36          6           0       -7.236353   -0.939481   -2.350311
     37          6           0       -6.789689   -1.974882   -1.555337
     38          6           0       -5.897579   -1.431115   -0.579657
     39          6           0       -8.324389   -0.968289   -3.368853
     40          6           0       -6.808428   -3.381260   -1.385484
     41          8           0       -7.339726   -4.202213   -2.118380
     42          6           0       -5.844075   -3.771490   -0.145983
     43          6           0       -4.757468   -4.647290   -0.690651
     44          8           0       -4.092707   -4.408557   -1.678225
     45          8           0       -4.651612   -5.809165    0.000579
     46          6           0       -3.755135   -6.864308   -0.519040
     47          6           0        1.796813   -3.365913   -1.252833
     48          6           0        2.905977   -2.544269   -0.692361
     49          6           0        3.524020   -2.790324    0.460248
     50          6           0        2.998655   -3.789318    1.584209
     51          6           0        4.917564   -2.266249    0.777562
     52          6           0        5.164366   -0.802813    0.447245
     53          6           0        5.487080   -0.558520   -0.999959
     54          6           0        6.871736    0.018937   -1.180229
     55          6           0        7.126817    0.183555   -2.730207
     56          6           0        8.069817   -0.704621   -0.392189
     57          6           0        8.785999    0.132385    0.736005
     58          6           0       10.131026    0.769795    0.344841
     59          6           0       11.285010    0.314904    1.270068
     60          6           0       11.056821    0.720967    2.677815
     61          6           0       12.620419    0.825751    0.658766
     62          6           0       13.189859   -0.282767   -0.310564
     63          6           0       13.171381    0.258679   -1.804440
     64          6           0       14.265481    1.296527   -2.060279
     65          6           0       13.769886    2.726005   -2.545613
     66          6           0       15.437995    0.794663   -2.934788
     67          1           0       -1.837912    0.345037    4.006354
     68          1           0       -3.524851    5.413142    0.219372
     69          1           0       -7.550518    1.739546   -3.034112
     70          1           0       -4.313243   -3.591780    2.561720
     71          1           0       -1.980761   -2.262803    3.589267
     72          1           0       -3.981765   -1.006335    4.979995
     73          1           0       -3.184429   -2.534732    5.396067
     74          1           0       -4.758067   -2.499290    4.377394
     75          1           0       -2.806522   -4.792662    1.068595
     76          1           0       -1.722170   -4.372906    2.213232
     77          1           0       -0.878485   -2.427454    1.177290
     78          1           0       -1.927756   -2.527296   -0.206032
     79          1           0       -0.421167    3.650066    4.661350
     80          1           0       -0.566176    1.861048    4.419534
     81          1           0       -1.761382    2.756063    5.355424
     82          1           0       -2.018952    6.609726    0.819740
     83          1           0       -1.665472    7.588619    2.382795
     84          1           0       -3.218875    6.844819    2.127796
     85          1           0       -4.522088    5.203483   -2.318819
     86          1           0       -7.445905    4.521455   -1.924851
     87          1           0       -5.592227    6.255056    0.028851
     88          1           0       -6.933209    6.573697   -1.189648
     89          1           0       -5.149729    7.101800   -1.344225
     90          1           0       -7.326648    3.644340   -4.242389
     91          1           0       -5.526747    3.757818   -4.085074
     92          1           0       -6.440390    6.431734   -3.759672
     93          1           0       -7.319127    5.643848   -5.132251
     94          1           0       -5.587750    5.806443   -5.164437
     95          1           0       -8.761154   -1.955310   -3.515916
     96          1           0       -8.025844   -0.620363   -4.357504
     97          1           0       -9.153503   -0.344019   -3.036401
     98          1           0       -6.414282   -4.213484    0.670964
     99          1           0       -4.374598   -7.756073   -0.618194
    100          1           0       -2.841698   -7.081839    0.033714
    101          1           0       -3.307450   -6.651056   -1.489911
    102          1           0        1.773417   -3.131080   -2.316751
    103          1           0        1.961529   -4.441833   -1.190982
    104          1           0        3.354705   -1.818622   -1.370842
    105          1           0        2.854726   -3.166606    2.467146
    106          1           0        3.752496   -4.524515    1.868804
    107          1           0        2.063923   -4.318181    1.398948
    108          1           0        5.726623   -2.850244    0.339319
    109          1           0        5.091717   -2.263111    1.853666
    110          1           0        5.980446   -0.550112    1.124844
    111          1           0        4.370009   -0.106545    0.717637
    112          1           0        4.893754    0.290769   -1.338433
    113          1           0        5.324279   -1.482406   -1.554575
    114          1           0        6.857229    0.990586   -0.686568
    115          1           0        7.872247   -0.535436   -3.069736
    116          1           0        7.448639    1.195580   -2.973914
    117          1           0        6.221258   -0.018257   -3.302730
    118          1           0        8.842372   -0.819209   -1.152408
    119          1           0        7.812586   -1.668105    0.049037
    120          1           0        8.931785   -0.578908    1.548065
    121          1           0        8.077541    0.902944    1.041273
    122          1           0       10.076209    1.856684    0.403849
    123          1           0       10.240868    0.539136   -0.715410
    124          1           0       11.314228   -0.774937    1.259782
    125          1           0       10.244704    1.437193    2.557928
    126          1           0       11.894626    1.209306    3.175576
    127          1           0       10.731737   -0.152363    3.243624
    128          1           0       13.261599    1.029415    1.515252
    129          1           0       12.483590    1.762966    0.119126
    130          1           0       12.638048   -1.218539   -0.225024
    131          1           0       14.236840   -0.491906   -0.089900
    132          1           0       12.192113    0.689634   -2.011267
    133          1           0       13.301794   -0.677734   -2.347418
    134          1           0       14.723891    1.480886   -1.088587
    135          1           0       12.896354    2.583696   -3.181750
    136          1           0       14.548565    3.271934   -3.079462
    137          1           0       13.623173    3.431798   -1.728599
    138          1           0       16.161249    0.341176   -2.258254
    139          1           0       15.945502    1.609168   -3.451704
    140          1           0       15.183092   -0.048197   -3.576233
 ---------------------------------------------------------------------

 SCF Done:  E(RPBE1PBE) =  -3005.34220779     A.U. after   15 cycles

 Excitation energies and oscillator strengths:

 Excited State   1:      Singlet-A      1.8460 eV  671.63 nm  f=0.3613  <S**2>=0.000
     245 -> 248        0.17714
     246 -> 247        0.69254
     246 <- 247       -0.11030
 This state for optimization and/or second-order correction.
 Total Energy, E(TD-HF/TD-DFT) =  -3005.27436743
 Copying the excited state density for this state as the 1-particle RhoCI density.

 Excited State   2:      Singlet-A      2.2363 eV  554.41 nm  f=0.0732  <S**2>=0.000
     245 -> 247        0.63500
     246 -> 248       -0.29215

 Excited State   3:      Singlet-A      2.8861 eV  429.59 nm  f=0.0015  <S**2>=0.000
     242 -> 247       -0.14085
     243 -> 247        0.62598
     244 -> 247       -0.21522
     246 -> 248       -0.13612

 Excited State   4:      Singlet-A      2.9076 eV  426.42 nm  f=0.0007  <S**2>=0.000
     241 -> 247        0.19262
     242 -> 247        0.62465
     242 -> 249       -0.10940
     243 -> 247        0.17184

 Excited State   5:      Singlet-A      3.1049 eV  399.32 nm  f=0.0151  <S**2>=0.000
     240 -> 247        0.17167
     240 -> 249        0.10623
     241 -> 247        0.60322
     242 -> 247       -0.16484
     246 -> 248       -0.21058

 The electronic state is 1-A.
 Alpha  occ. eigenvalues --  -46.93775 -19.25586 -19.25003 -19.20773 -19.19708
 Alpha  occ. eigenvalues --  -19.19180 -19.19075 -14.41974 -14.41644 -14.40054
 Alpha  occ. eigenvalues --  -14.39339 -10.36796 -10.35960 -10.33281 -10.32001
 Alpha  occ. eigenvalues --  -10.29743 -10.29607 -10.29413 -10.28766 -10.28714
 Alpha  occ. eigenvalues --  -10.28221 -10.28190 -10.28133 -10.27578 -10.27075
 Alpha  occ. eigenvalues --  -10.26749 -10.26565 -10.26282 -10.26259 -10.26224
 Alpha  occ. eigenvalues --  -10.26103 -10.25916 -10.25706 -10.25677 -10.25463
 Alpha  occ. eigenvalues --  -10.25436 -10.24850 -10.24637 -10.24576 -10.24373
 Alpha  occ. eigenvalues --  -10.24309 -10.24295 -10.24174 -10.23993 -10.23346
 Alpha  occ. eigenvalues --  -10.23334 -10.23230 -10.23221 -10.23202 -10.23082
 Alpha  occ. eigenvalues --  -10.23000 -10.22833 -10.22497 -10.22417 -10.22401
 Alpha  occ. eigenvalues --  -10.22211 -10.22127 -10.22110 -10.22040 -10.21923
 Alpha  occ. eigenvalues --  -10.21858 -10.21822 -10.21740 -10.21610 -10.21466
 Alpha  occ. eigenvalues --  -10.21126  -3.15628  -1.88441  -1.88026  -1.87820
 Alpha  occ. eigenvalues --   -1.10992  -1.08604  -1.04432  -1.02600  -1.02008
 Alpha  occ. eigenvalues --   -1.01538  -0.99120  -0.98287  -0.97074  -0.96607
 Alpha  occ. eigenvalues --   -0.86175  -0.84739  -0.83928  -0.83591  -0.83005
 Alpha  occ. eigenvalues --   -0.82741  -0.82103  -0.81895  -0.81381  -0.81303
 Alpha  occ. eigenvalues --   -0.80231  -0.79578  -0.78290  -0.77898  -0.77415
 Alpha  occ. eigenvalues --   -0.76494  -0.76270  -0.75497  -0.75032  -0.74675
 Alpha  occ. eigenvalues --   -0.73769  -0.72553  -0.72172  -0.71831  -0.70473
 Alpha  occ. eigenvalues --   -0.69484  -0.69212  -0.69200  -0.68681  -0.68161
 Alpha  occ. eigenvalues --   -0.67803  -0.67231  -0.66186  -0.64570  -0.63954
 Alpha  occ. eigenvalues --   -0.63242  -0.62134  -0.61525  -0.60830  -0.59878
 Alpha  occ. eigenvalues --   -0.59630  -0.59557  -0.59454  -0.58937  -0.57387
 Alpha  occ. eigenvalues --   -0.57249  -0.56689  -0.56538  -0.56350  -0.54628
 Alpha  occ. eigenvalues --   -0.54237  -0.53438  -0.53215  -0.52923  -0.52356
 Alpha  occ. eigenvalues --   -0.52164  -0.51343  -0.51075  -0.50634  -0.50139
 Alpha  occ. eigenvalues --   -0.49832  -0.49389  -0.49095  -0.48828  -0.48362
 Alpha  occ. eigenvalues --   -0.48158  -0.47819  -0.47639  -0.47503  -0.47333
 Alpha  occ. eigenvalues --   -0.47177  -0.46614  -0.46432  -0.46224  -0.45918
 Alpha  occ. eigenvalues --   -0.45766  -0.45507  -0.45365  -0.45275  -0.45251
 Alpha  occ. eigenvalues --   -0.44944  -0.44665  -0.44498  -0.44221  -0.44018
 Alpha  occ. eigenvalues --   -0.43865  -0.43576  -0.43356  -0.43111  -0.42891
 Alpha  occ. eigenvalues --   -0.42807  -0.42657  -0.42490  -0.42253  -0.42007
 Alpha  occ. eigenvalues --   -0.41963  -0.41682  -0.41370  -0.41282  -0.41209
 Alpha  occ. eigenvalues --   -0.40787  -0.40690  -0.40593  -0.40445  -0.40346
 Alpha  occ. eigenvalues --   -0.40211  -0.40066  -0.39836  -0.39747  -0.39665
 Alpha  occ. eigenvalues --   -0.39554  -0.39318  -0.39122  -0.38984  -0.38737
 Alpha  occ. eigenvalues --   -0.38706  -0.38456  -0.38317  -0.38140  -0.38038
 Alpha  occ. eigenvalues --   -0.37548  -0.37329  -0.37056  -0.36826  -0.36749
 Alpha  occ. eigenvalues --   -0.36516  -0.36411  -0.36312  -0.35880  -0.35767
 Alpha  occ. eigenvalues --   -0.35638  -0.35289  -0.35225  -0.34950  -0.34796
 Alpha  occ. eigenvalues --   -0.34235  -0.34215  -0.33796  -0.33731  -0.33577
 Alpha  occ. eigenvalues --   -0.33528  -0.33215  -0.32476  -0.32323  -0.32263
 Alpha  occ. eigenvalues --   -0.31996  -0.31197  -0.31156  -0.31095  -0.30814
 Alpha  occ. eigenvalues --   -0.30648  -0.30179  -0.29715  -0.29466  -0.29280
 Alpha  occ. eigenvalues --   -0.29119  -0.28902  -0.28803  -0.27327  -0.26235
 Alpha  occ. eigenvalues --   -0.26012  -0.25543  -0.25130  -0.25021  -0.21631
 Alpha  occ. eigenvalues --   -0.19104
 Alpha virt. eigenvalues --   -0.11575  -0.06011  -0.04466  -0.02768  -0.01878
 Alpha virt. eigenvalues --    0.00111   0.00402   0.00841   0.01007   0.02532
 Alpha virt. eigenvalues --    0.04353   0.04618   0.05001   0.06022   0.06162

 Mulliken charges:
               1
     1  Mg   0.938993
     2  C   -0.074891
     3  C   -0.051166
     4  C   -0.043927
     5  C   -0.063759
     6  N   -0.347129
     7  C   -0.002874
     8  C   -0.012611
     9  C   -0.189277
    10  C    0.069554
    11  C    0.033417
    12  C    0.029780
    13  C   -0.065822
    14  C    0.281076
    15  O   -0.287270
    16  O   -0.389464
    17  N   -0.507623
    18  C    0.156030
    19  C   -0.166548
    20  C   -0.082391
    21  C    0.166612
    22  C    0.050343
    23  C    0.064345
    24  O   -0.269972
    25  C   -0.041123
    26  N   -0.354726
    27  C    0.074268
    28  C   -0.165206
    29  C   -0.093956
    30  C    0.075552
    31  C    0.008516
    32  C   -0.073175
    33  C   -0.042920
    34  N   -0.500305
    35  C    0.148723
    36  C   -0.158497
    37  C    0.006589
    38  C    0.181155
    39  C    0.054493
    40  C    0.111645
    41  O   -0.212523
    42  C   -0.079420
    43  C    0.286219
    44  O   -0.241616
    45  O   -0.361969
    46  C    0.103705
    47  C    0.252209
    48  C   -0.160083
    49  C   -0.147151
    50  C   -0.013318
    51  C   -0.000711
    52  C   -0.054109
    53  C   -0.029840
    54  C   -0.205391
    55  C   -0.009013
    56  C   -0.026481
    57  C   -0.060785
    58  C   -0.013596
    59  C   -0.269083
    60  C    0.037388
    61  C    0.019040
    62  C   -0.071913
    63  C   -0.001295
    64  C   -0.243216
    65  C   -0.031023
    66  C   -0.005580
    67  H    0.015027
    68  H   -0.022039
    69  H    0.003939
    70  H    0.032111
    71  H    0.042009
    72  H    0.048922
    73  H    0.052345
    74  H    0.041772
    75  H    0.050340
    76  H    0.029061
    77  H    0.060707
    78  H    0.097470
    79  H    0.068371
    80  H    0.055090
    81  H    0.053161
    82  H    0.097444
    83  H    0.061644
    84  H    0.056192
    85  H    0.058695
    86  H    0.048398
    87  H    0.039566
    88  H    0.064329
    89  H    0.038148
    90  H    0.051333
    91  H    0.044919
    92  H    0.041910
    93  H    0.040684
    94  H    0.046020
    95  H    0.058238
    96  H    0.049839
    97  H    0.050336
    98  H    0.069328
    99  H    0.064683
   100  H    0.067120
   101  H    0.070291
   102  H    0.031742
   103  H    0.067878
   104  H    0.035597
   105  H    0.047491
   106  H    0.048114
   107  H    0.047077
   108  H    0.055752
   109  H    0.017414
   110  H    0.028714
   111  H    0.030370
   112  H    0.040025
   113  H    0.047249
   114  H    0.028600
   115  H    0.036617
   116  H    0.038902
   117  H    0.030445
   118  H    0.019516
   119  H    0.028133
   120  H    0.025963
   121  H    0.033224
   122  H    0.025299
   123  H    0.029731
   124  H    0.028133
   125  H    0.026788
   126  H    0.036331
   127  H    0.038172
   128  H    0.014172
   129  H    0.033025
   130  H    0.032843
   131  H    0.030657
   132  H    0.028283
   133  H    0.026703
   134  H    0.040639
   135  H    0.046830
   136  H    0.022121
   137  H    0.035433
   138  H    0.023038
   139  H    0.036171
   140  H    0.032506
 Sum of Mulliken charges =  -0.00000

 Dipole moment (field-independent basis, Debye):
    X=             -0.9873    Y=              3.6222    Z=              2.2369  Tot=              4.3702
 Quadrupole moment (field-independent basis, Debye-Ang):
   XX=           -378.3000   YY=           -405.6559   ZZ=           -398.5669
   XY=            -46.8595   XZ=             -8.7637   YZ=            -36.2884

 Normal termination of Gaussian 16 at Sat Apr 30 09:19:43 2022.
