 Gaussian 16, Revision A.03,
 Gaussian 16:  ES64L-G16RevA.03 25-Dec-2016

 --------------------------------
 #p wB97XD/Def2SVP td=(nstates=5)
 --------------------------------

 ----------------------------------------------------
 step_701_chromophore_11 TDDFT with wB97XD functional
 ----------------------------------------------------
 Symbolic Z-matrix:
 Charge =  0 Multiplicity = 1

                         Standard orientation:
 ---------------------------------------------------------------------
 Center     Atomic      Atomic             Coordinates (Angstroms)
 Number     Number       Type             X           Y           Z
 ---------------------------------------------------------------------
      1         12           0       -4.880517    1.158986    0.679977
      2          6           0       -5.292606   -2.359045    0.286038
      3          6           0       -2.568627    0.528128    3.214718
      4          6           0       -3.844618    4.375675    0.332085
      5          6           0       -6.879879    1.584004   -2.186682
      6          7           0       -3.870834   -0.779518    1.435400
      7          6           0       -4.303411   -2.014138    1.258993
      8          6           0       -3.516407   -2.970895    2.151878
      9          6           0       -3.017313   -2.071181    3.313564
     10          6           0       -3.142150   -0.612669    2.641806
     11          6           0       -3.813843   -2.035023    4.659903
     12          6           0       -2.384923   -3.883924    1.498966
     13          6           0       -1.446701   -3.127988    0.565372
     14          6           0       -0.277456   -3.886026   -0.113090
     15          8           0       -0.125514   -5.117634   -0.241448
     16          8           0        0.548177   -2.858980   -0.637186
     17          7           0       -3.547776    2.367751    1.825981
     18          6           0       -2.719965    1.888157    2.774407
     19          6           0       -1.964617    3.056434    3.297337
     20          6           0       -2.327748    4.187113    2.500078
     21          6           0       -3.251867    3.715874    1.476899
     22          6           0       -1.095821    2.811120    4.493175
     23          6           0       -1.631720    5.541174    2.699238
     24          8           0       -0.554560    5.633810    3.362900
     25          6           0       -2.159405    6.749945    1.891328
     26          7           0       -5.228639    2.740999   -0.837829
     27          6           0       -4.774787    3.952491   -0.588166
     28          6           0       -5.351352    4.984389   -1.645923
     29          6           0       -6.505193    4.129031   -2.311072
     30          6           0       -6.157345    2.720855   -1.850722
     31          6           0       -5.878814    6.359130   -1.017488
     32          6           0       -6.486092    4.232337   -3.876297
     33          6           0       -6.432011    5.630237   -4.497930
     34          7           0       -5.841895   -0.056220   -0.699004
     35          6           0       -6.664078    0.253306   -1.823197
     36          6           0       -7.236353   -0.939481   -2.350311
     37          6           0       -6.789689   -1.974882   -1.555337
     38          6           0       -5.897579   -1.431115   -0.579657
     39          6           0       -8.324389   -0.968289   -3.368853
     40          6           0       -6.808428   -3.381260   -1.385484
     41          8           0       -7.339726   -4.202213   -2.118380
     42          6           0       -5.844075   -3.771490   -0.145983
     43          6           0       -4.757468   -4.647290   -0.690651
     44          8           0       -4.092707   -4.408557   -1.678225
     45          8           0       -4.651612   -5.809165    0.000579
     46          6           0       -3.755135   -6.864308   -0.519040
     47          6           0        1.796813   -3.365913   -1.252833
     48          6           0        2.905977   -2.544269   -0.692361
     49          6           0        3.524020   -2.790324    0.460248
     50          6           0        2.998655   -3.789318    1.584209
     51          6           0        4.917564   -2.266249    0.777562
     52          6           0        5.164366   -0.802813    0.447245
     53          6           0        5.487080   -0.558520   -0.999959
     54          6           0        6.871736    0.018937   -1.180229
     55          6           0        7.126817    0.183555   -2.730207
     56          6           0        8.069817   -0.704621   -0.392189
     57          6           0        8.785999    0.132385    0.736005
     58          6           0       10.131026    0.769795    0.344841
     59          6           0       11.285010    0.314904    1.270068
     60          6           0       11.056821    0.720967    2.677815
     61          6           0       12.620419    0.825751    0.658766
     62          6           0       13.189859   -0.282767   -0.310564
     63          6           0       13.171381    0.258679   -1.804440
     64          6           0       14.265481    1.296527   -2.060279
     65          6           0       13.769886    2.726005   -2.545613
     66          6           0       15.437995    0.794663   -2.934788
     67          1           0       -1.837912    0.345037    4.006354
     68          1           0       -3.524851    5.413142    0.219372
     69          1           0       -7.550518    1.739546   -3.034112
     70          1           0       -4.313243   -3.591780    2.561720
     71          1           0       -1.980761   -2.262803    3.589267
     72          1           0       -3.981765   -1.006335    4.979995
     73          1           0       -3.184429   -2.534732    5.396067
     74          1           0       -4.758067   -2.499290    4.377394
     75          1           0       -2.806522   -4.792662    1.068595
     76          1           0       -1.722170   -4.372906    2.213232
     77          1           0       -0.878485   -2.427454    1.177290
     78          1           0       -1.927756   -2.527296   -0.206032
     79          1           0       -0.421167    3.650066    4.661350
     80          1           0       -0.566176    1.861048    4.419534
     81          1           0       -1.761382    2.756063    5.355424
     82          1           0       -2.018952    6.609726    0.819740
     83          1           0       -1.665472    7.588619    2.382795
     84          1           0       -3.218875    6.844819    2.127796
     85          1           0       -4.522088    5.203483   -2.318819
     86          1           0       -7.445905    4.521455   -1.924851
     87          1           0       -5.592227    6.255056    0.028851
     88          1           0       -6.933209    6.573697   -1.189648
     89          1           0       -5.149729    7.101800   -1.344225
     90          1           0       -7.326648    3.644340   -4.242389
     91          1           0       -5.526747    3.757818   -4.085074
     92          1           0       -6.440390    6.431734   -3.759672
     93          1           0       -7.319127    5.643848   -5.132251
     94          1           0       -5.587750    5.806443   -5.164437
     95          1           0       -8.761154   -1.955310   -3.515916
     96          1           0       -8.025844   -0.620363   -4.357504
     97          1           0       -9.153503   -0.344019   -3.036401
     98          1           0       -6.414282   -4.213484    0.670964
     99          1           0       -4.374598   -7.756073   -0.618194
    100          1           0       -2.841698   -7.081839    0.033714
    101          1           0       -3.307450   -6.651056   -1.489911
    102          1           0        1.773417   -3.131080   -2.316751
    103          1           0        1.961529   -4.441833   -1.190982
    104          1           0        3.354705   -1.818622   -1.370842
    105          1           0        2.854726   -3.166606    2.467146
    106          1           0        3.752496   -4.524515    1.868804
    107          1           0        2.063923   -4.318181    1.398948
    108          1           0        5.726623   -2.850244    0.339319
    109          1           0        5.091717   -2.263111    1.853666
    110          1           0        5.980446   -0.550112    1.124844
    111          1           0        4.370009   -0.106545    0.717637
    112          1           0        4.893754    0.290769   -1.338433
    113          1           0        5.324279   -1.482406   -1.554575
    114          1           0        6.857229    0.990586   -0.686568
    115          1           0        7.872247   -0.535436   -3.069736
    116          1           0        7.448639    1.195580   -2.973914
    117          1           0        6.221258   -0.018257   -3.302730
    118          1           0        8.842372   -0.819209   -1.152408
    119          1           0        7.812586   -1.668105    0.049037
    120          1           0        8.931785   -0.578908    1.548065
    121          1           0        8.077541    0.902944    1.041273
    122          1           0       10.076209    1.856684    0.403849
    123          1           0       10.240868    0.539136   -0.715410
    124          1           0       11.314228   -0.774937    1.259782
    125          1           0       10.244704    1.437193    2.557928
    126          1           0       11.894626    1.209306    3.175576
    127          1           0       10.731737   -0.152363    3.243624
    128          1           0       13.261599    1.029415    1.515252
    129          1           0       12.483590    1.762966    0.119126
    130          1           0       12.638048   -1.218539   -0.225024
    131          1           0       14.236840   -0.491906   -0.089900
    132          1           0       12.192113    0.689634   -2.011267
    133          1           0       13.301794   -0.677734   -2.347418
    134          1           0       14.723891    1.480886   -1.088587
    135          1           0       12.896354    2.583696   -3.181750
    136          1           0       14.548565    3.271934   -3.079462
    137          1           0       13.623173    3.431798   -1.728599
    138          1           0       16.161249    0.341176   -2.258254
    139          1           0       15.945502    1.609168   -3.451704
    140          1           0       15.183092   -0.048197   -3.576233
 ---------------------------------------------------------------------

 SCF Done:  E(RwB97XD) =  -3007.85673155     A.U. after   19 cycles

 Excitation energies and oscillator strengths:

 Excited State   1:      Singlet-A      1.6221 eV  764.34 nm  f=0.3696  <S**2>=0.000
     245 -> 248       -0.19159
     246 -> 247        0.68255
     245 <- 248       -0.12062
 This state for optimization and/or second-order correction.
 Total Energy, E(TD-HF/TD-DFT) =  -3007.79712045
 Copying the excited state density for this state as the 1-particle RhoCI density.

 Excited State   2:      Singlet-A      2.1721 eV  570.80 nm  f=0.0720  <S**2>=0.000
     245 -> 247        0.61941
     246 -> 248        0.32544

 Excited State   3:      Singlet-A      3.2655 eV  379.68 nm  f=0.0280  <S**2>=0.000
     243 -> 247        0.40328
     244 -> 247        0.49886
     246 -> 248        0.22465

 Excited State   4:      Singlet-A      3.3591 eV  369.10 nm  f=0.1661  <S**2>=0.000
     242 -> 247        0.52086
     242 -> 249        0.11019
     244 -> 247       -0.12475
     245 -> 247       -0.15841
     246 -> 248        0.37061

 Excited State   5:      Singlet-A      3.4847 eV  355.80 nm  f=0.1292  <S**2>=0.000
     241 -> 247        0.51538
     241 -> 249        0.23377
     241 -> 250        0.17928
     241 -> 251       -0.12237
     245 -> 247       -0.13570
     246 -> 248        0.25790

 The electronic state is 1-A.
 Alpha  occ. eigenvalues --  -46.96752 -19.30152 -19.29527 -19.25422 -19.24520
 Alpha  occ. eigenvalues --  -19.23896 -19.23864 -14.46993 -14.46811 -14.45031
 Alpha  occ. eigenvalues --  -14.44231 -10.43589 -10.42795 -10.40104 -10.38842
 Alpha  occ. eigenvalues --  -10.36067 -10.36002 -10.35729 -10.35091 -10.34943
 Alpha  occ. eigenvalues --  -10.34725 -10.34679 -10.34524 -10.33812 -10.33390
 Alpha  occ. eigenvalues --  -10.33152 -10.32800 -10.32688 -10.32537 -10.32479
 Alpha  occ. eigenvalues --  -10.32341 -10.32169 -10.32123 -10.32053 -10.31957
 Alpha  occ. eigenvalues --  -10.31843 -10.31173 -10.31021 -10.31020 -10.30810
 Alpha  occ. eigenvalues --  -10.30772 -10.30716 -10.30602 -10.30376 -10.29790
 Alpha  occ. eigenvalues --  -10.29673 -10.29615 -10.29608 -10.29550 -10.29500
 Alpha  occ. eigenvalues --  -10.29372 -10.29114 -10.28839 -10.28755 -10.28670
 Alpha  occ. eigenvalues --  -10.28564 -10.28485 -10.28478 -10.28403 -10.28277
 Alpha  occ. eigenvalues --  -10.28272 -10.28235 -10.28102 -10.27976 -10.27893
 Alpha  occ. eigenvalues --  -10.27560  -3.22501  -1.96055  -1.95641  -1.95433
 Alpha  occ. eigenvalues --   -1.18391  -1.15990  -1.11894  -1.10121  -1.09382
 Alpha  occ. eigenvalues --   -1.08879  -1.06528  -1.05681  -1.04474  -1.03976
 Alpha  occ. eigenvalues --   -0.93790  -0.92401  -0.91590  -0.91198  -0.90637
 Alpha  occ. eigenvalues --   -0.90372  -0.89751  -0.89517  -0.89037  -0.88893
 Alpha  occ. eigenvalues --   -0.87918  -0.87237  -0.85937  -0.85537  -0.85085
 Alpha  occ. eigenvalues --   -0.84171  -0.83954  -0.83164  -0.82672  -0.82333
 Alpha  occ. eigenvalues --   -0.81435  -0.80183  -0.79799  -0.79484  -0.78105
 Alpha  occ. eigenvalues --   -0.77076  -0.76916  -0.76863  -0.76353  -0.75831
 Alpha  occ. eigenvalues --   -0.75399  -0.74790  -0.73711  -0.72192  -0.71533
 Alpha  occ. eigenvalues --   -0.70735  -0.69789  -0.69110  -0.68461  -0.67352
 Alpha  occ. eigenvalues --   -0.67226  -0.67040  -0.67005  -0.66414  -0.65049
 Alpha  occ. eigenvalues --   -0.64656  -0.64205  -0.64128  -0.63987  -0.62023
 Alpha  occ. eigenvalues --   -0.61664  -0.60942  -0.60635  -0.60386  -0.59752
 Alpha  occ. eigenvalues --   -0.59616  -0.58761  -0.58544  -0.58161  -0.57560
 Alpha  occ. eigenvalues --   -0.57231  -0.56853  -0.56495  -0.56279  -0.55698
 Alpha  occ. eigenvalues --   -0.55557  -0.55172  -0.55024  -0.54966  -0.54594
 Alpha  occ. eigenvalues --   -0.54570  -0.53998  -0.53790  -0.53610  -0.53310
 Alpha  occ. eigenvalues --   -0.53237  -0.52971  -0.52655  -0.52634  -0.52620
 Alpha  occ. eigenvalues --   -0.52302  -0.52039  -0.51779  -0.51558  -0.51337
 Alpha  occ. eigenvalues --   -0.51185  -0.50880  -0.50602  -0.50391  -0.50195
 Alpha  occ. eigenvalues --   -0.50115  -0.49924  -0.49812  -0.49512  -0.49261
 Alpha  occ. eigenvalues --   -0.49243  -0.48905  -0.48605  -0.48515  -0.48445
 Alpha  occ. eigenvalues --   -0.48051  -0.47971  -0.47847  -0.47685  -0.47540
 Alpha  occ. eigenvalues --   -0.47371  -0.47282  -0.47066  -0.46958  -0.46894
 Alpha  occ. eigenvalues --   -0.46725  -0.46516  -0.46201  -0.46142  -0.45934
 Alpha  occ. eigenvalues --   -0.45891  -0.45637  -0.45426  -0.45295  -0.45093
 Alpha  occ. eigenvalues --   -0.44582  -0.44458  -0.44162  -0.43967  -0.43891
 Alpha  occ. eigenvalues --   -0.43667  -0.43498  -0.43370  -0.43058  -0.42751
 Alpha  occ. eigenvalues --   -0.42673  -0.42344  -0.42278  -0.41947  -0.41845
 Alpha  occ. eigenvalues --   -0.41303  -0.41289  -0.40803  -0.40795  -0.40565
 Alpha  occ. eigenvalues --   -0.40455  -0.40222  -0.39478  -0.39355  -0.39248
 Alpha  occ. eigenvalues --   -0.39039  -0.38253  -0.38143  -0.38020  -0.37787
 Alpha  occ. eigenvalues --   -0.37647  -0.37090  -0.36646  -0.36251  -0.36190
 Alpha  occ. eigenvalues --   -0.36053  -0.35852  -0.35794  -0.33912  -0.33359
 Alpha  occ. eigenvalues --   -0.32876  -0.32264  -0.31801  -0.31738  -0.26640
 Alpha  occ. eigenvalues --   -0.23222
 Alpha virt. eigenvalues --   -0.07458  -0.00667   0.01858   0.03726   0.04082
 Alpha virt. eigenvalues --    0.06887   0.07167   0.07672   0.07818   0.09120
 Alpha virt. eigenvalues --    0.10926   0.11441   0.11609   0.12534   0.12915

 Mulliken charges:
               1
     1  Mg   0.934224
     2  C   -0.080127
     3  C   -0.070660
     4  C   -0.050348
     5  C   -0.075022
     6  N   -0.317132
     7  C   -0.039841
     8  C    0.013159
     9  C   -0.168746
    10  C    0.065107
    11  C    0.044902
    12  C    0.050549
    13  C   -0.045203
    14  C    0.268945
    15  O   -0.283641
    16  O   -0.390205
    17  N   -0.477118
    18  C    0.143271
    19  C   -0.155752
    20  C   -0.080546
    21  C    0.160493
    22  C    0.065400
    23  C    0.058639
    24  O   -0.265413
    25  C   -0.026258
    26  N   -0.317899
    27  C    0.060036
    28  C   -0.146538
    29  C   -0.063651
    30  C    0.057842
    31  C    0.022624
    32  C   -0.057027
    33  C   -0.027021
    34  N   -0.468776
    35  C    0.140306
    36  C   -0.151941
    37  C    0.014970
    38  C    0.164463
    39  C    0.061944
    40  C    0.090174
    41  O   -0.203592
    42  C   -0.038471
    43  C    0.258109
    44  O   -0.235313
    45  O   -0.359240
    46  C    0.118440
    47  C    0.266941
    48  C   -0.163781
    49  C   -0.142435
    50  C    0.005214
    51  C    0.020221
    52  C   -0.034010
    53  C   -0.015249
    54  C   -0.175120
    55  C    0.003726
    56  C   -0.006620
    57  C   -0.047608
    58  C    0.009758
    59  C   -0.233715
    60  C    0.047437
    61  C    0.034079
    62  C   -0.051156
    63  C    0.016243
    64  C   -0.216213
    65  C   -0.017230
    66  C    0.007491
    67  H    0.010172
    68  H   -0.037012
    69  H   -0.003366
    70  H    0.020130
    71  H    0.032839
    72  H    0.041687
    73  H    0.047944
    74  H    0.034742
    75  H    0.031978
    76  H    0.022451
    77  H    0.050757
    78  H    0.091077
    79  H    0.064689
    80  H    0.049119
    81  H    0.047201
    82  H    0.093891
    83  H    0.060224
    84  H    0.049353
    85  H    0.048196
    86  H    0.037583
    87  H    0.029642
    88  H    0.060552
    89  H    0.032665
    90  H    0.043138
    91  H    0.035199
    92  H    0.032466
    93  H    0.035261
    94  H    0.041186
    95  H    0.055604
    96  H    0.045407
    97  H    0.044948
    98  H    0.065224
    99  H    0.061369
   100  H    0.064999
   101  H    0.066763
   102  H    0.028246
   103  H    0.063059
   104  H    0.028646
   105  H    0.040674
   106  H    0.042937
   107  H    0.038728
   108  H    0.046177
   109  H    0.010324
   110  H    0.014939
   111  H    0.023784
   112  H    0.030840
   113  H    0.035540
   114  H    0.014344
   115  H    0.030451
   116  H    0.033828
   117  H    0.024664
   118  H    0.006281
   119  H    0.017762
   120  H    0.016436
   121  H    0.023655
   122  H    0.015799
   123  H    0.012533
   124  H    0.013056
   125  H    0.017951
   126  H    0.031555
   127  H    0.033299
   128  H    0.005946
   129  H    0.018384
   130  H    0.024767
   131  H    0.020823
   132  H    0.014669
   133  H    0.019002
   134  H    0.026657
   135  H    0.040755
   136  H    0.015893
   137  H    0.030199
   138  H    0.016450
   139  H    0.030385
   140  H    0.026399
 Sum of Mulliken charges =  -0.00000

 Dipole moment (field-independent basis, Debye):
    X=             -1.0077    Y=              3.7117    Z=              2.3137  Tot=              4.4884
 Quadrupole moment (field-independent basis, Debye-Ang):
   XX=           -378.0964   YY=           -404.5311   ZZ=           -398.2571
   XY=            -46.8436   XZ=             -9.5273   YZ=            -35.7503

 Normal termination of Gaussian 16 at Sat Apr 30 09:55:42 2022.
