 Gaussian 16, Revision A.03,
 Gaussian 16:  ES64L-G16RevA.03 25-Dec-2016

 --------------------
 #p ZINDO=(nstates=5)
 --------------------

 -----------------------------
 step_701_chromophore_11 ZINDO
 -----------------------------
 Symbolic Z-matrix:
 Charge =  0 Multiplicity = 1

                         Standard orientation:
 ---------------------------------------------------------------------
 Center     Atomic      Atomic             Coordinates (Angstroms)
 Number     Number       Type             X           Y           Z
 ---------------------------------------------------------------------
      1         12           0       -4.880517    1.158986    0.679977
      2          6           0       -5.292606   -2.359045    0.286038
      3          6           0       -2.568627    0.528128    3.214718
      4          6           0       -3.844618    4.375675    0.332085
      5          6           0       -6.879879    1.584004   -2.186682
      6          7           0       -3.870834   -0.779518    1.435400
      7          6           0       -4.303411   -2.014138    1.258993
      8          6           0       -3.516407   -2.970895    2.151878
      9          6           0       -3.017313   -2.071181    3.313564
     10          6           0       -3.142150   -0.612669    2.641806
     11          6           0       -3.813843   -2.035023    4.659903
     12          6           0       -2.384923   -3.883924    1.498966
     13          6           0       -1.446701   -3.127988    0.565372
     14          6           0       -0.277456   -3.886026   -0.113090
     15          8           0       -0.125514   -5.117634   -0.241448
     16          8           0        0.548177   -2.858980   -0.637186
     17          7           0       -3.547776    2.367751    1.825981
     18          6           0       -2.719965    1.888157    2.774407
     19          6           0       -1.964617    3.056434    3.297337
     20          6           0       -2.327748    4.187113    2.500078
     21          6           0       -3.251867    3.715874    1.476899
     22          6           0       -1.095821    2.811120    4.493175
     23          6           0       -1.631720    5.541174    2.699238
     24          8           0       -0.554560    5.633810    3.362900
     25          6           0       -2.159405    6.749945    1.891328
     26          7           0       -5.228639    2.740999   -0.837829
     27          6           0       -4.774787    3.952491   -0.588166
     28          6           0       -5.351352    4.984389   -1.645923
     29          6           0       -6.505193    4.129031   -2.311072
     30          6           0       -6.157345    2.720855   -1.850722
     31          6           0       -5.878814    6.359130   -1.017488
     32          6           0       -6.486092    4.232337   -3.876297
     33          6           0       -6.432011    5.630237   -4.497930
     34          7           0       -5.841895   -0.056220   -0.699004
     35          6           0       -6.664078    0.253306   -1.823197
     36          6           0       -7.236353   -0.939481   -2.350311
     37          6           0       -6.789689   -1.974882   -1.555337
     38          6           0       -5.897579   -1.431115   -0.579657
     39          6           0       -8.324389   -0.968289   -3.368853
     40          6           0       -6.808428   -3.381260   -1.385484
     41          8           0       -7.339726   -4.202213   -2.118380
     42          6           0       -5.844075   -3.771490   -0.145983
     43          6           0       -4.757468   -4.647290   -0.690651
     44          8           0       -4.092707   -4.408557   -1.678225
     45          8           0       -4.651612   -5.809165    0.000579
     46          6           0       -3.755135   -6.864308   -0.519040
     47          6           0        1.796813   -3.365913   -1.252833
     48          6           0        2.905977   -2.544269   -0.692361
     49          6           0        3.524020   -2.790324    0.460248
     50          6           0        2.998655   -3.789318    1.584209
     51          6           0        4.917564   -2.266249    0.777562
     52          6           0        5.164366   -0.802813    0.447245
     53          6           0        5.487080   -0.558520   -0.999959
     54          6           0        6.871736    0.018937   -1.180229
     55          6           0        7.126817    0.183555   -2.730207
     56          6           0        8.069817   -0.704621   -0.392189
     57          6           0        8.785999    0.132385    0.736005
     58          6           0       10.131026    0.769795    0.344841
     59          6           0       11.285010    0.314904    1.270068
     60          6           0       11.056821    0.720967    2.677815
     61          6           0       12.620419    0.825751    0.658766
     62          6           0       13.189859   -0.282767   -0.310564
     63          6           0       13.171381    0.258679   -1.804440
     64          6           0       14.265481    1.296527   -2.060279
     65          6           0       13.769886    2.726005   -2.545613
     66          6           0       15.437995    0.794663   -2.934788
     67          1           0       -1.837912    0.345037    4.006354
     68          1           0       -3.524851    5.413142    0.219372
     69          1           0       -7.550518    1.739546   -3.034112
     70          1           0       -4.313243   -3.591780    2.561720
     71          1           0       -1.980761   -2.262803    3.589267
     72          1           0       -3.981765   -1.006335    4.979995
     73          1           0       -3.184429   -2.534732    5.396067
     74          1           0       -4.758067   -2.499290    4.377394
     75          1           0       -2.806522   -4.792662    1.068595
     76          1           0       -1.722170   -4.372906    2.213232
     77          1           0       -0.878485   -2.427454    1.177290
     78          1           0       -1.927756   -2.527296   -0.206032
     79          1           0       -0.421167    3.650066    4.661350
     80          1           0       -0.566176    1.861048    4.419534
     81          1           0       -1.761382    2.756063    5.355424
     82          1           0       -2.018952    6.609726    0.819740
     83          1           0       -1.665472    7.588619    2.382795
     84          1           0       -3.218875    6.844819    2.127796
     85          1           0       -4.522088    5.203483   -2.318819
     86          1           0       -7.445905    4.521455   -1.924851
     87          1           0       -5.592227    6.255056    0.028851
     88          1           0       -6.933209    6.573697   -1.189648
     89          1           0       -5.149729    7.101800   -1.344225
     90          1           0       -7.326648    3.644340   -4.242389
     91          1           0       -5.526747    3.757818   -4.085074
     92          1           0       -6.440390    6.431734   -3.759672
     93          1           0       -7.319127    5.643848   -5.132251
     94          1           0       -5.587750    5.806443   -5.164437
     95          1           0       -8.761154   -1.955310   -3.515916
     96          1           0       -8.025844   -0.620363   -4.357504
     97          1           0       -9.153503   -0.344019   -3.036401
     98          1           0       -6.414282   -4.213484    0.670964
     99          1           0       -4.374598   -7.756073   -0.618194
    100          1           0       -2.841698   -7.081839    0.033714
    101          1           0       -3.307450   -6.651056   -1.489911
    102          1           0        1.773417   -3.131080   -2.316751
    103          1           0        1.961529   -4.441833   -1.190982
    104          1           0        3.354705   -1.818622   -1.370842
    105          1           0        2.854726   -3.166606    2.467146
    106          1           0        3.752496   -4.524515    1.868804
    107          1           0        2.063923   -4.318181    1.398948
    108          1           0        5.726623   -2.850244    0.339319
    109          1           0        5.091717   -2.263111    1.853666
    110          1           0        5.980446   -0.550112    1.124844
    111          1           0        4.370009   -0.106545    0.717637
    112          1           0        4.893754    0.290769   -1.338433
    113          1           0        5.324279   -1.482406   -1.554575
    114          1           0        6.857229    0.990586   -0.686568
    115          1           0        7.872247   -0.535436   -3.069736
    116          1           0        7.448639    1.195580   -2.973914
    117          1           0        6.221258   -0.018257   -3.302730
    118          1           0        8.842372   -0.819209   -1.152408
    119          1           0        7.812586   -1.668105    0.049037
    120          1           0        8.931785   -0.578908    1.548065
    121          1           0        8.077541    0.902944    1.041273
    122          1           0       10.076209    1.856684    0.403849
    123          1           0       10.240868    0.539136   -0.715410
    124          1           0       11.314228   -0.774937    1.259782
    125          1           0       10.244704    1.437193    2.557928
    126          1           0       11.894626    1.209306    3.175576
    127          1           0       10.731737   -0.152363    3.243624
    128          1           0       13.261599    1.029415    1.515252
    129          1           0       12.483590    1.762966    0.119126
    130          1           0       12.638048   -1.218539   -0.225024
    131          1           0       14.236840   -0.491906   -0.089900
    132          1           0       12.192113    0.689634   -2.011267
    133          1           0       13.301794   -0.677734   -2.347418
    134          1           0       14.723891    1.480886   -1.088587
    135          1           0       12.896354    2.583696   -3.181750
    136          1           0       14.548565    3.271934   -3.079462
    137          1           0       13.623173    3.431798   -1.728599
    138          1           0       16.161249    0.341176   -2.258254
    139          1           0       15.945502    1.609168   -3.451704
    140          1           0       15.183092   -0.048197   -3.576233
 ---------------------------------------------------------------------

 SCF Done:  E(RZINDO/S) =  -473.873110060     A.U. after   20 cycles

 Excitation energies and oscillator strengths:

 Excited State   1:      Singlet-A      1.2374 eV 1001.96 nm  f=0.6045  <S**2>=0.000
     175 ->178         0.20292
     176 ->177         0.65980
 This state for optimization and/or second-order correction.
 Total Energy, E(CIS/TDA) =  -473.827636001
 Copying the excited state density for this state as the 1-particle RhoCI density.

 Excited State   2:      Singlet-A      1.9007 eV  652.31 nm  f=0.0184  <S**2>=0.000
     175 ->177         0.52567
     176 ->178        -0.45054

 Excited State   3:      Singlet-A      2.9161 eV  425.17 nm  f=0.2960  <S**2>=0.000
     172 ->177         0.11326
     175 ->177         0.21478
     176 ->178         0.27654
     176 ->179        -0.15906
     176 ->180         0.51273

 Excited State   4:      Singlet-A      2.9259 eV  423.74 nm  f=0.0090  <S**2>=0.000
     169 ->177        -0.10092
     170 ->177         0.29505
     170 ->179        -0.27333
     170 ->181         0.29084
     170 ->185        -0.16472
     170 ->187        -0.10162
     170 ->200        -0.10873
     171 ->177         0.12142
     176 ->179        -0.19490
     176 ->180         0.23935

 Excited State   5:      Singlet-A      2.9741 eV  416.88 nm  f=0.0810  <S**2>=0.000
     168 ->177         0.19687
     168 ->178        -0.13169
     168 ->179         0.34167
     168 ->181         0.29524
     168 ->185         0.15644
     169 ->179         0.13441
     173 ->177         0.13747
     175 ->177         0.10984
     176 ->178         0.13914
     176 ->180        -0.22363

 The electronic state is 1-A.
 Alpha  occ. eigenvalues --   -1.82609  -1.79785  -1.78261  -1.71949  -1.70877
 Alpha  occ. eigenvalues --   -1.69147  -1.66743  -1.62542  -1.57983  -1.55277
 Alpha  occ. eigenvalues --   -1.54532  -1.49559  -1.48050  -1.47197  -1.45675
 Alpha  occ. eigenvalues --   -1.43371  -1.41714  -1.40419  -1.38601  -1.36782
 Alpha  occ. eigenvalues --   -1.35491  -1.33650  -1.31726  -1.30412  -1.28664
 Alpha  occ. eigenvalues --   -1.27498  -1.27166  -1.23481  -1.22518  -1.18223
 Alpha  occ. eigenvalues --   -1.17133  -1.15570  -1.15071  -1.14205  -1.11974
 Alpha  occ. eigenvalues --   -1.11410  -1.10996  -1.09446  -1.05155  -1.03827
 Alpha  occ. eigenvalues --   -1.02889  -1.00583  -0.97933  -0.97220  -0.97130
 Alpha  occ. eigenvalues --   -0.95521  -0.94116  -0.93305  -0.92028  -0.91437
 Alpha  occ. eigenvalues --   -0.90536  -0.89933  -0.87888  -0.87853  -0.86745
 Alpha  occ. eigenvalues --   -0.86232  -0.84070  -0.83457  -0.81242  -0.80318
 Alpha  occ. eigenvalues --   -0.80262  -0.79467  -0.78535  -0.77481  -0.76399
 Alpha  occ. eigenvalues --   -0.76051  -0.75533  -0.75161  -0.75039  -0.74492
 Alpha  occ. eigenvalues --   -0.73565  -0.72488  -0.72101  -0.71355  -0.70881
 Alpha  occ. eigenvalues --   -0.70319  -0.69038  -0.68733  -0.68547  -0.67397
 Alpha  occ. eigenvalues --   -0.66913  -0.66670  -0.66139  -0.65392  -0.65031
 Alpha  occ. eigenvalues --   -0.64406  -0.63868  -0.63663  -0.63513  -0.62978
 Alpha  occ. eigenvalues --   -0.62760  -0.62582  -0.62248  -0.61948  -0.61523
 Alpha  occ. eigenvalues --   -0.61463  -0.60875  -0.60128  -0.59970  -0.59658
 Alpha  occ. eigenvalues --   -0.59112  -0.58631  -0.58411  -0.58024  -0.57918
 Alpha  occ. eigenvalues --   -0.57303  -0.56924  -0.56643  -0.56522  -0.56473
 Alpha  occ. eigenvalues --   -0.56212  -0.55902  -0.55583  -0.55262  -0.54938
 Alpha  occ. eigenvalues --   -0.54431  -0.54358  -0.53749  -0.53438  -0.52959
 Alpha  occ. eigenvalues --   -0.52746  -0.52381  -0.52378  -0.52025  -0.51761
 Alpha  occ. eigenvalues --   -0.51408  -0.51014  -0.50932  -0.50737  -0.50267
 Alpha  occ. eigenvalues --   -0.49982  -0.49492  -0.49280  -0.49085  -0.48744
 Alpha  occ. eigenvalues --   -0.48557  -0.48240  -0.47911  -0.47879  -0.47734
 Alpha  occ. eigenvalues --   -0.47540  -0.47399  -0.46887  -0.46647  -0.46356
 Alpha  occ. eigenvalues --   -0.46226  -0.45688  -0.45309  -0.45124  -0.45098
 Alpha  occ. eigenvalues --   -0.44903  -0.44718  -0.44672  -0.44296  -0.44254
 Alpha  occ. eigenvalues --   -0.43520  -0.42736  -0.42476  -0.42258  -0.41913
 Alpha  occ. eigenvalues --   -0.41814  -0.41556  -0.41208  -0.39423  -0.39044
 Alpha  occ. eigenvalues --   -0.38017  -0.37514  -0.36244  -0.35509  -0.34786
 Alpha  occ. eigenvalues --   -0.33205  -0.33172  -0.32533  -0.32187  -0.27138
 Alpha  occ. eigenvalues --   -0.21986
 Alpha virt. eigenvalues --   -0.08832  -0.02749  -0.00753   0.00413   0.00835
 Alpha virt. eigenvalues --    0.01750   0.02193   0.03099   0.04282   0.04949
 Alpha virt. eigenvalues --    0.05622   0.06752   0.06996   0.07481   0.07846

 Mulliken charges:
               1
     1  Mg   0.434255
     2  C   -0.067870
     3  C   -0.079697
     4  C   -0.074828
     5  C   -0.050391
     6  N   -0.292339
     7  C    0.156398
     8  C    0.011349
     9  C   -0.009862
    10  C    0.114998
    11  C   -0.053939
    12  C   -0.020301
    13  C    0.013461
    14  C    0.461698
    15  O   -0.513013
    16  O   -0.270342
    17  N   -0.321147
    18  C    0.119345
    19  C    0.035948
    20  C   -0.042033
    21  C    0.106431
    22  C   -0.034298
    23  C    0.320130
    24  O   -0.528964
    25  C   -0.033351
    26  N   -0.256977
    27  C    0.140399
    28  C   -0.018760
    29  C    0.001245
    30  C    0.105247
    31  C   -0.067012
    32  C   -0.033533
    33  C   -0.058946
    34  N   -0.347816
    35  C    0.086208
    36  C    0.053709
    37  C   -0.039925
    38  C    0.123167
    39  C   -0.036294
    40  C    0.332963
    41  O   -0.517863
    42  C    0.051692
    43  C    0.496331
    44  O   -0.520330
    45  O   -0.273228
    46  C    0.070119
    47  C    0.105188
    48  C   -0.079151
    49  C   -0.005022
    50  C   -0.051784
    51  C   -0.018670
    52  C   -0.035096
    53  C   -0.027661
    54  C   -0.017865
    55  C   -0.061410
    56  C   -0.050102
    57  C   -0.043875
    58  C   -0.032575
    59  C   -0.007206
    60  C   -0.056603
    61  C   -0.041011
    62  C   -0.044722
    63  C   -0.032618
    64  C   -0.009746
    65  C   -0.063459
    66  C   -0.058269
    67  H    0.037290
    68  H    0.026412
    69  H    0.019114
    70  H    0.018168
    71  H    0.027144
    72  H    0.027000
    73  H    0.027455
    74  H    0.029406
    75  H    0.039892
    76  H    0.023050
    77  H    0.033561
    78  H    0.059378
    79  H    0.041809
    80  H    0.032521
    81  H    0.029933
    82  H    0.054971
    83  H    0.041545
    84  H    0.028580
    85  H    0.036799
    86  H    0.035647
    87  H    0.020453
    88  H    0.040514
    89  H    0.020007
    90  H    0.025768
    91  H    0.020893
    92  H    0.023805
    93  H    0.016261
    94  H    0.022156
    95  H    0.030365
    96  H    0.030578
    97  H    0.024201
    98  H    0.053547
    99  H    0.035460
   100  H    0.044561
   101  H    0.051592
   102  H    0.029289
   103  H    0.061393
   104  H    0.034091
   105  H    0.020377
   106  H    0.025177
   107  H    0.031266
   108  H    0.034488
   109  H    0.007434
   110  H    0.012260
   111  H    0.017522
   112  H    0.017006
   113  H    0.030391
   114  H    0.018787
   115  H    0.019677
   116  H    0.018589
   117  H    0.017039
   118  H    0.014894
   119  H    0.023821
   120  H    0.017410
   121  H    0.018979
   122  H    0.016226
   123  H    0.018876
   124  H    0.016885
   125  H    0.019823
   126  H    0.021459
   127  H    0.018530
   128  H    0.015004
   129  H    0.025053
   130  H    0.023244
   131  H    0.016703
   132  H    0.022647
   133  H    0.016159
   134  H    0.015340
   135  H    0.024741
   136  H    0.014907
   137  H    0.019685
   138  H    0.008698
   139  H    0.024027
   140  H    0.021888
 Sum of Mulliken charges =  -0.00000

 Dipole moment (field-independent basis, Debye):
    X=             -2.2184    Y=              5.3855    Z=              4.5981  Tot=              7.4208
 N-N= 4.390631479846D+03 E-N= 0.000000000000D+00  KE=-9.455441316195D+03
 Leave Link  601 at Sat Apr 30 10:14:01 2022, MaxMem=  6710886400 cpu:               0.7 elap:               0.0
 (Enter /sw/apps/gaussian-16.0/g16/l9999.exe)
 1\1\GINC-BP1-COMPUTE137\SP\RZINDO CIS\STO-3G\C55H74Mg1N4O6\OF15641\30-
 Apr-2022\0\\#p ZINDO=(nstates=5)\\step_701_chromophore_11 ZINDO\\0,1\M
 g,0,53.248,23.547,44.507\C,0,50.671,25.86,43.664\C,0,51.129,20.95,43.5
 41\C,0,55.992,21.547,44.399\C,0,55.383,26.303,44.999\N,0,51.193,23.511
 ,43.447\C,0,50.325,24.503,43.376\C,0,48.989,23.985,42.848\C,0,49.001,2
 2.478,43.218\C,0,50.578,22.232,43.434\C,0,48.271,21.995,44.515\C,0,48.
 587,24.284,41.335\C,0,49.703,24.005,40.335\C,0,49.439,24.22,38.823\O,0

 Normal termination of Gaussian 16 at Sat Apr 30 10:14:01 2022.
