 Gaussian 16, Revision A.03,
 Gaussian 16:  ES64L-G16RevA.03 25-Dec-2016

 ------------------------------
 #p blyp/Def2SVP td=(nstates=5)
 ------------------------------

 --------------------------------------------------
 step_551_chromophore_19 TDDFT with blyp functional
 --------------------------------------------------
 Symbolic Z-matrix:
 Charge =  0 Multiplicity = 1

                         Standard orientation:
 ---------------------------------------------------------------------
 Center     Atomic      Atomic             Coordinates (Angstroms)
 Number     Number       Type             X           Y           Z
 ---------------------------------------------------------------------
      1         12           0       -5.811084    0.371422   -0.276044
      2          6           0       -3.409781   -2.127596   -0.386837
      3          6           0       -3.304157    2.640986    0.268713
      4          6           0       -8.320683    2.751389    0.498314
      5          6           0       -8.439138   -2.099010   -0.258465
      6          7           0       -3.638275    0.151665   -0.056610
      7          6           0       -2.791235   -0.885951   -0.234019
      8          6           0       -1.296957   -0.487211   -0.256602
      9          6           0       -1.401286    1.027986    0.200054
     10          6           0       -2.856796    1.298841    0.183945
     11          6           0       -0.548940    1.399015    1.509971
     12          6           0       -0.564409   -0.912696   -1.535646
     13          6           0        0.997876   -0.658572   -1.595774
     14          6           0        2.035783   -1.596195   -1.006805
     15          8           0        1.883545   -2.786681   -0.793295
     16          8           0        3.090441   -0.886726   -0.623942
     17          7           0       -5.860869    2.340344    0.208852
     18          6           0       -4.670389    3.101405    0.305178
     19          6           0       -5.060473    4.471475    0.533474
     20          6           0       -6.435018    4.552965    0.646948
     21          6           0       -6.970601    3.114048    0.492813
     22          6           0       -3.953740    5.592221    0.717346
     23          6           0       -7.266005    5.846323    0.837238
     24          8           0       -8.432078    5.830104    1.143703
     25          6           0       -6.657273    7.166994    0.550759
     26          7           0       -8.139888    0.356563   -0.063830
     27          6           0       -8.827980    1.451675    0.192916
     28          6           0      -10.341413    1.142756    0.200958
     29          6           0      -10.413241   -0.405025   -0.058282
     30          6           0       -8.927029   -0.765235   -0.185415
     31          6           0      -10.964124    1.576169    1.566114
     32          6           0      -11.243693   -0.807964   -1.355854
     33          6           0      -12.494619   -1.441818   -1.012149
     34          7           0       -5.984364   -1.680673   -0.396042
     35          6           0       -7.105275   -2.533723   -0.361431
     36          6           0       -6.603329   -3.894933   -0.476048
     37          6           0       -5.235717   -3.789848   -0.453019
     38          6           0       -4.864858   -2.435495   -0.422550
     39          6           0       -7.402400   -5.138776   -0.620161
     40          6           0       -3.956111   -4.487368   -0.474010
     41          8           0       -3.791990   -5.655933   -0.328720
     42          6           0       -2.766413   -3.486932   -0.557474
     43          6           0       -1.865282   -3.863646    0.559833
     44          8           0       -2.234801   -3.722438    1.755488
     45          8           0       -0.764954   -4.491407    0.113697
     46          6           0        0.072779   -5.076532    1.207344
     47          6           0        4.174943   -1.592665    0.106987
     48          6           0        5.532714   -1.114781   -0.348592
     49          6           0        6.141594    0.060563   -0.099708
     50          6           0        5.439965    1.306976    0.478544
     51          6           0        7.626457    0.232857   -0.387118
     52          6           0        8.101382    1.425735   -1.216124
     53          6           0        9.063122    0.951115   -2.344191
     54          6           0        9.962032    1.984846   -2.930315
     55          6           0        9.302464    2.880360   -3.988866
     56          6           0       11.354351    1.490893   -3.364176
     57          6           0       12.506234    1.867550   -2.351424
     58          6           0       13.266187    0.590353   -1.840591
     59          6           0       13.615877    0.670060   -0.329813
     60          6           0       14.976882    0.019654    0.021072
     61          6           0       12.532716    0.214125    0.586469
     62          6           0       12.361719    0.892601    1.956847
     63          6           0       12.581563   -0.078995    3.175372
     64          6           0       11.208468   -0.748424    3.456280
     65          6           0       10.589363   -0.094380    4.709753
     66          6           0       11.322618   -2.303037    3.632406
     67          1           0       -2.482713    3.323711    0.495479
     68          1           0       -9.119244    3.458934    0.730908
     69          1           0       -9.204169   -2.861681   -0.419716
     70          1           0       -0.903863   -1.065566    0.579179
     71          1           0       -1.110999    1.540595   -0.716361
     72          1           0       -0.123621    0.511341    1.978774
     73          1           0       -1.164694    2.030235    2.150552
     74          1           0        0.354411    1.956930    1.259174
     75          1           0       -1.010575   -0.582113   -2.473010
     76          1           0       -0.499801   -1.999771   -1.484384
     77          1           0        1.142089    0.279106   -1.059737
     78          1           0        1.334871   -0.572817   -2.629491
     79          1           0       -2.974072    5.147711    0.893216
     80          1           0       -4.212309    6.168336    1.605468
     81          1           0       -3.828140    6.277969   -0.119649
     82          1           0       -6.308260    6.982471   -0.466144
     83          1           0       -5.879079    7.423132    1.269182
     84          1           0       -7.411425    7.948566    0.641995
     85          1           0      -10.950154    1.653898   -0.545164
     86          1           0      -10.801357   -0.890578    0.837097
     87          1           0      -10.202227    2.094478    2.147848
     88          1           0      -11.371072    0.709087    2.088341
     89          1           0      -11.722785    2.308205    1.290675
     90          1           0      -10.641340   -1.553659   -1.874887
     91          1           0      -11.380448    0.047715   -2.016546
     92          1           0      -13.255564   -0.939317   -1.609094
     93          1           0      -12.759896   -1.313533    0.036916
     94          1           0      -12.382159   -2.520047   -1.123328
     95          1           0       -6.662894   -5.898008   -0.875539
     96          1           0       -8.110576   -4.919113   -1.419233
     97          1           0       -8.044796   -5.384398    0.226896
     98          1           0       -2.231074   -3.575025   -1.502503
     99          1           0        0.286297   -6.051810    0.769532
    100          1           0       -0.420011   -5.178599    2.173883
    101          1           0        0.984215   -4.480642    1.167122
    102          1           0        4.194067   -2.655827   -0.135459
    103          1           0        4.107254   -1.393530    1.176273
    104          1           0        6.168019   -1.854473   -0.834414
    105          1           0        5.538824    2.234391   -0.086548
    106          1           0        5.978626    1.560474    1.391392
    107          1           0        4.380640    1.127315    0.660880
    108          1           0        8.094231   -0.701884   -0.696420
    109          1           0        8.168389    0.312715    0.555917
    110          1           0        8.594570    2.162964   -0.582640
    111          1           0        7.242810    1.866965   -1.720934
    112          1           0        8.524432    0.456501   -3.152398
    113          1           0        9.708409    0.187515   -1.909576
    114          1           0       10.095782    2.696402   -2.115337
    115          1           0        8.531855    2.329978   -4.527886
    116          1           0        9.985144    3.117376   -4.804061
    117          1           0        8.813058    3.790767   -3.643343
    118          1           0       11.644113    1.839756   -4.355797
    119          1           0       11.202101    0.420613   -3.501720
    120          1           0       12.188663    2.504309   -1.525110
    121          1           0       13.282526    2.386253   -2.912789
    122          1           0       14.128634    0.426357   -2.487465
    123          1           0       12.619850   -0.285271   -1.898003
    124          1           0       13.839564    1.685628   -0.003533
    125          1           0       14.777079   -0.861759    0.630554
    126          1           0       15.605200    0.679068    0.620807
    127          1           0       15.425889   -0.302480   -0.918511
    128          1           0       12.513178   -0.855705    0.796299
    129          1           0       11.540510    0.466975    0.210844
    130          1           0       11.344265    1.279716    2.016756
    131          1           0       12.978612    1.778410    2.112240
    132          1           0       12.838566    0.587326    3.999502
    133          1           0       13.402420   -0.780556    3.026432
    134          1           0       10.381749   -0.567970    2.768125
    135          1           0       10.244976    0.923140    4.526164
    136          1           0       11.187828   -0.055928    5.620468
    137          1           0        9.834053   -0.718649    5.188265
    138          1           0       12.185081   -2.676177    3.079983
    139          1           0       10.475781   -2.864962    3.237618
    140          1           0       11.543812   -2.619955    4.651322
 ---------------------------------------------------------------------

 SCF Done:  E(RB-LYP) =  -3007.37120418     A.U. after   22 cycles

 Excitation energies and oscillator strengths:

 Excited State   1:      Singlet-A      1.8124 eV  684.09 nm  f=0.2725  <S**2>=0.000
     245 -> 248        0.21039
     246 -> 247        0.68433
     246 <- 247       -0.13988
 This state for optimization and/or second-order correction.
 Total Energy, E(TD-HF/TD-DFT) =  -3007.30459979
 Copying the excited state density for this state as the 1-particle RhoCI density.

 Excited State   2:      Singlet-A      1.9528 eV  634.89 nm  f=0.0080  <S**2>=0.000
     244 -> 247        0.65420
     245 -> 247        0.25623

 Excited State   3:      Singlet-A      2.0555 eV  603.19 nm  f=0.0011  <S**2>=0.000
     243 -> 247        0.70366

 Excited State   4:      Singlet-A      2.0911 eV  592.91 nm  f=0.0560  <S**2>=0.000
     244 -> 247       -0.26067
     245 -> 247        0.57586
     246 -> 248       -0.28904

 Excited State   5:      Singlet-A      2.4995 eV  496.03 nm  f=0.0006  <S**2>=0.000
     241 -> 247        0.60371
     242 -> 247       -0.35636

 The electronic state is 1-A.
 Alpha  occ. eigenvalues --  -46.26859 -18.83060 -18.81780 -18.76997 -18.75283
 Alpha  occ. eigenvalues --  -18.74748 -18.74736 -14.03120 -14.02313 -14.01577
 Alpha  occ. eigenvalues --  -14.00251 -10.04529 -10.02458  -9.99480  -9.98805
 Alpha  occ. eigenvalues --   -9.98587  -9.96433  -9.96432  -9.96377  -9.96213
 Alpha  occ. eigenvalues --   -9.96089  -9.95834  -9.95783  -9.94855  -9.94559
 Alpha  occ. eigenvalues --   -9.94409  -9.94233  -9.94160  -9.94021  -9.93863
 Alpha  occ. eigenvalues --   -9.93522  -9.93503  -9.93328  -9.93265  -9.93229
 Alpha  occ. eigenvalues --   -9.93039  -9.92995  -9.92918  -9.92759  -9.92755
 Alpha  occ. eigenvalues --   -9.92623  -9.92608  -9.92598  -9.92481  -9.92472
 Alpha  occ. eigenvalues --   -9.92283  -9.92254  -9.91850  -9.91817  -9.91675
 Alpha  occ. eigenvalues --   -9.91582  -9.91550  -9.91541  -9.91536  -9.91520
 Alpha  occ. eigenvalues --   -9.91440  -9.91418  -9.91417  -9.91411  -9.91141
 Alpha  occ. eigenvalues --   -9.90975  -9.90943  -9.90920  -9.90759  -9.90720
 Alpha  occ. eigenvalues --   -9.89766  -2.91435  -1.71861  -1.71338  -1.71131
 Alpha  occ. eigenvalues --   -0.99514  -0.96582  -0.92408  -0.92252  -0.90525
 Alpha  occ. eigenvalues --   -0.87108  -0.85754  -0.85445  -0.84421  -0.83641
 Alpha  occ. eigenvalues --   -0.74351  -0.74155  -0.73482  -0.72913  -0.72478
 Alpha  occ. eigenvalues --   -0.72163  -0.71261  -0.71155  -0.70536  -0.69775
 Alpha  occ. eigenvalues --   -0.69554  -0.69354  -0.68181  -0.67674  -0.67194
 Alpha  occ. eigenvalues --   -0.66500  -0.65793  -0.65380  -0.64799  -0.64453
 Alpha  occ. eigenvalues --   -0.63975  -0.62755  -0.61772  -0.61309  -0.61193
 Alpha  occ. eigenvalues --   -0.60435  -0.60363  -0.59790  -0.59601  -0.59147
 Alpha  occ. eigenvalues --   -0.59032  -0.57440  -0.57104  -0.55855  -0.54254
 Alpha  occ. eigenvalues --   -0.53335  -0.53119  -0.52684  -0.52044  -0.51510
 Alpha  occ. eigenvalues --   -0.51055  -0.50717  -0.50426  -0.50217  -0.50073
 Alpha  occ. eigenvalues --   -0.49967  -0.49604  -0.49059  -0.47284  -0.46362
 Alpha  occ. eigenvalues --   -0.45982  -0.45556  -0.45407  -0.44807  -0.44537
 Alpha  occ. eigenvalues --   -0.43577  -0.43398  -0.42989  -0.42634  -0.42454
 Alpha  occ. eigenvalues --   -0.42086  -0.41832  -0.41527  -0.41389  -0.41258
 Alpha  occ. eigenvalues --   -0.40906  -0.40716  -0.40539  -0.40356  -0.40033
 Alpha  occ. eigenvalues --   -0.39955  -0.39653  -0.39493  -0.39433  -0.39351
 Alpha  occ. eigenvalues --   -0.39104  -0.38888  -0.38600  -0.38254  -0.38130
 Alpha  occ. eigenvalues --   -0.37699  -0.37600  -0.37594  -0.37393  -0.37335
 Alpha  occ. eigenvalues --   -0.37234  -0.36877  -0.36833  -0.36594  -0.36351
 Alpha  occ. eigenvalues --   -0.36171  -0.36052  -0.35840  -0.35645  -0.35534
 Alpha  occ. eigenvalues --   -0.35166  -0.35147  -0.34897  -0.34779  -0.34419
 Alpha  occ. eigenvalues --   -0.34380  -0.34133  -0.34033  -0.33979  -0.33815
 Alpha  occ. eigenvalues --   -0.33606  -0.33586  -0.33298  -0.33182  -0.33067
 Alpha  occ. eigenvalues --   -0.32864  -0.32823  -0.32669  -0.32364  -0.32288
 Alpha  occ. eigenvalues --   -0.32112  -0.31715  -0.31631  -0.31580  -0.31312
 Alpha  occ. eigenvalues --   -0.31189  -0.31105  -0.31012  -0.30843  -0.30559
 Alpha  occ. eigenvalues --   -0.30386  -0.30310  -0.30110  -0.30037  -0.29755
 Alpha  occ. eigenvalues --   -0.29696  -0.29514  -0.29310  -0.29101  -0.29070
 Alpha  occ. eigenvalues --   -0.28972  -0.28724  -0.28058  -0.27930  -0.27843
 Alpha  occ. eigenvalues --   -0.27703  -0.27447  -0.26996  -0.26403  -0.26387
 Alpha  occ. eigenvalues --   -0.26033  -0.25960  -0.25892  -0.25721  -0.25719
 Alpha  occ. eigenvalues --   -0.25393  -0.24853  -0.24072  -0.23597  -0.23279
 Alpha  occ. eigenvalues --   -0.22475  -0.22465  -0.21770  -0.21341  -0.20679
 Alpha  occ. eigenvalues --   -0.20036  -0.19937  -0.18309  -0.17999  -0.16800
 Alpha  occ. eigenvalues --   -0.15253
 Alpha virt. eigenvalues --   -0.10853  -0.06647  -0.04823  -0.03825  -0.03713
 Alpha virt. eigenvalues --   -0.02722  -0.02087  -0.01492  -0.01030   0.00339
 Alpha virt. eigenvalues --    0.00467   0.01582   0.01770   0.02374   0.02888

 Mulliken charges:
               1
     1  Mg   0.698684
     2  C    0.013040
     3  C   -0.085317
     4  C   -0.042785
     5  C   -0.060353
     6  N   -0.235998
     7  C   -0.102465
     8  C    0.060283
     9  C    0.033097
    10  C    0.006824
    11  C    0.132121
    12  C    0.137037
    13  C    0.084353
    14  C    0.056138
    15  O   -0.188754
    16  O   -0.246216
    17  N   -0.350258
    18  C    0.186539
    19  C   -0.135308
    20  C   -0.005895
    21  C    0.150130
    22  C    0.157678
    23  C   -0.092910
    24  O   -0.147334
    25  C    0.155392
    26  N   -0.143608
    27  C   -0.007786
    28  C   -0.031687
    29  C    0.027773
    30  C   -0.023416
    31  C    0.114631
    32  C    0.097847
    33  C    0.091194
    34  N   -0.289275
    35  C    0.126137
    36  C   -0.214944
    37  C    0.143178
    38  C    0.052303
    39  C    0.187094
    40  C   -0.097140
    41  O   -0.103670
    42  C    0.100305
    43  C    0.096665
    44  O   -0.237118
    45  O   -0.243442
    46  C    0.205028
    47  C    0.336782
    48  C   -0.148259
    49  C   -0.102422
    50  C    0.134649
    51  C    0.125352
    52  C    0.085127
    53  C    0.073644
    54  C   -0.069970
    55  C    0.103589
    56  C    0.120887
    57  C    0.076517
    58  C    0.106204
    59  C   -0.068661
    60  C    0.111267
    61  C    0.116704
    62  C    0.027679
    63  C    0.124132
    64  C   -0.063407
    65  C    0.072122
    66  C    0.090510
    67  H   -0.058428
    68  H   -0.037956
    69  H   -0.063720
    70  H   -0.020895
    71  H   -0.023961
    72  H    0.003272
    73  H    0.006725
    74  H   -0.010640
    75  H   -0.023621
    76  H    0.007956
    77  H   -0.010534
    78  H    0.009096
    79  H   -0.020428
    80  H    0.001109
    81  H    0.003698
    82  H    0.011461
    83  H    0.002298
    84  H   -0.008361
    85  H   -0.019353
    86  H   -0.021776
    87  H    0.004588
    88  H   -0.007367
    89  H   -0.009214
    90  H   -0.027734
    91  H   -0.022714
    92  H   -0.008963
    93  H   -0.019213
    94  H   -0.008445
    95  H    0.014715
    96  H   -0.012804
    97  H   -0.001362
    98  H   -0.004639
    99  H    0.013768
   100  H    0.040547
   101  H    0.023279
   102  H    0.005629
   103  H    0.010829
   104  H   -0.035723
   105  H    0.000881
   106  H   -0.013933
   107  H   -0.001613
   108  H   -0.040627
   109  H   -0.022864
   110  H   -0.028736
   111  H   -0.014409
   112  H   -0.029210
   113  H   -0.031553
   114  H   -0.047267
   115  H   -0.037510
   116  H   -0.027039
   117  H   -0.012565
   118  H   -0.042356
   119  H   -0.034883
   120  H   -0.011738
   121  H   -0.028849
   122  H   -0.030975
   123  H   -0.026975
   124  H   -0.045211
   125  H   -0.028479
   126  H   -0.009946
   127  H   -0.023029
   128  H   -0.030953
   129  H   -0.046452
   130  H   -0.038972
   131  H   -0.043104
   132  H   -0.034962
   133  H   -0.021544
   134  H   -0.020220
   135  H   -0.015067
   136  H   -0.030136
   137  H   -0.030480
   138  H   -0.028001
   139  H   -0.015252
   140  H   -0.017323
 Sum of Mulliken charges =  -0.00000

 Dipole moment (field-independent basis, Debye):
    X=              5.1901    Y=              4.4907    Z=             -2.2023  Tot=              7.2079
 Quadrupole moment (field-independent basis, Debye-Ang):
   XX=           -377.2408   YY=           -430.3058   ZZ=           -406.0317
   XY=              9.7926   XZ=             19.4886   YZ=             -1.8803

 Normal termination of Gaussian 16 at Sat Apr 30 04:04:18 2022.
