 Gaussian 16, Revision A.03,
 Gaussian 16:  ES64L-G16RevA.03 25-Dec-2016

 -----------------------------------
 #p cam-b3lyp/Def2SVP td=(nstates=5)
 -----------------------------------

 -------------------------------------------------------
 step_551_chromophore_19 TDDFT with cam-b3lyp functional
 -------------------------------------------------------
 Symbolic Z-matrix:
 Charge =  0 Multiplicity = 1

                         Standard orientation:
 ---------------------------------------------------------------------
 Center     Atomic      Atomic             Coordinates (Angstroms)
 Number     Number       Type             X           Y           Z
 ---------------------------------------------------------------------
      1         12           0       -5.811084    0.371422   -0.276044
      2          6           0       -3.409781   -2.127596   -0.386837
      3          6           0       -3.304157    2.640986    0.268713
      4          6           0       -8.320683    2.751389    0.498314
      5          6           0       -8.439138   -2.099010   -0.258465
      6          7           0       -3.638275    0.151665   -0.056610
      7          6           0       -2.791235   -0.885951   -0.234019
      8          6           0       -1.296957   -0.487211   -0.256602
      9          6           0       -1.401286    1.027986    0.200054
     10          6           0       -2.856796    1.298841    0.183945
     11          6           0       -0.548940    1.399015    1.509971
     12          6           0       -0.564409   -0.912696   -1.535646
     13          6           0        0.997876   -0.658572   -1.595774
     14          6           0        2.035783   -1.596195   -1.006805
     15          8           0        1.883545   -2.786681   -0.793295
     16          8           0        3.090441   -0.886726   -0.623942
     17          7           0       -5.860869    2.340344    0.208852
     18          6           0       -4.670389    3.101405    0.305178
     19          6           0       -5.060473    4.471475    0.533474
     20          6           0       -6.435018    4.552965    0.646948
     21          6           0       -6.970601    3.114048    0.492813
     22          6           0       -3.953740    5.592221    0.717346
     23          6           0       -7.266005    5.846323    0.837238
     24          8           0       -8.432078    5.830104    1.143703
     25          6           0       -6.657273    7.166994    0.550759
     26          7           0       -8.139888    0.356563   -0.063830
     27          6           0       -8.827980    1.451675    0.192916
     28          6           0      -10.341413    1.142756    0.200958
     29          6           0      -10.413241   -0.405025   -0.058282
     30          6           0       -8.927029   -0.765235   -0.185415
     31          6           0      -10.964124    1.576169    1.566114
     32          6           0      -11.243693   -0.807964   -1.355854
     33          6           0      -12.494619   -1.441818   -1.012149
     34          7           0       -5.984364   -1.680673   -0.396042
     35          6           0       -7.105275   -2.533723   -0.361431
     36          6           0       -6.603329   -3.894933   -0.476048
     37          6           0       -5.235717   -3.789848   -0.453019
     38          6           0       -4.864858   -2.435495   -0.422550
     39          6           0       -7.402400   -5.138776   -0.620161
     40          6           0       -3.956111   -4.487368   -0.474010
     41          8           0       -3.791990   -5.655933   -0.328720
     42          6           0       -2.766413   -3.486932   -0.557474
     43          6           0       -1.865282   -3.863646    0.559833
     44          8           0       -2.234801   -3.722438    1.755488
     45          8           0       -0.764954   -4.491407    0.113697
     46          6           0        0.072779   -5.076532    1.207344
     47          6           0        4.174943   -1.592665    0.106987
     48          6           0        5.532714   -1.114781   -0.348592
     49          6           0        6.141594    0.060563   -0.099708
     50          6           0        5.439965    1.306976    0.478544
     51          6           0        7.626457    0.232857   -0.387118
     52          6           0        8.101382    1.425735   -1.216124
     53          6           0        9.063122    0.951115   -2.344191
     54          6           0        9.962032    1.984846   -2.930315
     55          6           0        9.302464    2.880360   -3.988866
     56          6           0       11.354351    1.490893   -3.364176
     57          6           0       12.506234    1.867550   -2.351424
     58          6           0       13.266187    0.590353   -1.840591
     59          6           0       13.615877    0.670060   -0.329813
     60          6           0       14.976882    0.019654    0.021072
     61          6           0       12.532716    0.214125    0.586469
     62          6           0       12.361719    0.892601    1.956847
     63          6           0       12.581563   -0.078995    3.175372
     64          6           0       11.208468   -0.748424    3.456280
     65          6           0       10.589363   -0.094380    4.709753
     66          6           0       11.322618   -2.303037    3.632406
     67          1           0       -2.482713    3.323711    0.495479
     68          1           0       -9.119244    3.458934    0.730908
     69          1           0       -9.204169   -2.861681   -0.419716
     70          1           0       -0.903863   -1.065566    0.579179
     71          1           0       -1.110999    1.540595   -0.716361
     72          1           0       -0.123621    0.511341    1.978774
     73          1           0       -1.164694    2.030235    2.150552
     74          1           0        0.354411    1.956930    1.259174
     75          1           0       -1.010575   -0.582113   -2.473010
     76          1           0       -0.499801   -1.999771   -1.484384
     77          1           0        1.142089    0.279106   -1.059737
     78          1           0        1.334871   -0.572817   -2.629491
     79          1           0       -2.974072    5.147711    0.893216
     80          1           0       -4.212309    6.168336    1.605468
     81          1           0       -3.828140    6.277969   -0.119649
     82          1           0       -6.308260    6.982471   -0.466144
     83          1           0       -5.879079    7.423132    1.269182
     84          1           0       -7.411425    7.948566    0.641995
     85          1           0      -10.950154    1.653898   -0.545164
     86          1           0      -10.801357   -0.890578    0.837097
     87          1           0      -10.202227    2.094478    2.147848
     88          1           0      -11.371072    0.709087    2.088341
     89          1           0      -11.722785    2.308205    1.290675
     90          1           0      -10.641340   -1.553659   -1.874887
     91          1           0      -11.380448    0.047715   -2.016546
     92          1           0      -13.255564   -0.939317   -1.609094
     93          1           0      -12.759896   -1.313533    0.036916
     94          1           0      -12.382159   -2.520047   -1.123328
     95          1           0       -6.662894   -5.898008   -0.875539
     96          1           0       -8.110576   -4.919113   -1.419233
     97          1           0       -8.044796   -5.384398    0.226896
     98          1           0       -2.231074   -3.575025   -1.502503
     99          1           0        0.286297   -6.051810    0.769532
    100          1           0       -0.420011   -5.178599    2.173883
    101          1           0        0.984215   -4.480642    1.167122
    102          1           0        4.194067   -2.655827   -0.135459
    103          1           0        4.107254   -1.393530    1.176273
    104          1           0        6.168019   -1.854473   -0.834414
    105          1           0        5.538824    2.234391   -0.086548
    106          1           0        5.978626    1.560474    1.391392
    107          1           0        4.380640    1.127315    0.660880
    108          1           0        8.094231   -0.701884   -0.696420
    109          1           0        8.168389    0.312715    0.555917
    110          1           0        8.594570    2.162964   -0.582640
    111          1           0        7.242810    1.866965   -1.720934
    112          1           0        8.524432    0.456501   -3.152398
    113          1           0        9.708409    0.187515   -1.909576
    114          1           0       10.095782    2.696402   -2.115337
    115          1           0        8.531855    2.329978   -4.527886
    116          1           0        9.985144    3.117376   -4.804061
    117          1           0        8.813058    3.790767   -3.643343
    118          1           0       11.644113    1.839756   -4.355797
    119          1           0       11.202101    0.420613   -3.501720
    120          1           0       12.188663    2.504309   -1.525110
    121          1           0       13.282526    2.386253   -2.912789
    122          1           0       14.128634    0.426357   -2.487465
    123          1           0       12.619850   -0.285271   -1.898003
    124          1           0       13.839564    1.685628   -0.003533
    125          1           0       14.777079   -0.861759    0.630554
    126          1           0       15.605200    0.679068    0.620807
    127          1           0       15.425889   -0.302480   -0.918511
    128          1           0       12.513178   -0.855705    0.796299
    129          1           0       11.540510    0.466975    0.210844
    130          1           0       11.344265    1.279716    2.016756
    131          1           0       12.978612    1.778410    2.112240
    132          1           0       12.838566    0.587326    3.999502
    133          1           0       13.402420   -0.780556    3.026432
    134          1           0       10.381749   -0.567970    2.768125
    135          1           0       10.244976    0.923140    4.526164
    136          1           0       11.187828   -0.055928    5.620468
    137          1           0        9.834053   -0.718649    5.188265
    138          1           0       12.185081   -2.676177    3.079983
    139          1           0       10.475781   -2.864962    3.237618
    140          1           0       11.543812   -2.619955    4.651322
 ---------------------------------------------------------------------

 SCF Done:  E(RCAM-B3LYP) =  -3007.16618966     A.U. after   19 cycles

 Excitation energies and oscillator strengths:

 Excited State   1:      Singlet-A      1.7170 eV  722.11 nm  f=0.3433  <S**2>=0.000
     245 -> 248        0.18611
     246 -> 247        0.68322
     245 <- 248        0.10986
 This state for optimization and/or second-order correction.
 Total Energy, E(TD-HF/TD-DFT) =  -3007.10309239
 Copying the excited state density for this state as the 1-particle RhoCI density.

 Excited State   2:      Singlet-A      2.2710 eV  545.94 nm  f=0.0819  <S**2>=0.000
     245 -> 247        0.61671
     246 -> 248       -0.33528

 Excited State   3:      Singlet-A      3.4757 eV  356.72 nm  f=0.5396  <S**2>=0.000
     244 -> 247        0.40464
     245 -> 247        0.25897
     246 -> 248        0.51027

 Excited State   4:      Singlet-A      3.5430 eV  349.94 nm  f=0.3814  <S**2>=0.000
     239 -> 247       -0.10526
     242 -> 247       -0.22017
     244 -> 247        0.52229
     245 -> 247       -0.19845
     246 -> 248       -0.33592

 Excited State   5:      Singlet-A      3.6897 eV  336.03 nm  f=0.0211  <S**2>=0.000
     241 -> 247        0.16451
     241 -> 249       -0.10401
     242 -> 247        0.26998
     243 -> 247        0.51209
     243 -> 249        0.18110
     243 -> 252        0.20088

 The electronic state is 1-A.
 Alpha  occ. eigenvalues --  -46.88404 -19.25960 -19.24571 -19.19857 -19.18847
 Alpha  occ. eigenvalues --  -19.17617 -19.17562 -14.41927 -14.41217 -14.40277
 Alpha  occ. eigenvalues --  -14.38476 -10.39694 -10.37738 -10.34936 -10.33479
 Alpha  occ. eigenvalues --  -10.32979 -10.31244 -10.31217 -10.31027 -10.30467
 Alpha  occ. eigenvalues --  -10.30379 -10.30327 -10.29925 -10.28617 -10.28595
 Alpha  occ. eigenvalues --  -10.28494 -10.28492 -10.28422 -10.28157 -10.27982
 Alpha  occ. eigenvalues --  -10.27780 -10.27557 -10.27548 -10.27444 -10.27377
 Alpha  occ. eigenvalues --  -10.27367 -10.26879 -10.26865 -10.26816 -10.26688
 Alpha  occ. eigenvalues --  -10.26656 -10.26587 -10.26481 -10.26455 -10.26296
 Alpha  occ. eigenvalues --  -10.26164 -10.26150 -10.25947 -10.25518 -10.25393
 Alpha  occ. eigenvalues --  -10.25230 -10.25211 -10.25176 -10.25158 -10.25124
 Alpha  occ. eigenvalues --  -10.25117 -10.25108 -10.25076 -10.25000 -10.24756
 Alpha  occ. eigenvalues --  -10.24558 -10.24536 -10.24447 -10.24341 -10.24304
 Alpha  occ. eigenvalues --  -10.23414  -3.16883  -1.91785  -1.91338  -1.91182
 Alpha  occ. eigenvalues --   -1.17977  -1.14893  -1.11043  -1.10589  -1.08343
 Alpha  occ. eigenvalues --   -1.04840  -1.03441  -1.03106  -1.01781  -1.01331
 Alpha  occ. eigenvalues --   -0.91222  -0.91043  -0.90288  -0.89638  -0.89188
 Alpha  occ. eigenvalues --   -0.88791  -0.87954  -0.87810  -0.87174  -0.86509
 Alpha  occ. eigenvalues --   -0.85847  -0.85746  -0.84519  -0.83814  -0.83323
 Alpha  occ. eigenvalues --   -0.82589  -0.82031  -0.81449  -0.80646  -0.80216
 Alpha  occ. eigenvalues --   -0.79754  -0.78339  -0.77626  -0.76773  -0.76546
 Alpha  occ. eigenvalues --   -0.75798  -0.75723  -0.75083  -0.74811  -0.74352
 Alpha  occ. eigenvalues --   -0.74180  -0.72350  -0.72073  -0.70652  -0.68821
 Alpha  occ. eigenvalues --   -0.67912  -0.67540  -0.67060  -0.66456  -0.65733
 Alpha  occ. eigenvalues --   -0.65136  -0.64847  -0.64463  -0.64139  -0.63962
 Alpha  occ. eigenvalues --   -0.63921  -0.63570  -0.62938  -0.60890  -0.59807
 Alpha  occ. eigenvalues --   -0.59567  -0.59047  -0.59026  -0.58201  -0.57942
 Alpha  occ. eigenvalues --   -0.57021  -0.56725  -0.56213  -0.55802  -0.55434
 Alpha  occ. eigenvalues --   -0.55209  -0.54910  -0.54587  -0.54203  -0.53970
 Alpha  occ. eigenvalues --   -0.53843  -0.53327  -0.53301  -0.53254  -0.53082
 Alpha  occ. eigenvalues --   -0.52508  -0.52375  -0.52249  -0.52076  -0.51791
 Alpha  occ. eigenvalues --   -0.51711  -0.51473  -0.51159  -0.50630  -0.50545
 Alpha  occ. eigenvalues --   -0.50175  -0.49944  -0.49840  -0.49712  -0.49601
 Alpha  occ. eigenvalues --   -0.49437  -0.49410  -0.49096  -0.49012  -0.48934
 Alpha  occ. eigenvalues --   -0.48550  -0.48177  -0.48041  -0.47897  -0.47686
 Alpha  occ. eigenvalues --   -0.47343  -0.47264  -0.47017  -0.46931  -0.46385
 Alpha  occ. eigenvalues --   -0.46130  -0.46049  -0.45905  -0.45755  -0.45647
 Alpha  occ. eigenvalues --   -0.45348  -0.45272  -0.44884  -0.44793  -0.44728
 Alpha  occ. eigenvalues --   -0.44581  -0.44366  -0.44305  -0.44203  -0.43922
 Alpha  occ. eigenvalues --   -0.43755  -0.43468  -0.43205  -0.42983  -0.42784
 Alpha  occ. eigenvalues --   -0.42639  -0.42597  -0.42467  -0.42219  -0.42123
 Alpha  occ. eigenvalues --   -0.41843  -0.41806  -0.41602  -0.41407  -0.41159
 Alpha  occ. eigenvalues --   -0.41013  -0.40774  -0.40607  -0.40527  -0.40343
 Alpha  occ. eigenvalues --   -0.40127  -0.39698  -0.38946  -0.38939  -0.38719
 Alpha  occ. eigenvalues --   -0.38541  -0.38476  -0.37723  -0.37304  -0.37169
 Alpha  occ. eigenvalues --   -0.37125  -0.37101  -0.36622  -0.36536  -0.36335
 Alpha  occ. eigenvalues --   -0.36212  -0.35365  -0.34940  -0.34448  -0.34233
 Alpha  occ. eigenvalues --   -0.33579  -0.32606  -0.32223  -0.31477  -0.31129
 Alpha  occ. eigenvalues --   -0.30799  -0.30038  -0.29692  -0.28962  -0.23562
 Alpha  occ. eigenvalues --   -0.20491
 Alpha virt. eigenvalues --   -0.07837  -0.01621   0.01745   0.02911   0.03396
 Alpha virt. eigenvalues --    0.03603   0.05130   0.06212   0.06321   0.06561
 Alpha virt. eigenvalues --    0.06890   0.08089   0.08538   0.08803   0.09199

 Mulliken charges:
               1
     1  Mg   0.829012
     2  C   -0.010152
     3  C   -0.104225
     4  C   -0.061009
     5  C   -0.058735
     6  N   -0.307551
     7  C   -0.064248
     8  C    0.022576
     9  C   -0.037675
    10  C    0.038142
    11  C    0.075590
    12  C    0.078952
    13  C    0.019851
    14  C    0.138269
    15  O   -0.233046
    16  O   -0.310723
    17  N   -0.440015
    18  C    0.201051
    19  C   -0.149263
    20  C   -0.068228
    21  C    0.178583
    22  C    0.108164
    23  C   -0.011463
    24  O   -0.185649
    25  C    0.070622
    26  N   -0.211138
    27  C    0.012383
    28  C   -0.079644
    29  C   -0.027787
    30  C   -0.008865
    31  C    0.055438
    32  C    0.042360
    33  C    0.026465
    34  N   -0.377727
    35  C    0.124375
    36  C   -0.207213
    37  C    0.056144
    38  C    0.087571
    39  C    0.132468
    40  C    0.003072
    41  O   -0.143678
    42  C    0.020650
    43  C    0.183036
    44  O   -0.277212
    45  O   -0.305847
    46  C    0.166976
    47  C    0.301497
    48  C   -0.173144
    49  C   -0.121360
    50  C    0.076492
    51  C    0.069056
    52  C    0.027561
    53  C    0.025999
    54  C   -0.128982
    55  C    0.047534
    56  C    0.065813
    57  C    0.020023
    58  C    0.057000
    59  C   -0.128537
    60  C    0.056944
    61  C    0.065740
    62  C   -0.019732
    63  C    0.064664
    64  C   -0.126753
    65  C    0.016601
    66  C    0.033897
    67  H   -0.025660
    68  H    0.003931
    69  H   -0.029549
    70  H    0.013612
    71  H    0.012259
    72  H    0.029003
    73  H    0.031039
    74  H    0.013264
    75  H    0.009098
    76  H    0.036520
    77  H    0.019366
    78  H    0.041191
    79  H    0.008711
    80  H    0.026078
    81  H    0.031454
    82  H    0.037603
    83  H    0.030413
    84  H    0.028459
    85  H    0.014209
    86  H    0.011758
    87  H    0.029556
    88  H    0.017233
    89  H    0.014857
    90  H    0.002744
    91  H    0.005336
    92  H    0.015157
    93  H    0.003801
    94  H    0.014903
    95  H    0.040800
    96  H    0.010165
    97  H    0.024032
    98  H    0.038543
    99  H    0.037120
   100  H    0.067087
   101  H    0.044449
   102  H    0.039638
   103  H    0.037583
   104  H   -0.003085
   105  H    0.025216
   106  H    0.010274
   107  H    0.022758
   108  H   -0.008501
   109  H    0.004192
   110  H   -0.000067
   111  H    0.012055
   112  H   -0.001250
   113  H   -0.006881
   114  H   -0.015702
   115  H   -0.013454
   116  H   -0.001735
   117  H    0.011357
   118  H   -0.011133
   119  H   -0.006304
   120  H    0.013853
   121  H    0.000702
   122  H   -0.001902
   123  H   -0.001203
   124  H   -0.012619
   125  H   -0.006295
   126  H    0.013670
   127  H    0.001680
   128  H   -0.004798
   129  H   -0.021065
   130  H   -0.012148
   131  H   -0.013637
   132  H   -0.003702
   133  H    0.005345
   134  H    0.007946
   135  H    0.008561
   136  H   -0.005839
   137  H   -0.004229
   138  H   -0.004985
   139  H    0.009724
   140  H    0.006470
 Sum of Mulliken charges =  -0.00000

 Dipole moment (field-independent basis, Debye):
    X=              5.3013    Y=              5.7714    Z=             -2.1252  Tot=              8.1197
 Quadrupole moment (field-independent basis, Debye-Ang):
   XX=           -376.3786   YY=           -425.5245   ZZ=           -405.6935
   XY=              2.6550   XZ=             20.1623   YZ=             -1.3065

 Normal termination of Gaussian 16 at Sat Apr 30 02:48:44 2022.
