 Gaussian 16, Revision A.03,
 Gaussian 16:  ES64L-G16RevA.03 25-Dec-2016

 ---------------------------------
 #p PBE1PBE/Def2SVP td=(nstates=5)
 ---------------------------------

 -----------------------------------------------------
 step_551_chromophore_19 TDDFT with PBE1PBE functional
 -----------------------------------------------------
 Symbolic Z-matrix:
 Charge =  0 Multiplicity = 1

                         Standard orientation:
 ---------------------------------------------------------------------
 Center     Atomic      Atomic             Coordinates (Angstroms)
 Number     Number       Type             X           Y           Z
 ---------------------------------------------------------------------
      1         12           0       -5.811084    0.371422   -0.276044
      2          6           0       -3.409781   -2.127596   -0.386837
      3          6           0       -3.304157    2.640986    0.268713
      4          6           0       -8.320683    2.751389    0.498314
      5          6           0       -8.439138   -2.099010   -0.258465
      6          7           0       -3.638275    0.151665   -0.056610
      7          6           0       -2.791235   -0.885951   -0.234019
      8          6           0       -1.296957   -0.487211   -0.256602
      9          6           0       -1.401286    1.027986    0.200054
     10          6           0       -2.856796    1.298841    0.183945
     11          6           0       -0.548940    1.399015    1.509971
     12          6           0       -0.564409   -0.912696   -1.535646
     13          6           0        0.997876   -0.658572   -1.595774
     14          6           0        2.035783   -1.596195   -1.006805
     15          8           0        1.883545   -2.786681   -0.793295
     16          8           0        3.090441   -0.886726   -0.623942
     17          7           0       -5.860869    2.340344    0.208852
     18          6           0       -4.670389    3.101405    0.305178
     19          6           0       -5.060473    4.471475    0.533474
     20          6           0       -6.435018    4.552965    0.646948
     21          6           0       -6.970601    3.114048    0.492813
     22          6           0       -3.953740    5.592221    0.717346
     23          6           0       -7.266005    5.846323    0.837238
     24          8           0       -8.432078    5.830104    1.143703
     25          6           0       -6.657273    7.166994    0.550759
     26          7           0       -8.139888    0.356563   -0.063830
     27          6           0       -8.827980    1.451675    0.192916
     28          6           0      -10.341413    1.142756    0.200958
     29          6           0      -10.413241   -0.405025   -0.058282
     30          6           0       -8.927029   -0.765235   -0.185415
     31          6           0      -10.964124    1.576169    1.566114
     32          6           0      -11.243693   -0.807964   -1.355854
     33          6           0      -12.494619   -1.441818   -1.012149
     34          7           0       -5.984364   -1.680673   -0.396042
     35          6           0       -7.105275   -2.533723   -0.361431
     36          6           0       -6.603329   -3.894933   -0.476048
     37          6           0       -5.235717   -3.789848   -0.453019
     38          6           0       -4.864858   -2.435495   -0.422550
     39          6           0       -7.402400   -5.138776   -0.620161
     40          6           0       -3.956111   -4.487368   -0.474010
     41          8           0       -3.791990   -5.655933   -0.328720
     42          6           0       -2.766413   -3.486932   -0.557474
     43          6           0       -1.865282   -3.863646    0.559833
     44          8           0       -2.234801   -3.722438    1.755488
     45          8           0       -0.764954   -4.491407    0.113697
     46          6           0        0.072779   -5.076532    1.207344
     47          6           0        4.174943   -1.592665    0.106987
     48          6           0        5.532714   -1.114781   -0.348592
     49          6           0        6.141594    0.060563   -0.099708
     50          6           0        5.439965    1.306976    0.478544
     51          6           0        7.626457    0.232857   -0.387118
     52          6           0        8.101382    1.425735   -1.216124
     53          6           0        9.063122    0.951115   -2.344191
     54          6           0        9.962032    1.984846   -2.930315
     55          6           0        9.302464    2.880360   -3.988866
     56          6           0       11.354351    1.490893   -3.364176
     57          6           0       12.506234    1.867550   -2.351424
     58          6           0       13.266187    0.590353   -1.840591
     59          6           0       13.615877    0.670060   -0.329813
     60          6           0       14.976882    0.019654    0.021072
     61          6           0       12.532716    0.214125    0.586469
     62          6           0       12.361719    0.892601    1.956847
     63          6           0       12.581563   -0.078995    3.175372
     64          6           0       11.208468   -0.748424    3.456280
     65          6           0       10.589363   -0.094380    4.709753
     66          6           0       11.322618   -2.303037    3.632406
     67          1           0       -2.482713    3.323711    0.495479
     68          1           0       -9.119244    3.458934    0.730908
     69          1           0       -9.204169   -2.861681   -0.419716
     70          1           0       -0.903863   -1.065566    0.579179
     71          1           0       -1.110999    1.540595   -0.716361
     72          1           0       -0.123621    0.511341    1.978774
     73          1           0       -1.164694    2.030235    2.150552
     74          1           0        0.354411    1.956930    1.259174
     75          1           0       -1.010575   -0.582113   -2.473010
     76          1           0       -0.499801   -1.999771   -1.484384
     77          1           0        1.142089    0.279106   -1.059737
     78          1           0        1.334871   -0.572817   -2.629491
     79          1           0       -2.974072    5.147711    0.893216
     80          1           0       -4.212309    6.168336    1.605468
     81          1           0       -3.828140    6.277969   -0.119649
     82          1           0       -6.308260    6.982471   -0.466144
     83          1           0       -5.879079    7.423132    1.269182
     84          1           0       -7.411425    7.948566    0.641995
     85          1           0      -10.950154    1.653898   -0.545164
     86          1           0      -10.801357   -0.890578    0.837097
     87          1           0      -10.202227    2.094478    2.147848
     88          1           0      -11.371072    0.709087    2.088341
     89          1           0      -11.722785    2.308205    1.290675
     90          1           0      -10.641340   -1.553659   -1.874887
     91          1           0      -11.380448    0.047715   -2.016546
     92          1           0      -13.255564   -0.939317   -1.609094
     93          1           0      -12.759896   -1.313533    0.036916
     94          1           0      -12.382159   -2.520047   -1.123328
     95          1           0       -6.662894   -5.898008   -0.875539
     96          1           0       -8.110576   -4.919113   -1.419233
     97          1           0       -8.044796   -5.384398    0.226896
     98          1           0       -2.231074   -3.575025   -1.502503
     99          1           0        0.286297   -6.051810    0.769532
    100          1           0       -0.420011   -5.178599    2.173883
    101          1           0        0.984215   -4.480642    1.167122
    102          1           0        4.194067   -2.655827   -0.135459
    103          1           0        4.107254   -1.393530    1.176273
    104          1           0        6.168019   -1.854473   -0.834414
    105          1           0        5.538824    2.234391   -0.086548
    106          1           0        5.978626    1.560474    1.391392
    107          1           0        4.380640    1.127315    0.660880
    108          1           0        8.094231   -0.701884   -0.696420
    109          1           0        8.168389    0.312715    0.555917
    110          1           0        8.594570    2.162964   -0.582640
    111          1           0        7.242810    1.866965   -1.720934
    112          1           0        8.524432    0.456501   -3.152398
    113          1           0        9.708409    0.187515   -1.909576
    114          1           0       10.095782    2.696402   -2.115337
    115          1           0        8.531855    2.329978   -4.527886
    116          1           0        9.985144    3.117376   -4.804061
    117          1           0        8.813058    3.790767   -3.643343
    118          1           0       11.644113    1.839756   -4.355797
    119          1           0       11.202101    0.420613   -3.501720
    120          1           0       12.188663    2.504309   -1.525110
    121          1           0       13.282526    2.386253   -2.912789
    122          1           0       14.128634    0.426357   -2.487465
    123          1           0       12.619850   -0.285271   -1.898003
    124          1           0       13.839564    1.685628   -0.003533
    125          1           0       14.777079   -0.861759    0.630554
    126          1           0       15.605200    0.679068    0.620807
    127          1           0       15.425889   -0.302480   -0.918511
    128          1           0       12.513178   -0.855705    0.796299
    129          1           0       11.540510    0.466975    0.210844
    130          1           0       11.344265    1.279716    2.016756
    131          1           0       12.978612    1.778410    2.112240
    132          1           0       12.838566    0.587326    3.999502
    133          1           0       13.402420   -0.780556    3.026432
    134          1           0       10.381749   -0.567970    2.768125
    135          1           0       10.244976    0.923140    4.526164
    136          1           0       11.187828   -0.055928    5.620468
    137          1           0        9.834053   -0.718649    5.188265
    138          1           0       12.185081   -2.676177    3.079983
    139          1           0       10.475781   -2.864962    3.237618
    140          1           0       11.543812   -2.619955    4.651322
 ---------------------------------------------------------------------

 SCF Done:  E(RPBE1PBE) =  -3005.35350569     A.U. after   16 cycles

 Excitation energies and oscillator strengths:

 Excited State   1:      Singlet-A      1.8609 eV  666.24 nm  f=0.3337  <S**2>=0.000
     245 -> 248        0.18390
     246 -> 247        0.68896
 This state for optimization and/or second-order correction.
 Total Energy, E(TD-HF/TD-DFT) =  -3005.28511737
 Copying the excited state density for this state as the 1-particle RhoCI density.

 Excited State   2:      Singlet-A      2.2828 eV  543.12 nm  f=0.0858  <S**2>=0.000
     245 -> 247        0.63042
     246 -> 248       -0.31024

 Excited State   3:      Singlet-A      3.0402 eV  407.81 nm  f=0.0023  <S**2>=0.000
     243 -> 247       -0.17474
     244 -> 247        0.66068

 Excited State   4:      Singlet-A      3.1602 eV  392.33 nm  f=0.0015  <S**2>=0.000
     242 -> 247       -0.21745
     243 -> 247        0.63528
     244 -> 247        0.16658

 Excited State   5:      Singlet-A      3.1860 eV  389.15 nm  f=0.0018  <S**2>=0.000
     241 -> 247       -0.18146
     242 -> 247        0.62033
     242 -> 249       -0.13109
     243 -> 247        0.20089

 The electronic state is 1-A.
 Alpha  occ. eigenvalues --  -46.91811 -19.26624 -19.25322 -19.20136 -19.18798
 Alpha  occ. eigenvalues --  -19.18027 -19.17969 -14.41518 -14.40646 -14.39831
 Alpha  occ. eigenvalues --  -14.38270 -10.36686 -10.34872 -10.31839 -10.30842
 Alpha  occ. eigenvalues --  -10.30367 -10.28732 -10.28721 -10.28394 -10.28356
 Alpha  occ. eigenvalues --  -10.27964 -10.27914 -10.27643 -10.26691 -10.26431
 Alpha  occ. eigenvalues --  -10.26248 -10.26116 -10.26101 -10.25903 -10.25512
 Alpha  occ. eigenvalues --  -10.25431 -10.25379 -10.25094 -10.24970 -10.24816
 Alpha  occ. eigenvalues --  -10.24808 -10.24802 -10.24668 -10.24487 -10.24450
 Alpha  occ. eigenvalues --  -10.24401 -10.24181 -10.24094 -10.24063 -10.23882
 Alpha  occ. eigenvalues --  -10.23731 -10.23709 -10.23090 -10.23079 -10.23055
 Alpha  occ. eigenvalues --  -10.22894 -10.22859 -10.22810 -10.22734 -10.22691
 Alpha  occ. eigenvalues --  -10.22673 -10.22667 -10.22605 -10.22604 -10.22156
 Alpha  occ. eigenvalues --  -10.22083 -10.21938 -10.21893 -10.21736 -10.21693
 Alpha  occ. eigenvalues --  -10.21397  -3.13871  -1.86714  -1.86244  -1.86093
 Alpha  occ. eigenvalues --   -1.12798  -1.09779  -1.05559  -1.05557  -1.03203
 Alpha  occ. eigenvalues --   -0.99743  -0.98056  -0.97716  -0.96566  -0.95852
 Alpha  occ. eigenvalues --   -0.85519  -0.85359  -0.84389  -0.83819  -0.83379
 Alpha  occ. eigenvalues --   -0.83088  -0.82197  -0.81924  -0.81444  -0.80682
 Alpha  occ. eigenvalues --   -0.80224  -0.80059  -0.78710  -0.78147  -0.77559
 Alpha  occ. eigenvalues --   -0.76845  -0.76148  -0.75603  -0.74961  -0.74427
 Alpha  occ. eigenvalues --   -0.74076  -0.72613  -0.71790  -0.71154  -0.70727
 Alpha  occ. eigenvalues --   -0.70092  -0.69880  -0.69211  -0.69020  -0.68706
 Alpha  occ. eigenvalues --   -0.68480  -0.66813  -0.66463  -0.65079  -0.63092
 Alpha  occ. eigenvalues --   -0.62275  -0.61922  -0.61349  -0.60912  -0.59979
 Alpha  occ. eigenvalues --   -0.59609  -0.59244  -0.58771  -0.58616  -0.58465
 Alpha  occ. eigenvalues --   -0.58131  -0.58107  -0.57103  -0.55553  -0.54204
 Alpha  occ. eigenvalues --   -0.54099  -0.53586  -0.53525  -0.52650  -0.52456
 Alpha  occ. eigenvalues --   -0.51563  -0.51247  -0.50849  -0.50280  -0.49987
 Alpha  occ. eigenvalues --   -0.49810  -0.49408  -0.49112  -0.48808  -0.48451
 Alpha  occ. eigenvalues --   -0.48385  -0.47859  -0.47785  -0.47557  -0.47458
 Alpha  occ. eigenvalues --   -0.47105  -0.46976  -0.46870  -0.46593  -0.46323
 Alpha  occ. eigenvalues --   -0.46285  -0.46075  -0.45734  -0.45323  -0.45115
 Alpha  occ. eigenvalues --   -0.44740  -0.44494  -0.44439  -0.44288  -0.44127
 Alpha  occ. eigenvalues --   -0.43991  -0.43917  -0.43655  -0.43540  -0.43479
 Alpha  occ. eigenvalues --   -0.43264  -0.42843  -0.42701  -0.42544  -0.42299
 Alpha  occ. eigenvalues --   -0.41983  -0.41907  -0.41577  -0.41527  -0.41065
 Alpha  occ. eigenvalues --   -0.40816  -0.40683  -0.40642  -0.40484  -0.40333
 Alpha  occ. eigenvalues --   -0.40116  -0.40026  -0.39650  -0.39602  -0.39470
 Alpha  occ. eigenvalues --   -0.39289  -0.39134  -0.39027  -0.38997  -0.38608
 Alpha  occ. eigenvalues --   -0.38414  -0.38291  -0.37982  -0.37691  -0.37632
 Alpha  occ. eigenvalues --   -0.37516  -0.37472  -0.37245  -0.37093  -0.36812
 Alpha  occ. eigenvalues --   -0.36710  -0.36562  -0.36477  -0.36230  -0.36089
 Alpha  occ. eigenvalues --   -0.35812  -0.35574  -0.35506  -0.35453  -0.35227
 Alpha  occ. eigenvalues --   -0.34927  -0.34516  -0.33913  -0.33700  -0.33508
 Alpha  occ. eigenvalues --   -0.33470  -0.33353  -0.32592  -0.32294  -0.32151
 Alpha  occ. eigenvalues --   -0.32128  -0.31910  -0.31641  -0.31423  -0.31296
 Alpha  occ. eigenvalues --   -0.31129  -0.30284  -0.29930  -0.29425  -0.29103
 Alpha  occ. eigenvalues --   -0.28820  -0.28144  -0.27173  -0.26785  -0.26457
 Alpha  occ. eigenvalues --   -0.25706  -0.25307  -0.24938  -0.24604  -0.20476
 Alpha  occ. eigenvalues --   -0.18141
 Alpha virt. eigenvalues --   -0.10370  -0.05067  -0.02422  -0.01011  -0.00913
 Alpha virt. eigenvalues --    0.00113   0.00669   0.01576   0.01912   0.03043
 Alpha virt. eigenvalues --    0.03361   0.04548   0.04674   0.05046   0.05846

 Mulliken charges:
               1
     1  Mg   0.974901
     2  C   -0.018070
     3  C   -0.089840
     4  C   -0.050818
     5  C   -0.051070
     6  N   -0.407120
     7  C    0.004500
     8  C   -0.032586
     9  C   -0.120864
    10  C    0.072436
    11  C    0.015242
    12  C    0.012574
    13  C   -0.052981
    14  C    0.208691
    15  O   -0.268769
    16  O   -0.341428
    17  N   -0.555451
    18  C    0.215055
    19  C   -0.171321
    20  C   -0.121684
    21  C    0.208873
    22  C    0.048766
    23  C    0.040871
    24  O   -0.224298
    25  C   -0.006226
    26  N   -0.317067
    27  C    0.052625
    28  C   -0.149966
    29  C   -0.106378
    30  C    0.036085
    31  C   -0.002379
    32  C   -0.016647
    33  C   -0.044898
    34  N   -0.507143
    35  C    0.148157
    36  C   -0.225668
    37  C   -0.006771
    38  C    0.149019
    39  C    0.076180
    40  C    0.111309
    41  O   -0.187526
    42  C   -0.098204
    43  C    0.275411
    44  O   -0.308278
    45  O   -0.338620
    46  C    0.111156
    47  C    0.251945
    48  C   -0.182014
    49  C   -0.166312
    50  C    0.017428
    51  C    0.011037
    52  C   -0.038163
    53  C   -0.030838
    54  C   -0.216145
    55  C   -0.007582
    56  C    0.012429
    57  C   -0.045251
    58  C    0.000483
    59  C   -0.216270
    60  C    0.000738
    61  C    0.007913
    62  C   -0.078793
    63  C    0.005354
    64  C   -0.224290
    65  C   -0.039997
    66  C   -0.023949
    67  H    0.006367
    68  H    0.034464
    69  H    0.001549
    70  H    0.055181
    71  H    0.051637
    72  H    0.054523
    73  H    0.057684
    74  H    0.039643
    75  H    0.041115
    76  H    0.074457
    77  H    0.053873
    78  H    0.073138
    79  H    0.035647
    80  H    0.053378
    81  H    0.057465
    82  H    0.064788
    83  H    0.056321
    84  H    0.055336
    85  H    0.050155
    86  H    0.048260
    87  H    0.058296
    88  H    0.043907
    89  H    0.042388
    90  H    0.036835
    91  H    0.037189
    92  H    0.043058
    93  H    0.031998
    94  H    0.042085
    95  H    0.069168
    96  H    0.039140
    97  H    0.052853
    98  H    0.074783
    99  H    0.059419
   100  H    0.087216
   101  H    0.068212
   102  H    0.065172
   103  H    0.063921
   104  H    0.026371
   105  H    0.051490
   106  H    0.038402
   107  H    0.050160
   108  H    0.021288
   109  H    0.039896
   110  H    0.030741
   111  H    0.046051
   112  H    0.031647
   113  H    0.028099
   114  H    0.024904
   115  H    0.014339
   116  H    0.025572
   117  H    0.037902
   118  H    0.020740
   119  H    0.025594
   120  H    0.043746
   121  H    0.034834
   122  H    0.029170
   123  H    0.031910
   124  H    0.026745
   125  H    0.021293
   126  H    0.040218
   127  H    0.029200
   128  H    0.028705
   129  H    0.017090
   130  H    0.020647
   131  H    0.017800
   132  H    0.029614
   133  H    0.036975
   134  H    0.046309
   135  H    0.036379
   136  H    0.021544
   137  H    0.023760
   138  H    0.022085
   139  H    0.037066
   140  H    0.033588
 Sum of Mulliken charges =  -0.00000

 Dipole moment (field-independent basis, Debye):
    X=              5.2869    Y=              5.1862    Z=             -2.2018  Tot=              7.7263
 Quadrupole moment (field-independent basis, Debye-Ang):
   XX=           -369.7299   YY=           -423.2189   ZZ=           -403.3233
   XY=              6.9133   XZ=             21.0132   YZ=             -1.3871

 Normal termination of Gaussian 16 at Sat Apr 30 03:08:56 2022.
