 Gaussian 16, Revision A.03,
 Gaussian 16:  ES64L-G16RevA.03 25-Dec-2016

 --------------------------------
 #p wB97XD/Def2SVP td=(nstates=5)
 --------------------------------

 ----------------------------------------------------
 step_551_chromophore_19 TDDFT with wB97XD functional
 ----------------------------------------------------
 Symbolic Z-matrix:
 Charge =  0 Multiplicity = 1

                         Standard orientation:
 ---------------------------------------------------------------------
 Center     Atomic      Atomic             Coordinates (Angstroms)
 Number     Number       Type             X           Y           Z
 ---------------------------------------------------------------------
      1         12           0       -5.811084    0.371422   -0.276044
      2          6           0       -3.409781   -2.127596   -0.386837
      3          6           0       -3.304157    2.640986    0.268713
      4          6           0       -8.320683    2.751389    0.498314
      5          6           0       -8.439138   -2.099010   -0.258465
      6          7           0       -3.638275    0.151665   -0.056610
      7          6           0       -2.791235   -0.885951   -0.234019
      8          6           0       -1.296957   -0.487211   -0.256602
      9          6           0       -1.401286    1.027986    0.200054
     10          6           0       -2.856796    1.298841    0.183945
     11          6           0       -0.548940    1.399015    1.509971
     12          6           0       -0.564409   -0.912696   -1.535646
     13          6           0        0.997876   -0.658572   -1.595774
     14          6           0        2.035783   -1.596195   -1.006805
     15          8           0        1.883545   -2.786681   -0.793295
     16          8           0        3.090441   -0.886726   -0.623942
     17          7           0       -5.860869    2.340344    0.208852
     18          6           0       -4.670389    3.101405    0.305178
     19          6           0       -5.060473    4.471475    0.533474
     20          6           0       -6.435018    4.552965    0.646948
     21          6           0       -6.970601    3.114048    0.492813
     22          6           0       -3.953740    5.592221    0.717346
     23          6           0       -7.266005    5.846323    0.837238
     24          8           0       -8.432078    5.830104    1.143703
     25          6           0       -6.657273    7.166994    0.550759
     26          7           0       -8.139888    0.356563   -0.063830
     27          6           0       -8.827980    1.451675    0.192916
     28          6           0      -10.341413    1.142756    0.200958
     29          6           0      -10.413241   -0.405025   -0.058282
     30          6           0       -8.927029   -0.765235   -0.185415
     31          6           0      -10.964124    1.576169    1.566114
     32          6           0      -11.243693   -0.807964   -1.355854
     33          6           0      -12.494619   -1.441818   -1.012149
     34          7           0       -5.984364   -1.680673   -0.396042
     35          6           0       -7.105275   -2.533723   -0.361431
     36          6           0       -6.603329   -3.894933   -0.476048
     37          6           0       -5.235717   -3.789848   -0.453019
     38          6           0       -4.864858   -2.435495   -0.422550
     39          6           0       -7.402400   -5.138776   -0.620161
     40          6           0       -3.956111   -4.487368   -0.474010
     41          8           0       -3.791990   -5.655933   -0.328720
     42          6           0       -2.766413   -3.486932   -0.557474
     43          6           0       -1.865282   -3.863646    0.559833
     44          8           0       -2.234801   -3.722438    1.755488
     45          8           0       -0.764954   -4.491407    0.113697
     46          6           0        0.072779   -5.076532    1.207344
     47          6           0        4.174943   -1.592665    0.106987
     48          6           0        5.532714   -1.114781   -0.348592
     49          6           0        6.141594    0.060563   -0.099708
     50          6           0        5.439965    1.306976    0.478544
     51          6           0        7.626457    0.232857   -0.387118
     52          6           0        8.101382    1.425735   -1.216124
     53          6           0        9.063122    0.951115   -2.344191
     54          6           0        9.962032    1.984846   -2.930315
     55          6           0        9.302464    2.880360   -3.988866
     56          6           0       11.354351    1.490893   -3.364176
     57          6           0       12.506234    1.867550   -2.351424
     58          6           0       13.266187    0.590353   -1.840591
     59          6           0       13.615877    0.670060   -0.329813
     60          6           0       14.976882    0.019654    0.021072
     61          6           0       12.532716    0.214125    0.586469
     62          6           0       12.361719    0.892601    1.956847
     63          6           0       12.581563   -0.078995    3.175372
     64          6           0       11.208468   -0.748424    3.456280
     65          6           0       10.589363   -0.094380    4.709753
     66          6           0       11.322618   -2.303037    3.632406
     67          1           0       -2.482713    3.323711    0.495479
     68          1           0       -9.119244    3.458934    0.730908
     69          1           0       -9.204169   -2.861681   -0.419716
     70          1           0       -0.903863   -1.065566    0.579179
     71          1           0       -1.110999    1.540595   -0.716361
     72          1           0       -0.123621    0.511341    1.978774
     73          1           0       -1.164694    2.030235    2.150552
     74          1           0        0.354411    1.956930    1.259174
     75          1           0       -1.010575   -0.582113   -2.473010
     76          1           0       -0.499801   -1.999771   -1.484384
     77          1           0        1.142089    0.279106   -1.059737
     78          1           0        1.334871   -0.572817   -2.629491
     79          1           0       -2.974072    5.147711    0.893216
     80          1           0       -4.212309    6.168336    1.605468
     81          1           0       -3.828140    6.277969   -0.119649
     82          1           0       -6.308260    6.982471   -0.466144
     83          1           0       -5.879079    7.423132    1.269182
     84          1           0       -7.411425    7.948566    0.641995
     85          1           0      -10.950154    1.653898   -0.545164
     86          1           0      -10.801357   -0.890578    0.837097
     87          1           0      -10.202227    2.094478    2.147848
     88          1           0      -11.371072    0.709087    2.088341
     89          1           0      -11.722785    2.308205    1.290675
     90          1           0      -10.641340   -1.553659   -1.874887
     91          1           0      -11.380448    0.047715   -2.016546
     92          1           0      -13.255564   -0.939317   -1.609094
     93          1           0      -12.759896   -1.313533    0.036916
     94          1           0      -12.382159   -2.520047   -1.123328
     95          1           0       -6.662894   -5.898008   -0.875539
     96          1           0       -8.110576   -4.919113   -1.419233
     97          1           0       -8.044796   -5.384398    0.226896
     98          1           0       -2.231074   -3.575025   -1.502503
     99          1           0        0.286297   -6.051810    0.769532
    100          1           0       -0.420011   -5.178599    2.173883
    101          1           0        0.984215   -4.480642    1.167122
    102          1           0        4.194067   -2.655827   -0.135459
    103          1           0        4.107254   -1.393530    1.176273
    104          1           0        6.168019   -1.854473   -0.834414
    105          1           0        5.538824    2.234391   -0.086548
    106          1           0        5.978626    1.560474    1.391392
    107          1           0        4.380640    1.127315    0.660880
    108          1           0        8.094231   -0.701884   -0.696420
    109          1           0        8.168389    0.312715    0.555917
    110          1           0        8.594570    2.162964   -0.582640
    111          1           0        7.242810    1.866965   -1.720934
    112          1           0        8.524432    0.456501   -3.152398
    113          1           0        9.708409    0.187515   -1.909576
    114          1           0       10.095782    2.696402   -2.115337
    115          1           0        8.531855    2.329978   -4.527886
    116          1           0        9.985144    3.117376   -4.804061
    117          1           0        8.813058    3.790767   -3.643343
    118          1           0       11.644113    1.839756   -4.355797
    119          1           0       11.202101    0.420613   -3.501720
    120          1           0       12.188663    2.504309   -1.525110
    121          1           0       13.282526    2.386253   -2.912789
    122          1           0       14.128634    0.426357   -2.487465
    123          1           0       12.619850   -0.285271   -1.898003
    124          1           0       13.839564    1.685628   -0.003533
    125          1           0       14.777079   -0.861759    0.630554
    126          1           0       15.605200    0.679068    0.620807
    127          1           0       15.425889   -0.302480   -0.918511
    128          1           0       12.513178   -0.855705    0.796299
    129          1           0       11.540510    0.466975    0.210844
    130          1           0       11.344265    1.279716    2.016756
    131          1           0       12.978612    1.778410    2.112240
    132          1           0       12.838566    0.587326    3.999502
    133          1           0       13.402420   -0.780556    3.026432
    134          1           0       10.381749   -0.567970    2.768125
    135          1           0       10.244976    0.923140    4.526164
    136          1           0       11.187828   -0.055928    5.620468
    137          1           0        9.834053   -0.718649    5.188265
    138          1           0       12.185081   -2.676177    3.079983
    139          1           0       10.475781   -2.864962    3.237618
    140          1           0       11.543812   -2.619955    4.651322
 ---------------------------------------------------------------------

 SCF Done:  E(RwB97XD) =  -3007.86260422     A.U. after   19 cycles

 Excitation energies and oscillator strengths:

 Excited State   1:      Singlet-A      1.6688 eV  742.97 nm  f=0.3421  <S**2>=0.000
     245 -> 248        0.19008
     246 -> 247        0.68129
     245 <- 248        0.11874
 This state for optimization and/or second-order correction.
 Total Energy, E(TD-HF/TD-DFT) =  -3007.80127826
 Copying the excited state density for this state as the 1-particle RhoCI density.

 Excited State   2:      Singlet-A      2.2186 eV  558.83 nm  f=0.0819  <S**2>=0.000
     245 -> 247        0.61563
     246 -> 248       -0.33517

 Excited State   3:      Singlet-A      3.4976 eV  354.48 nm  f=0.6669  <S**2>=0.000
     244 -> 247        0.32779
     245 -> 247        0.28089
     246 -> 248        0.55238
     245 <- 247       -0.10407

 Excited State   4:      Singlet-A      3.5663 eV  347.66 nm  f=0.2202  <S**2>=0.000
     239 -> 247       -0.12784
     242 -> 247       -0.30174
     244 -> 247        0.53872
     245 -> 247       -0.14226
     246 -> 248       -0.24215

 Excited State   5:      Singlet-A      3.7122 eV  333.99 nm  f=0.0867  <S**2>=0.000
     241 -> 247        0.43454
     241 -> 248        0.10377
     241 -> 249       -0.27645
     241 -> 250       -0.10245
     242 -> 247        0.32022
     243 -> 247        0.11869
     244 -> 247        0.16114
     246 -> 248       -0.10080

 The electronic state is 1-A.
 Alpha  occ. eigenvalues --  -46.94743 -19.31171 -19.29759 -19.24758 -19.23903
 Alpha  occ. eigenvalues --  -19.22578 -19.22516 -14.46532 -14.45803 -14.44938
 Alpha  occ. eigenvalues --  -14.43034 -10.43446 -10.41567 -10.38931 -10.37421
 Alpha  occ. eigenvalues --  -10.36877 -10.35387 -10.35318 -10.35197 -10.34466
 Alpha  occ. eigenvalues --  -10.34420 -10.34056 -10.33893 -10.32704 -10.32664
 Alpha  occ. eigenvalues --  -10.32572 -10.32566 -10.32441 -10.32118 -10.31894
 Alpha  occ. eigenvalues --  -10.31774 -10.31730 -10.31560 -10.31543 -10.31482
 Alpha  occ. eigenvalues --  -10.31275 -10.30921 -10.30898 -10.30834 -10.30699
 Alpha  occ. eigenvalues --  -10.30691 -10.30505 -10.30481 -10.30445 -10.30235
 Alpha  occ. eigenvalues --  -10.30090 -10.30085 -10.29851 -10.29447 -10.29284
 Alpha  occ. eigenvalues --  -10.29177 -10.29154 -10.29135 -10.29103 -10.29052
 Alpha  occ. eigenvalues --  -10.29020 -10.29017 -10.29000 -10.28822 -10.28572
 Alpha  occ. eigenvalues --  -10.28463 -10.28365 -10.28219 -10.28166 -10.28120
 Alpha  occ. eigenvalues --  -10.27376  -3.20672  -1.94261  -1.93792  -1.93640
 Alpha  occ. eigenvalues --   -1.20147  -1.17055  -1.13302  -1.12763  -1.10504
 Alpha  occ. eigenvalues --   -1.06999  -1.05434  -1.05104  -1.03805  -1.03390
 Alpha  occ. eigenvalues --   -0.93020  -0.92978  -0.92050  -0.91455  -0.91015
 Alpha  occ. eigenvalues --   -0.90634  -0.89904  -0.89583  -0.89105  -0.88476
 Alpha  occ. eigenvalues --   -0.87728  -0.87641  -0.86397  -0.85685  -0.85198
 Alpha  occ. eigenvalues --   -0.84480  -0.83987  -0.83330  -0.82549  -0.82069
 Alpha  occ. eigenvalues --   -0.81698  -0.80236  -0.79611  -0.78697  -0.78391
 Alpha  occ. eigenvalues --   -0.77669  -0.77574  -0.76890  -0.76662  -0.76275
 Alpha  occ. eigenvalues --   -0.76081  -0.74292  -0.74047  -0.72625  -0.70714
 Alpha  occ. eigenvalues --   -0.69876  -0.69425  -0.68943  -0.68480  -0.67601
 Alpha  occ. eigenvalues --   -0.67101  -0.66778  -0.66269  -0.66156  -0.65896
 Alpha  occ. eigenvalues --   -0.65762  -0.65566  -0.64749  -0.62871  -0.61706
 Alpha  occ. eigenvalues --   -0.61551  -0.61073  -0.60992  -0.60079  -0.59916
 Alpha  occ. eigenvalues --   -0.58928  -0.58663  -0.58195  -0.57758  -0.57367
 Alpha  occ. eigenvalues --   -0.57121  -0.56888  -0.56519  -0.56125  -0.55834
 Alpha  occ. eigenvalues --   -0.55739  -0.55286  -0.55184  -0.55141  -0.54942
 Alpha  occ. eigenvalues --   -0.54412  -0.54342  -0.54170  -0.53990  -0.53661
 Alpha  occ. eigenvalues --   -0.53618  -0.53386  -0.53074  -0.52541  -0.52443
 Alpha  occ. eigenvalues --   -0.52108  -0.51871  -0.51748  -0.51601  -0.51544
 Alpha  occ. eigenvalues --   -0.51397  -0.51306  -0.51044  -0.50969  -0.50802
 Alpha  occ. eigenvalues --   -0.50474  -0.50071  -0.49949  -0.49830  -0.49562
 Alpha  occ. eigenvalues --   -0.49272  -0.49192  -0.48946  -0.48788  -0.48308
 Alpha  occ. eigenvalues --   -0.48060  -0.47901  -0.47808  -0.47672  -0.47525
 Alpha  occ. eigenvalues --   -0.47229  -0.47169  -0.46784  -0.46707  -0.46630
 Alpha  occ. eigenvalues --   -0.46462  -0.46287  -0.46207  -0.46101  -0.45877
 Alpha  occ. eigenvalues --   -0.45607  -0.45383  -0.45143  -0.44853  -0.44710
 Alpha  occ. eigenvalues --   -0.44579  -0.44511  -0.44340  -0.44229  -0.44057
 Alpha  occ. eigenvalues --   -0.43777  -0.43667  -0.43521  -0.43315  -0.43111
 Alpha  occ. eigenvalues --   -0.42884  -0.42634  -0.42497  -0.42437  -0.42262
 Alpha  occ. eigenvalues --   -0.41984  -0.41538  -0.40833  -0.40779  -0.40556
 Alpha  occ. eigenvalues --   -0.40431  -0.40354  -0.39591  -0.39250  -0.39116
 Alpha  occ. eigenvalues --   -0.39053  -0.38954  -0.38457  -0.38452  -0.38364
 Alpha  occ. eigenvalues --   -0.38167  -0.37195  -0.36916  -0.36284  -0.36152
 Alpha  occ. eigenvalues --   -0.35588  -0.34786  -0.34165  -0.33659  -0.33153
 Alpha  occ. eigenvalues --   -0.32813  -0.32258  -0.31628  -0.31060  -0.25489
 Alpha  occ. eigenvalues --   -0.22309
 Alpha virt. eigenvalues --   -0.06178   0.00292   0.03831   0.05604   0.05762
 Alpha virt. eigenvalues --    0.06070   0.07442   0.08443   0.08769   0.09722
 Alpha virt. eigenvalues --    0.09867   0.10968   0.11513   0.11717   0.12478

 Mulliken charges:
               1
     1  Mg   0.965759
     2  C   -0.019613
     3  C   -0.112374
     4  C   -0.071846
     5  C   -0.065216
     6  N   -0.377061
     7  C   -0.027780
     8  C   -0.011892
     9  C   -0.095933
    10  C    0.065134
    11  C    0.028510
    12  C    0.034215
    13  C   -0.036510
    14  C    0.196577
    15  O   -0.265164
    16  O   -0.340409
    17  N   -0.525625
    18  C    0.215488
    19  C   -0.165839
    20  C   -0.110873
    21  C    0.203358
    22  C    0.062835
    23  C    0.037651
    24  O   -0.217562
    25  C    0.007567
    26  N   -0.278612
    27  C    0.039021
    28  C   -0.129739
    29  C   -0.077129
    30  C    0.018072
    31  C    0.009783
    32  C   -0.001959
    33  C   -0.029859
    34  N   -0.468755
    35  C    0.134860
    36  C   -0.220243
    37  C    0.003361
    38  C    0.125185
    39  C    0.086443
    40  C    0.087060
    41  O   -0.180522
    42  C   -0.055584
    43  C    0.250029
    44  O   -0.304858
    45  O   -0.336324
    46  C    0.126992
    47  C    0.265817
    48  C   -0.190559
    49  C   -0.153584
    50  C    0.030270
    51  C    0.027859
    52  C   -0.021489
    53  C   -0.010021
    54  C   -0.184038
    55  C    0.002995
    56  C    0.027310
    57  C   -0.029063
    58  C    0.018261
    59  C   -0.184331
    60  C    0.012089
    61  C    0.025886
    62  C   -0.060217
    63  C    0.020916
    64  C   -0.194053
    65  C   -0.029506
    66  C   -0.012149
    67  H   -0.002798
    68  H    0.031278
    69  H   -0.003605
    70  H    0.040740
    71  H    0.039585
    72  H    0.050436
    73  H    0.051892
    74  H    0.034242
    75  H    0.036470
    76  H    0.056209
    77  H    0.043896
    78  H    0.068517
    79  H    0.032809
    80  H    0.047254
    81  H    0.054354
    82  H    0.058184
    83  H    0.051585
    84  H    0.055367
    85  H    0.040304
    86  H    0.034610
    87  H    0.050178
    88  H    0.038993
    89  H    0.037212
    90  H    0.026807
    91  H    0.029617
    92  H    0.037821
    93  H    0.023735
    94  H    0.036805
    95  H    0.064943
    96  H    0.031538
    97  H    0.047352
    98  H    0.068972
    99  H    0.055457
   100  H    0.084030
   101  H    0.063827
   102  H    0.062094
   103  H    0.059870
   104  H    0.023138
   105  H    0.046271
   106  H    0.032089
   107  H    0.044910
   108  H    0.013159
   109  H    0.030850
   110  H    0.023676
   111  H    0.035121
   112  H    0.022944
   113  H    0.011560
   114  H    0.007103
   115  H    0.007034
   116  H    0.019147
   117  H    0.033316
   118  H    0.013863
   119  H    0.015526
   120  H    0.033935
   121  H    0.027727
   122  H    0.022384
   123  H    0.019561
   124  H    0.011968
   125  H    0.013506
   126  H    0.035624
   127  H    0.023053
   128  H    0.016416
   129  H    0.002045
   130  H    0.009700
   131  H    0.010509
   132  H    0.021378
   133  H    0.027743
   134  H    0.033524
   135  H    0.030666
   136  H    0.014309
   137  H    0.017812
   138  H    0.014783
   139  H    0.032381
   140  H    0.027676
 Sum of Mulliken charges =  -0.00000

 Dipole moment (field-independent basis, Debye):
    X=              5.3384    Y=              6.0048    Z=             -2.1106  Tot=              8.3073
 Quadrupole moment (field-independent basis, Debye-Ang):
   XX=           -371.1648   YY=           -420.9159   ZZ=           -402.8428
   XY=              1.8541   XZ=             20.5508   YZ=             -1.2277

 Normal termination of Gaussian 16 at Sat Apr 30 03:47:38 2022.
