 Gaussian 16, Revision A.03,
 Gaussian 16:  ES64L-G16RevA.03 25-Dec-2016

 --------------------
 #p ZINDO=(nstates=5)
 --------------------

 -----------------------------
 step_551_chromophore_19 ZINDO
 -----------------------------
 Symbolic Z-matrix:
 Charge =  0 Multiplicity = 1

                         Standard orientation:
 ---------------------------------------------------------------------
 Center     Atomic      Atomic             Coordinates (Angstroms)
 Number     Number       Type             X           Y           Z
 ---------------------------------------------------------------------
      1         12           0       -5.811084    0.371422   -0.276044
      2          6           0       -3.409781   -2.127596   -0.386837
      3          6           0       -3.304157    2.640986    0.268713
      4          6           0       -8.320683    2.751389    0.498314
      5          6           0       -8.439138   -2.099010   -0.258465
      6          7           0       -3.638275    0.151665   -0.056610
      7          6           0       -2.791235   -0.885951   -0.234019
      8          6           0       -1.296957   -0.487211   -0.256602
      9          6           0       -1.401286    1.027986    0.200054
     10          6           0       -2.856796    1.298841    0.183945
     11          6           0       -0.548940    1.399015    1.509971
     12          6           0       -0.564409   -0.912696   -1.535646
     13          6           0        0.997876   -0.658572   -1.595774
     14          6           0        2.035783   -1.596195   -1.006805
     15          8           0        1.883545   -2.786681   -0.793295
     16          8           0        3.090441   -0.886726   -0.623942
     17          7           0       -5.860869    2.340344    0.208852
     18          6           0       -4.670389    3.101405    0.305178
     19          6           0       -5.060473    4.471475    0.533474
     20          6           0       -6.435018    4.552965    0.646948
     21          6           0       -6.970601    3.114048    0.492813
     22          6           0       -3.953740    5.592221    0.717346
     23          6           0       -7.266005    5.846323    0.837238
     24          8           0       -8.432078    5.830104    1.143703
     25          6           0       -6.657273    7.166994    0.550759
     26          7           0       -8.139888    0.356563   -0.063830
     27          6           0       -8.827980    1.451675    0.192916
     28          6           0      -10.341413    1.142756    0.200958
     29          6           0      -10.413241   -0.405025   -0.058282
     30          6           0       -8.927029   -0.765235   -0.185415
     31          6           0      -10.964124    1.576169    1.566114
     32          6           0      -11.243693   -0.807964   -1.355854
     33          6           0      -12.494619   -1.441818   -1.012149
     34          7           0       -5.984364   -1.680673   -0.396042
     35          6           0       -7.105275   -2.533723   -0.361431
     36          6           0       -6.603329   -3.894933   -0.476048
     37          6           0       -5.235717   -3.789848   -0.453019
     38          6           0       -4.864858   -2.435495   -0.422550
     39          6           0       -7.402400   -5.138776   -0.620161
     40          6           0       -3.956111   -4.487368   -0.474010
     41          8           0       -3.791990   -5.655933   -0.328720
     42          6           0       -2.766413   -3.486932   -0.557474
     43          6           0       -1.865282   -3.863646    0.559833
     44          8           0       -2.234801   -3.722438    1.755488
     45          8           0       -0.764954   -4.491407    0.113697
     46          6           0        0.072779   -5.076532    1.207344
     47          6           0        4.174943   -1.592665    0.106987
     48          6           0        5.532714   -1.114781   -0.348592
     49          6           0        6.141594    0.060563   -0.099708
     50          6           0        5.439965    1.306976    0.478544
     51          6           0        7.626457    0.232857   -0.387118
     52          6           0        8.101382    1.425735   -1.216124
     53          6           0        9.063122    0.951115   -2.344191
     54          6           0        9.962032    1.984846   -2.930315
     55          6           0        9.302464    2.880360   -3.988866
     56          6           0       11.354351    1.490893   -3.364176
     57          6           0       12.506234    1.867550   -2.351424
     58          6           0       13.266187    0.590353   -1.840591
     59          6           0       13.615877    0.670060   -0.329813
     60          6           0       14.976882    0.019654    0.021072
     61          6           0       12.532716    0.214125    0.586469
     62          6           0       12.361719    0.892601    1.956847
     63          6           0       12.581563   -0.078995    3.175372
     64          6           0       11.208468   -0.748424    3.456280
     65          6           0       10.589363   -0.094380    4.709753
     66          6           0       11.322618   -2.303037    3.632406
     67          1           0       -2.482713    3.323711    0.495479
     68          1           0       -9.119244    3.458934    0.730908
     69          1           0       -9.204169   -2.861681   -0.419716
     70          1           0       -0.903863   -1.065566    0.579179
     71          1           0       -1.110999    1.540595   -0.716361
     72          1           0       -0.123621    0.511341    1.978774
     73          1           0       -1.164694    2.030235    2.150552
     74          1           0        0.354411    1.956930    1.259174
     75          1           0       -1.010575   -0.582113   -2.473010
     76          1           0       -0.499801   -1.999771   -1.484384
     77          1           0        1.142089    0.279106   -1.059737
     78          1           0        1.334871   -0.572817   -2.629491
     79          1           0       -2.974072    5.147711    0.893216
     80          1           0       -4.212309    6.168336    1.605468
     81          1           0       -3.828140    6.277969   -0.119649
     82          1           0       -6.308260    6.982471   -0.466144
     83          1           0       -5.879079    7.423132    1.269182
     84          1           0       -7.411425    7.948566    0.641995
     85          1           0      -10.950154    1.653898   -0.545164
     86          1           0      -10.801357   -0.890578    0.837097
     87          1           0      -10.202227    2.094478    2.147848
     88          1           0      -11.371072    0.709087    2.088341
     89          1           0      -11.722785    2.308205    1.290675
     90          1           0      -10.641340   -1.553659   -1.874887
     91          1           0      -11.380448    0.047715   -2.016546
     92          1           0      -13.255564   -0.939317   -1.609094
     93          1           0      -12.759896   -1.313533    0.036916
     94          1           0      -12.382159   -2.520047   -1.123328
     95          1           0       -6.662894   -5.898008   -0.875539
     96          1           0       -8.110576   -4.919113   -1.419233
     97          1           0       -8.044796   -5.384398    0.226896
     98          1           0       -2.231074   -3.575025   -1.502503
     99          1           0        0.286297   -6.051810    0.769532
    100          1           0       -0.420011   -5.178599    2.173883
    101          1           0        0.984215   -4.480642    1.167122
    102          1           0        4.194067   -2.655827   -0.135459
    103          1           0        4.107254   -1.393530    1.176273
    104          1           0        6.168019   -1.854473   -0.834414
    105          1           0        5.538824    2.234391   -0.086548
    106          1           0        5.978626    1.560474    1.391392
    107          1           0        4.380640    1.127315    0.660880
    108          1           0        8.094231   -0.701884   -0.696420
    109          1           0        8.168389    0.312715    0.555917
    110          1           0        8.594570    2.162964   -0.582640
    111          1           0        7.242810    1.866965   -1.720934
    112          1           0        8.524432    0.456501   -3.152398
    113          1           0        9.708409    0.187515   -1.909576
    114          1           0       10.095782    2.696402   -2.115337
    115          1           0        8.531855    2.329978   -4.527886
    116          1           0        9.985144    3.117376   -4.804061
    117          1           0        8.813058    3.790767   -3.643343
    118          1           0       11.644113    1.839756   -4.355797
    119          1           0       11.202101    0.420613   -3.501720
    120          1           0       12.188663    2.504309   -1.525110
    121          1           0       13.282526    2.386253   -2.912789
    122          1           0       14.128634    0.426357   -2.487465
    123          1           0       12.619850   -0.285271   -1.898003
    124          1           0       13.839564    1.685628   -0.003533
    125          1           0       14.777079   -0.861759    0.630554
    126          1           0       15.605200    0.679068    0.620807
    127          1           0       15.425889   -0.302480   -0.918511
    128          1           0       12.513178   -0.855705    0.796299
    129          1           0       11.540510    0.466975    0.210844
    130          1           0       11.344265    1.279716    2.016756
    131          1           0       12.978612    1.778410    2.112240
    132          1           0       12.838566    0.587326    3.999502
    133          1           0       13.402420   -0.780556    3.026432
    134          1           0       10.381749   -0.567970    2.768125
    135          1           0       10.244976    0.923140    4.526164
    136          1           0       11.187828   -0.055928    5.620468
    137          1           0        9.834053   -0.718649    5.188265
    138          1           0       12.185081   -2.676177    3.079983
    139          1           0       10.475781   -2.864962    3.237618
    140          1           0       11.543812   -2.619955    4.651322
 ---------------------------------------------------------------------

 SCF Done:  E(RZINDO/S) =  -474.245144083     A.U. after   19 cycles

 Excitation energies and oscillator strengths:

 Excited State   1:      Singlet-A      1.2748 eV  972.60 nm  f=0.5391  <S**2>=0.000
     175 ->178        -0.17834
     176 ->177         0.66526
 This state for optimization and/or second-order correction.
 Total Energy, E(CIS/TDA) =  -474.198297061
 Copying the excited state density for this state as the 1-particle RhoCI density.

 Excited State   2:      Singlet-A      1.9502 eV  635.75 nm  f=0.0186  <S**2>=0.000
     175 ->177         0.51584
     176 ->178         0.45724

 Excited State   3:      Singlet-A      3.0021 eV  413.00 nm  f=1.1986  <S**2>=0.000
     175 ->177        -0.40533
     176 ->178         0.48131
     176 ->179         0.20935

 Excited State   4:      Singlet-A      3.0492 eV  406.61 nm  f=0.0567  <S**2>=0.000
     171 ->177         0.26301
     171 ->179         0.25630
     171 ->180        -0.22877
     171 ->181         0.30730
     171 ->186         0.20656
     171 ->188         0.18280
     171 ->205        -0.14545
     176 ->178         0.10445

 Excited State   5:      Singlet-A      3.2121 eV  385.99 nm  f=0.2055  <S**2>=0.000
     173 ->177        -0.12649
     175 ->177         0.16352
     176 ->178        -0.13663
     176 ->179         0.57323
     176 ->180        -0.11425
     176 ->181         0.13805
     176 ->182         0.11842
     176 ->184         0.12750

 The electronic state is 1-A.
 Alpha  occ. eigenvalues --   -1.82346  -1.78620  -1.78158  -1.74450  -1.71651
 Alpha  occ. eigenvalues --   -1.69605  -1.66076  -1.61866  -1.60977  -1.58988
 Alpha  occ. eigenvalues --   -1.54845  -1.51942  -1.49273  -1.48073  -1.47474
 Alpha  occ. eigenvalues --   -1.43376  -1.41099  -1.39177  -1.38703  -1.38347
 Alpha  occ. eigenvalues --   -1.35318  -1.33376  -1.33118  -1.31007  -1.28587
 Alpha  occ. eigenvalues --   -1.27956  -1.24866  -1.22908  -1.21422  -1.18001
 Alpha  occ. eigenvalues --   -1.16657  -1.16065  -1.15306  -1.14069  -1.13373
 Alpha  occ. eigenvalues --   -1.11536  -1.11044  -1.10359  -1.05172  -1.04212
 Alpha  occ. eigenvalues --   -1.02755  -1.00719  -0.99506  -0.97689  -0.96170
 Alpha  occ. eigenvalues --   -0.93995  -0.93918  -0.93603  -0.92191  -0.91962
 Alpha  occ. eigenvalues --   -0.91210  -0.90885  -0.89718  -0.88040  -0.87508
 Alpha  occ. eigenvalues --   -0.85720  -0.83844  -0.83010  -0.80992  -0.80149
 Alpha  occ. eigenvalues --   -0.79689  -0.78145  -0.77063  -0.76326  -0.75901
 Alpha  occ. eigenvalues --   -0.75688  -0.75054  -0.74451  -0.73667  -0.73234
 Alpha  occ. eigenvalues --   -0.72607  -0.72281  -0.71968  -0.71297  -0.70971
 Alpha  occ. eigenvalues --   -0.70541  -0.69671  -0.69337  -0.68676  -0.68326
 Alpha  occ. eigenvalues --   -0.67783  -0.67482  -0.67230  -0.66506  -0.65608
 Alpha  occ. eigenvalues --   -0.65160  -0.64678  -0.64497  -0.64022  -0.63172
 Alpha  occ. eigenvalues --   -0.62688  -0.62674  -0.62034  -0.61812  -0.61734
 Alpha  occ. eigenvalues --   -0.61601  -0.60894  -0.60774  -0.60453  -0.60324
 Alpha  occ. eigenvalues --   -0.59431  -0.59020  -0.58671  -0.58110  -0.58088
 Alpha  occ. eigenvalues --   -0.57649  -0.57093  -0.56839  -0.56099  -0.55589
 Alpha  occ. eigenvalues --   -0.55570  -0.55403  -0.54909  -0.54853  -0.54478
 Alpha  occ. eigenvalues --   -0.54021  -0.53856  -0.53563  -0.53519  -0.53249
 Alpha  occ. eigenvalues --   -0.52838  -0.52512  -0.51806  -0.51577  -0.51211
 Alpha  occ. eigenvalues --   -0.51092  -0.50975  -0.50783  -0.50471  -0.50336
 Alpha  occ. eigenvalues --   -0.50242  -0.49618  -0.49461  -0.49230  -0.48856
 Alpha  occ. eigenvalues --   -0.48669  -0.48552  -0.47673  -0.47482  -0.47378
 Alpha  occ. eigenvalues --   -0.46952  -0.46683  -0.46442  -0.46272  -0.45871
 Alpha  occ. eigenvalues --   -0.45738  -0.45564  -0.45525  -0.45070  -0.44724
 Alpha  occ. eigenvalues --   -0.44495  -0.44315  -0.44149  -0.44118  -0.43976
 Alpha  occ. eigenvalues --   -0.43534  -0.43376  -0.43034  -0.42880  -0.42181
 Alpha  occ. eigenvalues --   -0.42014  -0.41545  -0.39374  -0.38754  -0.38316
 Alpha  occ. eigenvalues --   -0.36642  -0.36459  -0.35659  -0.34460  -0.34078
 Alpha  occ. eigenvalues --   -0.33215  -0.33178  -0.31870  -0.31683  -0.26314
 Alpha  occ. eigenvalues --   -0.21173
 Alpha virt. eigenvalues --   -0.07716  -0.01772   0.00489   0.02011   0.02164
 Alpha virt. eigenvalues --    0.02516   0.03155   0.03880   0.04274   0.05212
 Alpha virt. eigenvalues --    0.06482   0.07040   0.07210   0.07715   0.08492

 Mulliken charges:
               1
     1  Mg   0.423828
     2  C   -0.051293
     3  C   -0.108913
     4  C   -0.057883
     5  C   -0.048008
     6  N   -0.297587
     7  C    0.110968
     8  C    0.005841
     9  C    0.001535
    10  C    0.156052
    11  C   -0.047551
    12  C   -0.023614
    13  C   -0.005363
    14  C    0.477179
    15  O   -0.526402
    16  O   -0.261483
    17  N   -0.323727
    18  C    0.130291
    19  C    0.003790
    20  C   -0.031002
    21  C    0.134277
    22  C   -0.052589
    23  C    0.332158
    24  O   -0.512575
    25  C   -0.028484
    26  N   -0.256196
    27  C    0.159317
    28  C   -0.007203
    29  C   -0.007634
    30  C    0.075898
    31  C   -0.058998
    32  C   -0.024472
    33  C   -0.051492
    34  N   -0.316089
    35  C    0.056316
    36  C    0.028866
    37  C   -0.053435
    38  C    0.101927
    39  C   -0.041593
    40  C    0.343459
    41  O   -0.514579
    42  C    0.055117
    43  C    0.492944
    44  O   -0.557504
    45  O   -0.249285
    46  C    0.069752
    47  C    0.106369
    48  C   -0.091750
    49  C    0.001399
    50  C   -0.045797
    51  C   -0.025230
    52  C   -0.028022
    53  C   -0.026038
    54  C   -0.006549
    55  C   -0.060486
    56  C   -0.034011
    57  C   -0.040550
    58  C   -0.034042
    59  C   -0.008145
    60  C   -0.063450
    61  C   -0.027451
    62  C   -0.041656
    63  C   -0.030545
    64  C   -0.006187
    65  C   -0.064881
    66  C   -0.062103
    67  H    0.032852
    68  H    0.054179
    69  H    0.026996
    70  H    0.038165
    71  H    0.030715
    72  H    0.035261
    73  H    0.032109
    74  H    0.015574
    75  H    0.034139
    76  H    0.034313
    77  H    0.027373
    78  H    0.043881
    79  H    0.024672
    80  H    0.025665
    81  H    0.031405
    82  H    0.042197
    83  H    0.042149
    84  H    0.039348
    85  H    0.034856
    86  H    0.036169
    87  H    0.029538
    88  H    0.028102
    89  H    0.019747
    90  H    0.018764
    91  H    0.023388
    92  H    0.020138
    93  H    0.013807
    94  H    0.022967
    95  H    0.039196
    96  H    0.022068
    97  H    0.034467
    98  H    0.049864
    99  H    0.032511
   100  H    0.066181
   101  H    0.045468
   102  H    0.054698
   103  H    0.049950
   104  H    0.027182
   105  H    0.029124
   106  H    0.023434
   107  H    0.024947
   108  H    0.020798
   109  H    0.017471
   110  H    0.026254
   111  H    0.019756
   112  H    0.019648
   113  H    0.010604
   114  H    0.008812
   115  H    0.008025
   116  H    0.015427
   117  H    0.020577
   118  H    0.018591
   119  H    0.018889
   120  H    0.031593
   121  H    0.015398
   122  H    0.023758
   123  H    0.018419
   124  H    0.014658
   125  H    0.014566
   126  H    0.022886
   127  H    0.021192
   128  H    0.021679
   129  H    0.006368
   130  H    0.013991
   131  H    0.012240
   132  H    0.015875
   133  H    0.029843
   134  H    0.029203
   135  H    0.018128
   136  H    0.012125
   137  H    0.010695
   138  H    0.008762
   139  H    0.019698
   140  H    0.021078
 Sum of Mulliken charges =  -0.00000

 Dipole moment (field-independent basis, Debye):
    X=              5.3668    Y=              9.8940    Z=             -3.4299  Tot=             11.7668
 N-N= 4.274629047021D+03 E-N= 0.000000000000D+00  KE=-9.224160292402D+03
 Leave Link  601 at Sat Apr 30 04:04:26 2022, MaxMem=  6710886400 cpu:               0.7 elap:               0.0
 (Enter /sw/apps/gaussian-16.0/g16/l9999.exe)
 1\1\GINC-BP1-COMPUTE142\SP\RZINDO CIS\STO-3G\C55H74Mg1N4O6\OF15641\30-
 Apr-2022\0\\#p ZINDO=(nstates=5)\\step_551_chromophore_19 ZINDO\\0,1\M
 g,0,26.04,51.042,26.266\C,0,23.87,52.024,28.786\C,0,28.204,49.93,28.67
 7\C,0,28.479,50.687,23.719\C,0,24.021,52.744,23.809\N,0,25.954,51.072,
 28.459\C,0,24.982,51.39,29.342\C,0,25.285,50.965,30.798\C,0,26.801,50.
 522,30.654\C,0,27.034,50.542,29.192\C,0,27.825,51.293,31.622\C,0,24.21
 5,50.051,31.409\C,0,24.376,49.666,32.937\C,0,23.909,50.538,34.088\O,0,

 Normal termination of Gaussian 16 at Sat Apr 30 04:04:26 2022.
