 Gaussian 16, Revision A.03,
 Gaussian 16:  ES64L-G16RevA.03 25-Dec-2016

 ------------------------------
 #p blyp/Def2SVP td=(nstates=5)
 ------------------------------

 --------------------------------------------------
 step_1451_chromophore_4 TDDFT with blyp functional
 --------------------------------------------------
 Symbolic Z-matrix:
 Charge =  0 Multiplicity = 1

                         Standard orientation:
 ---------------------------------------------------------------------
 Center     Atomic      Atomic             Coordinates (Angstroms)
 Number     Number       Type             X           Y           Z
 ---------------------------------------------------------------------
      1         12           0        6.000237    0.391751    0.246825
      2          6           0        3.523773   -2.032562    0.450841
      3          6           0        3.491920    2.611234   -0.665367
      4          6           0        8.313811    2.833519   -0.117512
      5          6           0        8.474113   -1.957387    0.661820
      6          7           0        3.707739    0.310594   -0.115169
      7          6           0        2.916202   -0.792961    0.009658
      8          6           0        1.388063   -0.556106   -0.287577
      9          6           0        1.598308    0.854277   -1.019131
     10          6           0        3.015760    1.338695   -0.581415
     11          6           0        1.344667    0.854168   -2.577252
     12          6           0        0.576300   -0.657201    1.108590
     13          6           0       -0.633675   -1.562686    1.127165
     14          6           0       -1.570989   -1.552159   -0.048799
     15          8           0       -1.518507   -0.783994   -0.992324
     16          8           0       -2.543611   -2.447419    0.161248
     17          7           0        5.875087    2.474881   -0.239455
     18          6           0        4.733370    3.250983   -0.463863
     19          6           0        5.059623    4.608642   -0.514481
     20          6           0        6.481765    4.695150   -0.324455
     21          6           0        6.969137    3.280220   -0.227443
     22          6           0        4.103865    5.717496   -0.825244
     23          6           0        7.349083    6.017581   -0.210088
     24          8           0        8.583716    6.035034   -0.199462
     25          6           0        6.694305    7.300084    0.041400
     26          7           0        8.120903    0.404143    0.116757
     27          6           0        8.790721    1.500800   -0.117916
     28          6           0       10.357508    1.189258   -0.101595
     29          6           0       10.418400   -0.328498    0.150426
     30          6           0        8.927423   -0.706436    0.309136
     31          6           0       11.023143    1.812730   -1.415412
     32          6           0       11.273229   -0.740240    1.382927
     33          6           0       12.639181   -0.082265    1.655989
     34          7           0        5.998152   -1.630805    0.494890
     35          6           0        7.085938   -2.429839    0.802620
     36          6           0        6.658039   -3.774525    0.913002
     37          6           0        5.221830   -3.706400    0.755639
     38          6           0        4.877652   -2.369456    0.588130
     39          6           0        7.476559   -5.045188    1.009214
     40          6           0        3.930700   -4.477343    0.808437
     41          8           0        3.762803   -5.665521    1.165717
     42          6           0        2.779138   -3.467289    0.578174
     43          6           0        2.037574   -3.866311   -0.680842
     44          8           0        2.537963   -3.916116   -1.743102
     45          8           0        0.731235   -4.221370   -0.433234
     46          6           0        0.029007   -4.917661   -1.457580
     47          6           0       -3.567481   -2.460695   -0.823386
     48          6           0       -4.797994   -1.740286   -0.318050
     49          6           0       -5.977509   -2.279744    0.130404
     50          6           0       -6.225164   -3.813376    0.178781
     51          6           0       -7.304862   -1.485459    0.141102
     52          6           0       -7.684893   -1.035732   -1.333541
     53          6           0       -7.943913    0.484771   -1.269899
     54          6           0       -9.476689    0.812276   -0.844786
     55          6           0      -10.236610    1.128497   -2.090034
     56          6           0       -9.556500    1.924525    0.256471
     57          6           0      -10.341107    1.437678    1.526925
     58          6           0      -11.096044    2.686524    2.107035
     59          6           0      -12.593727    2.482173    2.443549
     60          6           0      -13.044513    3.241752    3.772220
     61          6           0      -13.432682    2.786055    1.221269
     62          6           0      -14.429548    1.651595    0.823546
     63          6           0      -14.426162    1.189318   -0.662868
     64          6           0      -14.259090   -0.278209   -0.881041
     65          6           0      -13.999845   -0.604674   -2.369411
     66          6           0      -15.342016   -1.091808   -0.216063
     67          1           0        2.726750    3.357101   -0.891973
     68          1           0        9.012158    3.627533   -0.392171
     69          1           0        9.228388   -2.741848    0.741602
     70          1           0        1.100037   -1.274243   -1.054957
     71          1           0        0.769104    1.443376   -0.627624
     72          1           0        0.518573    1.488076   -2.899704
     73          1           0        1.303205   -0.179305   -2.922624
     74          1           0        2.272663    1.282012   -2.955630
     75          1           0        0.217079    0.343201    1.351680
     76          1           0        1.251664   -0.964434    1.906791
     77          1           0       -1.265633   -1.120310    1.897739
     78          1           0       -0.438951   -2.596033    1.411798
     79          1           0        3.838427    6.310142    0.049403
     80          1           0        3.135116    5.454269   -1.248917
     81          1           0        4.631833    6.409834   -1.481089
     82          1           0        5.996662    7.120801    0.858965
     83          1           0        6.250098    7.791686   -0.824460
     84          1           0        7.470450    7.967400    0.418393
     85          1           0       10.671714    1.822995    0.727730
     86          1           0       10.737384   -0.862733   -0.743480
     87          1           0       11.814968    2.498601   -1.111555
     88          1           0       10.288993    2.257403   -2.086485
     89          1           0       11.498107    1.106569   -2.095926
     90          1           0       11.362212   -1.796003    1.125608
     91          1           0       10.709863   -0.572351    2.301366
     92          1           0       12.678865    0.812070    1.035406
     93          1           0       13.457822   -0.771125    1.447009
     94          1           0       12.740576    0.079730    2.729185
     95          1           0        7.708985   -5.293866    2.044470
     96          1           0        8.320357   -5.088958    0.320954
     97          1           0        6.809938   -5.844171    0.686315
     98          1           0        2.192616   -3.314308    1.483861
     99          1           0        0.233579   -4.487385   -2.438938
    100          1           0       -1.032757   -4.971429   -1.216677
    101          1           0        0.254036   -5.979667   -1.551800
    102          1           0       -3.835831   -3.474189   -1.122130
    103          1           0       -3.333579   -1.973147   -1.768666
    104          1           0       -4.790787   -0.677632   -0.561635
    105          1           0       -6.970351   -4.183032   -0.525211
    106          1           0       -6.600760   -4.000506    1.184629
    107          1           0       -5.298383   -4.380308    0.095064
    108          1           0       -7.185605   -0.618200    0.790998
    109          1           0       -8.051323   -2.121226    0.617125
    110          1           0       -8.572862   -1.570562   -1.671703
    111          1           0       -6.819672   -1.142850   -1.988213
    112          1           0       -7.698047    0.870862   -2.258509
    113          1           0       -7.223556    0.925711   -0.579138
    114          1           0       -9.960380   -0.093194   -0.478754
    115          1           0       -9.738114    1.933064   -2.631524
    116          1           0      -11.271425    1.284039   -1.782973
    117          1           0      -10.327122    0.318565   -2.813418
    118          1           0      -10.027101    2.806998   -0.178327
    119          1           0       -8.548469    2.255158    0.508308
    120          1           0       -9.442480    1.134456    2.064531
    121          1           0      -11.118556    0.695016    1.342471
    122          1           0      -11.074359    3.585758    1.491452
    123          1           0      -10.604466    2.810770    3.072276
    124          1           0      -12.670041    1.410721    2.627562
    125          1           0      -12.415947    4.107282    3.981113
    126          1           0      -13.104932    2.555166    4.616836
    127          1           0      -13.988750    3.727821    3.528297
    128          1           0      -12.835856    3.043230    0.346243
    129          1           0      -14.061267    3.675631    1.219798
    130          1           0      -15.482900    1.795563    1.062605
    131          1           0      -14.094901    0.780109    1.385547
    132          1           0      -13.647719    1.619733   -1.291976
    133          1           0      -15.431037    1.433583   -1.006792
    134          1           0      -13.342574   -0.595946   -0.383414
    135          1           0      -14.851905   -1.195691   -2.705446
    136          1           0      -13.036052   -1.085067   -2.539076
    137          1           0      -14.062786    0.204418   -3.097341
    138          1           0      -16.282609   -0.569275   -0.043762
    139          1           0      -15.106944   -1.493947    0.770064
    140          1           0      -15.614795   -1.996153   -0.759505
 ---------------------------------------------------------------------

 SCF Done:  E(RB-LYP) =  -3007.36298673     A.U. after   21 cycles

 Excitation energies and oscillator strengths:

 Excited State   1:      Singlet-A      1.8700 eV  663.02 nm  f=0.3362  <S**2>=0.000
     244 -> 247        0.12752
     245 -> 248       -0.17797
     246 -> 247        0.67100
     246 <- 247       -0.14321
 This state for optimization and/or second-order correction.
 Total Energy, E(TD-HF/TD-DFT) =  -3007.29426600
 Copying the excited state density for this state as the 1-particle RhoCI density.

 Excited State   2:      Singlet-A      1.9171 eV  646.74 nm  f=0.0120  <S**2>=0.000
     244 -> 247        0.68856
     246 -> 247       -0.13142

 Excited State   3:      Singlet-A      1.9653 eV  630.87 nm  f=0.0029  <S**2>=0.000
     243 -> 247        0.70160

 Excited State   4:      Singlet-A      1.9861 eV  624.27 nm  f=0.0984  <S**2>=0.000
     245 -> 247        0.65749
     246 -> 248        0.19305

 Excited State   5:      Singlet-A      2.4268 eV  510.89 nm  f=0.0027  <S**2>=0.000
     242 -> 247        0.69619

 The electronic state is 1-A.
 Alpha  occ. eigenvalues --  -46.27160 -18.82931 -18.82136 -18.77186 -18.77072
 Alpha  occ. eigenvalues --  -18.75583 -18.75507 -14.02995 -14.02738 -14.00538
 Alpha  occ. eigenvalues --  -14.00306 -10.04297 -10.04172  -9.99985  -9.99890
 Alpha  occ. eigenvalues --   -9.97717  -9.97412  -9.96754  -9.96229  -9.96126
 Alpha  occ. eigenvalues --   -9.95933  -9.95821  -9.95302  -9.95188  -9.94526
 Alpha  occ. eigenvalues --   -9.94320  -9.94101  -9.93969  -9.93905  -9.93838
 Alpha  occ. eigenvalues --   -9.93724  -9.93652  -9.93636  -9.93571  -9.93354
 Alpha  occ. eigenvalues --   -9.93148  -9.93132  -9.93082  -9.92740  -9.92592
 Alpha  occ. eigenvalues --   -9.92555  -9.92377  -9.92339  -9.92260  -9.92110
 Alpha  occ. eigenvalues --   -9.91966  -9.91920  -9.91917  -9.91889  -9.91809
 Alpha  occ. eigenvalues --   -9.91781  -9.91766  -9.91764  -9.91764  -9.91717
 Alpha  occ. eigenvalues --   -9.91483  -9.91278  -9.91192  -9.91049  -9.91005
 Alpha  occ. eigenvalues --   -9.90996  -9.90955  -9.90930  -9.90898  -9.90698
 Alpha  occ. eigenvalues --   -9.90692  -2.91692  -1.72130  -1.71578  -1.71394
 Alpha  occ. eigenvalues --   -1.00142  -0.99334  -0.91857  -0.91028  -0.90996
 Alpha  occ. eigenvalues --   -0.89462  -0.86494  -0.86106  -0.85330  -0.84437
 Alpha  occ. eigenvalues --   -0.74261  -0.73521  -0.73216  -0.72490  -0.72146
 Alpha  occ. eigenvalues --   -0.71997  -0.71295  -0.71101  -0.70002  -0.69934
 Alpha  occ. eigenvalues --   -0.69227  -0.68913  -0.67895  -0.66953  -0.66678
 Alpha  occ. eigenvalues --   -0.66330  -0.65883  -0.65400  -0.65042  -0.64341
 Alpha  occ. eigenvalues --   -0.63986  -0.62081  -0.61804  -0.61748  -0.60737
 Alpha  occ. eigenvalues --   -0.60691  -0.60172  -0.59778  -0.59723  -0.59224
 Alpha  occ. eigenvalues --   -0.58549  -0.57352  -0.56237  -0.55367  -0.54818
 Alpha  occ. eigenvalues --   -0.54240  -0.53130  -0.52641  -0.52318  -0.51288
 Alpha  occ. eigenvalues --   -0.51074  -0.50558  -0.50326  -0.50311  -0.50168
 Alpha  occ. eigenvalues --   -0.49856  -0.49313  -0.48769  -0.48613  -0.46340
 Alpha  occ. eigenvalues --   -0.46249  -0.45778  -0.45404  -0.45088  -0.44553
 Alpha  occ. eigenvalues --   -0.43912  -0.43743  -0.43288  -0.42810  -0.42277
 Alpha  occ. eigenvalues --   -0.42189  -0.41993  -0.41824  -0.41592  -0.41365
 Alpha  occ. eigenvalues --   -0.41286  -0.41122  -0.40544  -0.40205  -0.40139
 Alpha  occ. eigenvalues --   -0.39946  -0.39875  -0.39261  -0.39208  -0.38994
 Alpha  occ. eigenvalues --   -0.38810  -0.38510  -0.38400  -0.38225  -0.38176
 Alpha  occ. eigenvalues --   -0.37912  -0.37558  -0.37517  -0.37333  -0.37252
 Alpha  occ. eigenvalues --   -0.37040  -0.36818  -0.36798  -0.36512  -0.36191
 Alpha  occ. eigenvalues --   -0.35981  -0.35933  -0.35663  -0.35439  -0.35259
 Alpha  occ. eigenvalues --   -0.35148  -0.35097  -0.34952  -0.34633  -0.34598
 Alpha  occ. eigenvalues --   -0.34537  -0.34391  -0.34114  -0.34019  -0.33923
 Alpha  occ. eigenvalues --   -0.33822  -0.33561  -0.33329  -0.33184  -0.32851
 Alpha  occ. eigenvalues --   -0.32622  -0.32497  -0.32323  -0.32282  -0.31956
 Alpha  occ. eigenvalues --   -0.31775  -0.31601  -0.31487  -0.31265  -0.31225
 Alpha  occ. eigenvalues --   -0.30948  -0.30838  -0.30746  -0.30466  -0.30144
 Alpha  occ. eigenvalues --   -0.30048  -0.29998  -0.29949  -0.29841  -0.29704
 Alpha  occ. eigenvalues --   -0.29618  -0.29456  -0.29280  -0.29138  -0.28875
 Alpha  occ. eigenvalues --   -0.28535  -0.28515  -0.27967  -0.27938  -0.27791
 Alpha  occ. eigenvalues --   -0.27733  -0.27473  -0.27422  -0.27043  -0.26554
 Alpha  occ. eigenvalues --   -0.26057  -0.25847  -0.25825  -0.25237  -0.25173
 Alpha  occ. eigenvalues --   -0.25164  -0.24966  -0.24458  -0.23651  -0.23397
 Alpha  occ. eigenvalues --   -0.23131  -0.22851  -0.22561  -0.21832  -0.20542
 Alpha  occ. eigenvalues --   -0.20191  -0.19858  -0.18614  -0.18418  -0.16939
 Alpha  occ. eigenvalues --   -0.15955
 Alpha virt. eigenvalues --   -0.11500  -0.06219  -0.06028  -0.04438  -0.03660
 Alpha virt. eigenvalues --   -0.02305  -0.02093  -0.01889  -0.00429   0.00014
 Alpha virt. eigenvalues --    0.00970   0.01250   0.01606   0.02329   0.02671

 Mulliken charges:
               1
     1  Mg   0.680975
     2  C   -0.035136
     3  C   -0.048974
     4  C   -0.025436
     5  C   -0.065143
     6  N   -0.155038
     7  C   -0.122973
     8  C    0.026251
     9  C   -0.023146
    10  C    0.038489
    11  C    0.151386
    12  C    0.159566
    13  C    0.108900
    14  C    0.053176
    15  O   -0.197464
    16  O   -0.223974
    17  N   -0.283642
    18  C    0.102843
    19  C   -0.106466
    20  C   -0.003089
    21  C    0.062038
    22  C    0.178778
    23  C   -0.056513
    24  O   -0.172651
    25  C    0.133068
    26  N   -0.217236
    27  C    0.008805
    28  C   -0.040493
    29  C    0.120392
    30  C    0.004720
    31  C    0.107246
    32  C    0.048476
    33  C    0.094228
    34  N   -0.291608
    35  C    0.118877
    36  C   -0.184235
    37  C    0.063473
    38  C    0.091947
    39  C    0.177504
    40  C   -0.021828
    41  O   -0.170025
    42  C    0.071139
    43  C    0.116778
    44  O   -0.127396
    45  O   -0.267914
    46  C    0.214696
    47  C    0.328216
    48  C   -0.118194
    49  C   -0.143904
    50  C    0.115695
    51  C    0.119895
    52  C    0.085146
    53  C    0.068892
    54  C   -0.065715
    55  C    0.104695
    56  C    0.079903
    57  C    0.065517
    58  C    0.097102
    59  C   -0.087640
    60  C    0.123612
    61  C    0.134880
    62  C    0.055958
    63  C    0.087172
    64  C   -0.088990
    65  C    0.104838
    66  C    0.109061
    67  H   -0.079265
    68  H   -0.029224
    69  H   -0.062057
    70  H    0.001469
    71  H   -0.035078
    72  H    0.005493
    73  H   -0.000813
    74  H   -0.021343
    75  H   -0.023823
    76  H   -0.010978
    77  H    0.000576
    78  H    0.016682
    79  H   -0.007764
    80  H   -0.005721
    81  H   -0.004411
    82  H    0.005026
    83  H    0.018203
    84  H   -0.007691
    85  H   -0.005889
    86  H   -0.028385
    87  H    0.002573
    88  H    0.002419
    89  H   -0.025282
    90  H   -0.013010
    91  H   -0.015950
    92  H    0.001496
    93  H   -0.014833
    94  H   -0.008148
    95  H    0.003294
    96  H    0.000591
    97  H   -0.003712
    98  H   -0.003212
    99  H    0.013469
   100  H    0.005102
   101  H    0.004444
   102  H   -0.020059
   103  H   -0.011179
   104  H   -0.027131
   105  H    0.008413
   106  H   -0.006692
   107  H   -0.010565
   108  H   -0.013092
   109  H   -0.036871
   110  H   -0.018273
   111  H   -0.019452
   112  H   -0.040508
   113  H   -0.030315
   114  H   -0.033788
   115  H   -0.012769
   116  H   -0.012817
   117  H   -0.027883
   118  H   -0.037599
   119  H   -0.034360
   120  H   -0.010228
   121  H   -0.008288
   122  H   -0.018050
   123  H   -0.044412
   124  H   -0.039385
   125  H   -0.019729
   126  H   -0.002356
   127  H   -0.027122
   128  H   -0.042153
   129  H   -0.039989
   130  H   -0.028615
   131  H   -0.036889
   132  H   -0.024552
   133  H   -0.039818
   134  H   -0.039883
   135  H   -0.029272
   136  H   -0.005697
   137  H   -0.026697
   138  H   -0.027112
   139  H   -0.020766
   140  H   -0.027802
 Sum of Mulliken charges =  -0.00000

 Dipole moment (field-independent basis, Debye):
    X=             -4.4593    Y=              1.8512    Z=              0.5938  Tot=              4.8646
 Quadrupole moment (field-independent basis, Debye-Ang):
   XX=           -380.9386   YY=           -422.8266   ZZ=           -406.4439
   XY=              0.1523   XZ=              5.6390   YZ=              5.1704

 Normal termination of Gaussian 16 at Thu Apr 28 06:21:29 2022.
