 Gaussian 16, Revision A.03,
 Gaussian 16:  ES64L-G16RevA.03 25-Dec-2016

 -----------------------------------
 #p cam-b3lyp/Def2SVP td=(nstates=5)
 -----------------------------------

 -------------------------------------------------------
 step_1451_chromophore_4 TDDFT with cam-b3lyp functional
 -------------------------------------------------------
 Symbolic Z-matrix:
 Charge =  0 Multiplicity = 1

                         Standard orientation:
 ---------------------------------------------------------------------
 Center     Atomic      Atomic             Coordinates (Angstroms)
 Number     Number       Type             X           Y           Z
 ---------------------------------------------------------------------
      1         12           0        6.000237    0.391751    0.246825
      2          6           0        3.523773   -2.032562    0.450841
      3          6           0        3.491920    2.611234   -0.665367
      4          6           0        8.313811    2.833519   -0.117512
      5          6           0        8.474113   -1.957387    0.661820
      6          7           0        3.707739    0.310594   -0.115169
      7          6           0        2.916202   -0.792961    0.009658
      8          6           0        1.388063   -0.556106   -0.287577
      9          6           0        1.598308    0.854277   -1.019131
     10          6           0        3.015760    1.338695   -0.581415
     11          6           0        1.344667    0.854168   -2.577252
     12          6           0        0.576300   -0.657201    1.108590
     13          6           0       -0.633675   -1.562686    1.127165
     14          6           0       -1.570989   -1.552159   -0.048799
     15          8           0       -1.518507   -0.783994   -0.992324
     16          8           0       -2.543611   -2.447419    0.161248
     17          7           0        5.875087    2.474881   -0.239455
     18          6           0        4.733370    3.250983   -0.463863
     19          6           0        5.059623    4.608642   -0.514481
     20          6           0        6.481765    4.695150   -0.324455
     21          6           0        6.969137    3.280220   -0.227443
     22          6           0        4.103865    5.717496   -0.825244
     23          6           0        7.349083    6.017581   -0.210088
     24          8           0        8.583716    6.035034   -0.199462
     25          6           0        6.694305    7.300084    0.041400
     26          7           0        8.120903    0.404143    0.116757
     27          6           0        8.790721    1.500800   -0.117916
     28          6           0       10.357508    1.189258   -0.101595
     29          6           0       10.418400   -0.328498    0.150426
     30          6           0        8.927423   -0.706436    0.309136
     31          6           0       11.023143    1.812730   -1.415412
     32          6           0       11.273229   -0.740240    1.382927
     33          6           0       12.639181   -0.082265    1.655989
     34          7           0        5.998152   -1.630805    0.494890
     35          6           0        7.085938   -2.429839    0.802620
     36          6           0        6.658039   -3.774525    0.913002
     37          6           0        5.221830   -3.706400    0.755639
     38          6           0        4.877652   -2.369456    0.588130
     39          6           0        7.476559   -5.045188    1.009214
     40          6           0        3.930700   -4.477343    0.808437
     41          8           0        3.762803   -5.665521    1.165717
     42          6           0        2.779138   -3.467289    0.578174
     43          6           0        2.037574   -3.866311   -0.680842
     44          8           0        2.537963   -3.916116   -1.743102
     45          8           0        0.731235   -4.221370   -0.433234
     46          6           0        0.029007   -4.917661   -1.457580
     47          6           0       -3.567481   -2.460695   -0.823386
     48          6           0       -4.797994   -1.740286   -0.318050
     49          6           0       -5.977509   -2.279744    0.130404
     50          6           0       -6.225164   -3.813376    0.178781
     51          6           0       -7.304862   -1.485459    0.141102
     52          6           0       -7.684893   -1.035732   -1.333541
     53          6           0       -7.943913    0.484771   -1.269899
     54          6           0       -9.476689    0.812276   -0.844786
     55          6           0      -10.236610    1.128497   -2.090034
     56          6           0       -9.556500    1.924525    0.256471
     57          6           0      -10.341107    1.437678    1.526925
     58          6           0      -11.096044    2.686524    2.107035
     59          6           0      -12.593727    2.482173    2.443549
     60          6           0      -13.044513    3.241752    3.772220
     61          6           0      -13.432682    2.786055    1.221269
     62          6           0      -14.429548    1.651595    0.823546
     63          6           0      -14.426162    1.189318   -0.662868
     64          6           0      -14.259090   -0.278209   -0.881041
     65          6           0      -13.999845   -0.604674   -2.369411
     66          6           0      -15.342016   -1.091808   -0.216063
     67          1           0        2.726750    3.357101   -0.891973
     68          1           0        9.012158    3.627533   -0.392171
     69          1           0        9.228388   -2.741848    0.741602
     70          1           0        1.100037   -1.274243   -1.054957
     71          1           0        0.769104    1.443376   -0.627624
     72          1           0        0.518573    1.488076   -2.899704
     73          1           0        1.303205   -0.179305   -2.922624
     74          1           0        2.272663    1.282012   -2.955630
     75          1           0        0.217079    0.343201    1.351680
     76          1           0        1.251664   -0.964434    1.906791
     77          1           0       -1.265633   -1.120310    1.897739
     78          1           0       -0.438951   -2.596033    1.411798
     79          1           0        3.838427    6.310142    0.049403
     80          1           0        3.135116    5.454269   -1.248917
     81          1           0        4.631833    6.409834   -1.481089
     82          1           0        5.996662    7.120801    0.858965
     83          1           0        6.250098    7.791686   -0.824460
     84          1           0        7.470450    7.967400    0.418393
     85          1           0       10.671714    1.822995    0.727730
     86          1           0       10.737384   -0.862733   -0.743480
     87          1           0       11.814968    2.498601   -1.111555
     88          1           0       10.288993    2.257403   -2.086485
     89          1           0       11.498107    1.106569   -2.095926
     90          1           0       11.362212   -1.796003    1.125608
     91          1           0       10.709863   -0.572351    2.301366
     92          1           0       12.678865    0.812070    1.035406
     93          1           0       13.457822   -0.771125    1.447009
     94          1           0       12.740576    0.079730    2.729185
     95          1           0        7.708985   -5.293866    2.044470
     96          1           0        8.320357   -5.088958    0.320954
     97          1           0        6.809938   -5.844171    0.686315
     98          1           0        2.192616   -3.314308    1.483861
     99          1           0        0.233579   -4.487385   -2.438938
    100          1           0       -1.032757   -4.971429   -1.216677
    101          1           0        0.254036   -5.979667   -1.551800
    102          1           0       -3.835831   -3.474189   -1.122130
    103          1           0       -3.333579   -1.973147   -1.768666
    104          1           0       -4.790787   -0.677632   -0.561635
    105          1           0       -6.970351   -4.183032   -0.525211
    106          1           0       -6.600760   -4.000506    1.184629
    107          1           0       -5.298383   -4.380308    0.095064
    108          1           0       -7.185605   -0.618200    0.790998
    109          1           0       -8.051323   -2.121226    0.617125
    110          1           0       -8.572862   -1.570562   -1.671703
    111          1           0       -6.819672   -1.142850   -1.988213
    112          1           0       -7.698047    0.870862   -2.258509
    113          1           0       -7.223556    0.925711   -0.579138
    114          1           0       -9.960380   -0.093194   -0.478754
    115          1           0       -9.738114    1.933064   -2.631524
    116          1           0      -11.271425    1.284039   -1.782973
    117          1           0      -10.327122    0.318565   -2.813418
    118          1           0      -10.027101    2.806998   -0.178327
    119          1           0       -8.548469    2.255158    0.508308
    120          1           0       -9.442480    1.134456    2.064531
    121          1           0      -11.118556    0.695016    1.342471
    122          1           0      -11.074359    3.585758    1.491452
    123          1           0      -10.604466    2.810770    3.072276
    124          1           0      -12.670041    1.410721    2.627562
    125          1           0      -12.415947    4.107282    3.981113
    126          1           0      -13.104932    2.555166    4.616836
    127          1           0      -13.988750    3.727821    3.528297
    128          1           0      -12.835856    3.043230    0.346243
    129          1           0      -14.061267    3.675631    1.219798
    130          1           0      -15.482900    1.795563    1.062605
    131          1           0      -14.094901    0.780109    1.385547
    132          1           0      -13.647719    1.619733   -1.291976
    133          1           0      -15.431037    1.433583   -1.006792
    134          1           0      -13.342574   -0.595946   -0.383414
    135          1           0      -14.851905   -1.195691   -2.705446
    136          1           0      -13.036052   -1.085067   -2.539076
    137          1           0      -14.062786    0.204418   -3.097341
    138          1           0      -16.282609   -0.569275   -0.043762
    139          1           0      -15.106944   -1.493947    0.770064
    140          1           0      -15.614795   -1.996153   -0.759505
 ---------------------------------------------------------------------

 SCF Done:  E(RCAM-B3LYP) =  -3007.15488708     A.U. after   17 cycles

 Excitation energies and oscillator strengths:

 Excited State   1:      Singlet-A      1.7979 eV  689.62 nm  f=0.4303  <S**2>=0.000
     245 -> 248       -0.18071
     246 -> 247        0.68347
     245 <- 248       -0.10372
 This state for optimization and/or second-order correction.
 Total Energy, E(TD-HF/TD-DFT) =  -3007.08881671
 Copying the excited state density for this state as the 1-particle RhoCI density.

 Excited State   2:      Singlet-A      2.2007 eV  563.39 nm  f=0.1723  <S**2>=0.000
     245 -> 247        0.66141
     246 -> 248        0.22759

 Excited State   3:      Singlet-A      3.2573 eV  380.64 nm  f=0.0017  <S**2>=0.000
     243 -> 247       -0.45352
     244 -> 247        0.52131

 Excited State   4:      Singlet-A      3.3626 eV  368.72 nm  f=0.0299  <S**2>=0.000
     240 -> 247       -0.11748
     243 -> 247        0.48910
     244 -> 247        0.44048
     246 -> 248       -0.13530

 Excited State   5:      Singlet-A      3.5124 eV  352.99 nm  f=0.0007  <S**2>=0.000
     241 -> 247        0.55391
     241 -> 249       -0.31202
     241 -> 250        0.22007
     244 -> 247        0.10604

 The electronic state is 1-A.
 Alpha  occ. eigenvalues --  -46.88684 -19.25791 -19.25018 -19.20317 -19.19993
 Alpha  occ. eigenvalues --  -19.19130 -19.18489 -14.42070 -14.41325 -14.39094
 Alpha  occ. eigenvalues --  -14.38476 -10.39541 -10.39509 -10.35546 -10.35085
 Alpha  occ. eigenvalues --  -10.31751 -10.31307 -10.31104 -10.30932 -10.30683
 Alpha  occ. eigenvalues --  -10.30588 -10.30242 -10.29896 -10.29092 -10.28898
 Alpha  occ. eigenvalues --  -10.28813 -10.28605 -10.28476 -10.28182 -10.28074
 Alpha  occ. eigenvalues --  -10.27775 -10.27770 -10.27734 -10.27581 -10.27409
 Alpha  occ. eigenvalues --  -10.27325 -10.27226 -10.26971 -10.26761 -10.26539
 Alpha  occ. eigenvalues --  -10.26341 -10.26225 -10.26017 -10.25963 -10.25938
 Alpha  occ. eigenvalues --  -10.25884 -10.25833 -10.25695 -10.25684 -10.25617
 Alpha  occ. eigenvalues --  -10.25598 -10.25469 -10.25422 -10.25304 -10.25218
 Alpha  occ. eigenvalues --  -10.25179 -10.25000 -10.24808 -10.24787 -10.24701
 Alpha  occ. eigenvalues --  -10.24697 -10.24618 -10.24524 -10.24507 -10.24333
 Alpha  occ. eigenvalues --  -10.24290  -3.17119  -1.92035  -1.91570  -1.91413
 Alpha  occ. eigenvalues --   -1.18624  -1.17965  -1.09824  -1.09703  -1.08915
 Alpha  occ. eigenvalues --   -1.07595  -1.04282  -1.03724  -1.02684  -1.02159
 Alpha  occ. eigenvalues --   -0.91233  -0.90369  -0.90020  -0.89194  -0.88867
 Alpha  occ. eigenvalues --   -0.88689  -0.88086  -0.87708  -0.86859  -0.86376
 Alpha  occ. eigenvalues --   -0.85602  -0.85094  -0.84138  -0.83126  -0.82713
 Alpha  occ. eigenvalues --   -0.82544  -0.82039  -0.81312  -0.80849  -0.80164
 Alpha  occ. eigenvalues --   -0.79787  -0.77910  -0.77458  -0.77230  -0.76141
 Alpha  occ. eigenvalues --   -0.76037  -0.75444  -0.75060  -0.75015  -0.74479
 Alpha  occ. eigenvalues --   -0.73604  -0.72310  -0.71064  -0.70133  -0.69361
 Alpha  occ. eigenvalues --   -0.68852  -0.67675  -0.67043  -0.66767  -0.65476
 Alpha  occ. eigenvalues --   -0.65201  -0.64678  -0.64427  -0.64163  -0.64106
 Alpha  occ. eigenvalues --   -0.63758  -0.63243  -0.62493  -0.62449  -0.60078
 Alpha  occ. eigenvalues --   -0.59852  -0.59440  -0.59111  -0.58542  -0.57897
 Alpha  occ. eigenvalues --   -0.57288  -0.57194  -0.56534  -0.56005  -0.55522
 Alpha  occ. eigenvalues --   -0.55152  -0.55151  -0.54947  -0.54730  -0.54329
 Alpha  occ. eigenvalues --   -0.54072  -0.54054  -0.53315  -0.53167  -0.52990
 Alpha  occ. eigenvalues --   -0.52797  -0.52539  -0.52157  -0.51686  -0.51646
 Alpha  occ. eigenvalues --   -0.51288  -0.51033  -0.50995  -0.50755  -0.50446
 Alpha  occ. eigenvalues --   -0.50191  -0.50085  -0.49737  -0.49640  -0.49543
 Alpha  occ. eigenvalues --   -0.49299  -0.49231  -0.49025  -0.48931  -0.48481
 Alpha  occ. eigenvalues --   -0.48422  -0.48180  -0.47942  -0.47657  -0.47384
 Alpha  occ. eigenvalues --   -0.47296  -0.47026  -0.46909  -0.46757  -0.46512
 Alpha  occ. eigenvalues --   -0.46338  -0.46251  -0.45942  -0.45914  -0.45812
 Alpha  occ. eigenvalues --   -0.45586  -0.45503  -0.45096  -0.44790  -0.44467
 Alpha  occ. eigenvalues --   -0.44287  -0.44136  -0.43883  -0.43789  -0.43431
 Alpha  occ. eigenvalues --   -0.43367  -0.43290  -0.43221  -0.43081  -0.42748
 Alpha  occ. eigenvalues --   -0.42346  -0.42229  -0.42056  -0.41847  -0.41787
 Alpha  occ. eigenvalues --   -0.41570  -0.41414  -0.41309  -0.41192  -0.41165
 Alpha  occ. eigenvalues --   -0.40795  -0.40630  -0.40466  -0.40378  -0.39978
 Alpha  occ. eigenvalues --   -0.39759  -0.39483  -0.38891  -0.38783  -0.38729
 Alpha  occ. eigenvalues --   -0.38587  -0.38481  -0.38266  -0.37848  -0.37379
 Alpha  occ. eigenvalues --   -0.37207  -0.36839  -0.36687  -0.36475  -0.36181
 Alpha  occ. eigenvalues --   -0.35900  -0.35708  -0.35087  -0.34940  -0.34642
 Alpha  occ. eigenvalues --   -0.33856  -0.33677  -0.32973  -0.31387  -0.31026
 Alpha  occ. eigenvalues --   -0.30421  -0.30180  -0.29703  -0.28719  -0.23606
 Alpha  occ. eigenvalues --   -0.21457
 Alpha virt. eigenvalues --   -0.08720  -0.00870   0.00551   0.02550   0.03092
 Alpha virt. eigenvalues --    0.03737   0.05582   0.05966   0.06280   0.06930
 Alpha virt. eigenvalues --    0.07037   0.07553   0.08637   0.08968   0.09047

 Mulliken charges:
               1
     1  Mg   0.812116
     2  C   -0.044522
     3  C   -0.060639
     4  C   -0.048663
     5  C   -0.076955
     6  N   -0.219059
     7  C   -0.088550
     8  C   -0.018087
     9  C   -0.066652
    10  C    0.045394
    11  C    0.094389
    12  C    0.110100
    13  C    0.034209
    14  C    0.136261
    15  O   -0.240887
    16  O   -0.285552
    17  N   -0.372633
    18  C    0.117938
    19  C   -0.114975
    20  C   -0.070116
    21  C    0.093149
    22  C    0.120144
    23  C    0.029283
    24  O   -0.210068
    25  C    0.043422
    26  N   -0.296819
    27  C    0.043861
    28  C   -0.101852
    29  C    0.063178
    30  C    0.027405
    31  C    0.050269
    32  C   -0.005015
    33  C    0.032998
    34  N   -0.380379
    35  C    0.125043
    36  C   -0.187071
    37  C   -0.009640
    38  C    0.118441
    39  C    0.123191
    40  C    0.071282
    41  O   -0.209127
    42  C   -0.001364
    43  C    0.197653
    44  O   -0.161857
    45  O   -0.331726
    46  C    0.174589
    47  C    0.281856
    48  C   -0.133284
    49  C   -0.161255
    50  C    0.052554
    51  C    0.064161
    52  C    0.030316
    53  C    0.017388
    54  C   -0.120130
    55  C    0.057850
    56  C    0.030120
    57  C    0.016904
    58  C    0.042262
    59  C   -0.145722
    60  C    0.066407
    61  C    0.077634
    62  C    0.004178
    63  C    0.038111
    64  C   -0.145894
    65  C    0.043745
    66  C    0.043383
    67  H   -0.043680
    68  H    0.006807
    69  H   -0.027333
    70  H    0.031738
    71  H    0.001170
    72  H    0.029753
    73  H    0.024273
    74  H    0.004291
    75  H    0.005857
    76  H    0.019975
    77  H    0.034690
    78  H    0.048256
    79  H    0.022158
    80  H    0.024502
    81  H    0.021309
    82  H    0.032626
    83  H    0.047121
    84  H    0.029891
    85  H    0.028666
    86  H    0.007182
    87  H    0.025303
    88  H    0.027780
    89  H    0.001331
    90  H    0.013277
    91  H    0.013044
    92  H    0.020667
    93  H    0.009849
    94  H    0.016265
    95  H    0.028118
    96  H    0.023119
    97  H    0.022882
    98  H    0.038154
    99  H    0.038234
   100  H    0.026156
   101  H    0.027070
   102  H    0.007280
   103  H    0.025171
   104  H    0.002184
   105  H    0.031721
   106  H    0.018114
   107  H    0.014190
   108  H    0.014349
   109  H   -0.006587
   110  H    0.008235
   111  H    0.010374
   112  H   -0.010833
   113  H   -0.004847
   114  H   -0.005621
   115  H    0.010297
   116  H    0.002376
   117  H   -0.003779
   118  H   -0.009931
   119  H   -0.005041
   120  H    0.016387
   121  H    0.013819
   122  H    0.007939
   123  H   -0.012789
   124  H   -0.006759
   125  H    0.004613
   126  H    0.021301
   127  H   -0.002467
   128  H   -0.014063
   129  H   -0.009354
   130  H   -0.000412
   131  H   -0.011243
   132  H   -0.000352
   133  H   -0.010872
   134  H   -0.010323
   135  H   -0.003862
   136  H    0.016668
   137  H   -0.000158
   138  H   -0.002394
   139  H    0.004473
   140  H   -0.000995
 Sum of Mulliken charges =  -0.00000

 Dipole moment (field-independent basis, Debye):
    X=             -4.7460    Y=              3.0714    Z=              0.3578  Tot=              5.6645
 Quadrupole moment (field-independent basis, Debye-Ang):
   XX=           -381.7526   YY=           -417.3351   ZZ=           -406.5141
   XY=              7.2027   XZ=              5.4440   YZ=              5.4333

 Normal termination of Gaussian 16 at Thu Apr 28 05:10:08 2022.
