 Gaussian 16, Revision A.03,
 Gaussian 16:  ES64L-G16RevA.03 25-Dec-2016

 ---------------------------------
 #p PBE1PBE/Def2SVP td=(nstates=5)
 ---------------------------------

 -----------------------------------------------------
 step_1451_chromophore_4 TDDFT with PBE1PBE functional
 -----------------------------------------------------
 Symbolic Z-matrix:
 Charge =  0 Multiplicity = 1

                         Standard orientation:
 ---------------------------------------------------------------------
 Center     Atomic      Atomic             Coordinates (Angstroms)
 Number     Number       Type             X           Y           Z
 ---------------------------------------------------------------------
      1         12           0        6.000237    0.391751    0.246825
      2          6           0        3.523773   -2.032562    0.450841
      3          6           0        3.491920    2.611234   -0.665367
      4          6           0        8.313811    2.833519   -0.117512
      5          6           0        8.474113   -1.957387    0.661820
      6          7           0        3.707739    0.310594   -0.115169
      7          6           0        2.916202   -0.792961    0.009658
      8          6           0        1.388063   -0.556106   -0.287577
      9          6           0        1.598308    0.854277   -1.019131
     10          6           0        3.015760    1.338695   -0.581415
     11          6           0        1.344667    0.854168   -2.577252
     12          6           0        0.576300   -0.657201    1.108590
     13          6           0       -0.633675   -1.562686    1.127165
     14          6           0       -1.570989   -1.552159   -0.048799
     15          8           0       -1.518507   -0.783994   -0.992324
     16          8           0       -2.543611   -2.447419    0.161248
     17          7           0        5.875087    2.474881   -0.239455
     18          6           0        4.733370    3.250983   -0.463863
     19          6           0        5.059623    4.608642   -0.514481
     20          6           0        6.481765    4.695150   -0.324455
     21          6           0        6.969137    3.280220   -0.227443
     22          6           0        4.103865    5.717496   -0.825244
     23          6           0        7.349083    6.017581   -0.210088
     24          8           0        8.583716    6.035034   -0.199462
     25          6           0        6.694305    7.300084    0.041400
     26          7           0        8.120903    0.404143    0.116757
     27          6           0        8.790721    1.500800   -0.117916
     28          6           0       10.357508    1.189258   -0.101595
     29          6           0       10.418400   -0.328498    0.150426
     30          6           0        8.927423   -0.706436    0.309136
     31          6           0       11.023143    1.812730   -1.415412
     32          6           0       11.273229   -0.740240    1.382927
     33          6           0       12.639181   -0.082265    1.655989
     34          7           0        5.998152   -1.630805    0.494890
     35          6           0        7.085938   -2.429839    0.802620
     36          6           0        6.658039   -3.774525    0.913002
     37          6           0        5.221830   -3.706400    0.755639
     38          6           0        4.877652   -2.369456    0.588130
     39          6           0        7.476559   -5.045188    1.009214
     40          6           0        3.930700   -4.477343    0.808437
     41          8           0        3.762803   -5.665521    1.165717
     42          6           0        2.779138   -3.467289    0.578174
     43          6           0        2.037574   -3.866311   -0.680842
     44          8           0        2.537963   -3.916116   -1.743102
     45          8           0        0.731235   -4.221370   -0.433234
     46          6           0        0.029007   -4.917661   -1.457580
     47          6           0       -3.567481   -2.460695   -0.823386
     48          6           0       -4.797994   -1.740286   -0.318050
     49          6           0       -5.977509   -2.279744    0.130404
     50          6           0       -6.225164   -3.813376    0.178781
     51          6           0       -7.304862   -1.485459    0.141102
     52          6           0       -7.684893   -1.035732   -1.333541
     53          6           0       -7.943913    0.484771   -1.269899
     54          6           0       -9.476689    0.812276   -0.844786
     55          6           0      -10.236610    1.128497   -2.090034
     56          6           0       -9.556500    1.924525    0.256471
     57          6           0      -10.341107    1.437678    1.526925
     58          6           0      -11.096044    2.686524    2.107035
     59          6           0      -12.593727    2.482173    2.443549
     60          6           0      -13.044513    3.241752    3.772220
     61          6           0      -13.432682    2.786055    1.221269
     62          6           0      -14.429548    1.651595    0.823546
     63          6           0      -14.426162    1.189318   -0.662868
     64          6           0      -14.259090   -0.278209   -0.881041
     65          6           0      -13.999845   -0.604674   -2.369411
     66          6           0      -15.342016   -1.091808   -0.216063
     67          1           0        2.726750    3.357101   -0.891973
     68          1           0        9.012158    3.627533   -0.392171
     69          1           0        9.228388   -2.741848    0.741602
     70          1           0        1.100037   -1.274243   -1.054957
     71          1           0        0.769104    1.443376   -0.627624
     72          1           0        0.518573    1.488076   -2.899704
     73          1           0        1.303205   -0.179305   -2.922624
     74          1           0        2.272663    1.282012   -2.955630
     75          1           0        0.217079    0.343201    1.351680
     76          1           0        1.251664   -0.964434    1.906791
     77          1           0       -1.265633   -1.120310    1.897739
     78          1           0       -0.438951   -2.596033    1.411798
     79          1           0        3.838427    6.310142    0.049403
     80          1           0        3.135116    5.454269   -1.248917
     81          1           0        4.631833    6.409834   -1.481089
     82          1           0        5.996662    7.120801    0.858965
     83          1           0        6.250098    7.791686   -0.824460
     84          1           0        7.470450    7.967400    0.418393
     85          1           0       10.671714    1.822995    0.727730
     86          1           0       10.737384   -0.862733   -0.743480
     87          1           0       11.814968    2.498601   -1.111555
     88          1           0       10.288993    2.257403   -2.086485
     89          1           0       11.498107    1.106569   -2.095926
     90          1           0       11.362212   -1.796003    1.125608
     91          1           0       10.709863   -0.572351    2.301366
     92          1           0       12.678865    0.812070    1.035406
     93          1           0       13.457822   -0.771125    1.447009
     94          1           0       12.740576    0.079730    2.729185
     95          1           0        7.708985   -5.293866    2.044470
     96          1           0        8.320357   -5.088958    0.320954
     97          1           0        6.809938   -5.844171    0.686315
     98          1           0        2.192616   -3.314308    1.483861
     99          1           0        0.233579   -4.487385   -2.438938
    100          1           0       -1.032757   -4.971429   -1.216677
    101          1           0        0.254036   -5.979667   -1.551800
    102          1           0       -3.835831   -3.474189   -1.122130
    103          1           0       -3.333579   -1.973147   -1.768666
    104          1           0       -4.790787   -0.677632   -0.561635
    105          1           0       -6.970351   -4.183032   -0.525211
    106          1           0       -6.600760   -4.000506    1.184629
    107          1           0       -5.298383   -4.380308    0.095064
    108          1           0       -7.185605   -0.618200    0.790998
    109          1           0       -8.051323   -2.121226    0.617125
    110          1           0       -8.572862   -1.570562   -1.671703
    111          1           0       -6.819672   -1.142850   -1.988213
    112          1           0       -7.698047    0.870862   -2.258509
    113          1           0       -7.223556    0.925711   -0.579138
    114          1           0       -9.960380   -0.093194   -0.478754
    115          1           0       -9.738114    1.933064   -2.631524
    116          1           0      -11.271425    1.284039   -1.782973
    117          1           0      -10.327122    0.318565   -2.813418
    118          1           0      -10.027101    2.806998   -0.178327
    119          1           0       -8.548469    2.255158    0.508308
    120          1           0       -9.442480    1.134456    2.064531
    121          1           0      -11.118556    0.695016    1.342471
    122          1           0      -11.074359    3.585758    1.491452
    123          1           0      -10.604466    2.810770    3.072276
    124          1           0      -12.670041    1.410721    2.627562
    125          1           0      -12.415947    4.107282    3.981113
    126          1           0      -13.104932    2.555166    4.616836
    127          1           0      -13.988750    3.727821    3.528297
    128          1           0      -12.835856    3.043230    0.346243
    129          1           0      -14.061267    3.675631    1.219798
    130          1           0      -15.482900    1.795563    1.062605
    131          1           0      -14.094901    0.780109    1.385547
    132          1           0      -13.647719    1.619733   -1.291976
    133          1           0      -15.431037    1.433583   -1.006792
    134          1           0      -13.342574   -0.595946   -0.383414
    135          1           0      -14.851905   -1.195691   -2.705446
    136          1           0      -13.036052   -1.085067   -2.539076
    137          1           0      -14.062786    0.204418   -3.097341
    138          1           0      -16.282609   -0.569275   -0.043762
    139          1           0      -15.106944   -1.493947    0.770064
    140          1           0      -15.614795   -1.996153   -0.759505
 ---------------------------------------------------------------------

 SCF Done:  E(RPBE1PBE) =  -3005.34302363     A.U. after   15 cycles

 Excitation energies and oscillator strengths:

 Excited State   1:      Singlet-A      1.9294 eV  642.62 nm  f=0.4173  <S**2>=0.000
     245 -> 248       -0.17750
     246 -> 247        0.68832
     246 <- 247       -0.10405
 This state for optimization and/or second-order correction.
 Total Energy, E(TD-HF/TD-DFT) =  -3005.27212128
 Copying the excited state density for this state as the 1-particle RhoCI density.

 Excited State   2:      Singlet-A      2.1949 eV  564.88 nm  f=0.1535  <S**2>=0.000
     245 -> 247        0.66705
     246 -> 248        0.21161

 Excited State   3:      Singlet-A      2.8920 eV  428.72 nm  f=0.0029  <S**2>=0.000
     242 -> 247       -0.17889
     243 -> 247       -0.12125
     244 -> 247        0.66166

 Excited State   4:      Singlet-A      2.9990 eV  413.42 nm  f=0.0094  <S**2>=0.000
     240 -> 247       -0.15930
     242 -> 247       -0.39967
     242 -> 249        0.11989
     243 -> 247        0.52715

 Excited State   5:      Singlet-A      3.0372 eV  408.22 nm  f=0.0117  <S**2>=0.000
     240 -> 247       -0.29085
     242 -> 247        0.49064
     243 -> 247        0.31147
     244 -> 247        0.20415

 The electronic state is 1-A.
 Alpha  occ. eigenvalues --  -46.92091 -19.26457 -19.25654 -19.20490 -19.20273
 Alpha  occ. eigenvalues --  -19.19138 -19.18911 -14.41420 -14.40950 -14.38679
 Alpha  occ. eigenvalues --  -14.38278 -10.36538 -10.36502 -10.32483 -10.32432
 Alpha  occ. eigenvalues --  -10.29157 -10.29049 -10.28525 -10.28481 -10.28167
 Alpha  occ. eigenvalues --  -10.28083 -10.28069 -10.27278 -10.27150 -10.26595
 Alpha  occ. eigenvalues --  -10.26414 -10.26352 -10.26100 -10.25894 -10.25690
 Alpha  occ. eigenvalues --  -10.25558 -10.25531 -10.25398 -10.25382 -10.25289
 Alpha  occ. eigenvalues --  -10.25056 -10.24731 -10.24519 -10.24386 -10.24156
 Alpha  occ. eigenvalues --  -10.23930 -10.23659 -10.23635 -10.23597 -10.23539
 Alpha  occ. eigenvalues --  -10.23433 -10.23427 -10.23418 -10.23166 -10.23137
 Alpha  occ. eigenvalues --  -10.23087 -10.23066 -10.22879 -10.22845 -10.22827
 Alpha  occ. eigenvalues --  -10.22809 -10.22771 -10.22585 -10.22263 -10.22249
 Alpha  occ. eigenvalues --  -10.22214 -10.22213 -10.21915 -10.21895 -10.21871
 Alpha  occ. eigenvalues --  -10.21676  -3.14109  -1.86966  -1.86478  -1.86325
 Alpha  occ. eigenvalues --   -1.13458  -1.12737  -1.04670  -1.04230  -1.03761
 Alpha  occ. eigenvalues --   -1.02487  -0.98858  -0.98373  -0.97514  -0.96705
 Alpha  occ. eigenvalues --   -0.85641  -0.84468  -0.84138  -0.83363  -0.83129
 Alpha  occ. eigenvalues --   -0.82844  -0.82284  -0.81840  -0.80989  -0.80735
 Alpha  occ. eigenvalues --   -0.79855  -0.79586  -0.78320  -0.77370  -0.76975
 Alpha  occ. eigenvalues --   -0.76674  -0.76215  -0.75562  -0.75143  -0.74344
 Alpha  occ. eigenvalues --   -0.74107  -0.72056  -0.71753  -0.71556  -0.70425
 Alpha  occ. eigenvalues --   -0.70229  -0.69698  -0.69352  -0.69163  -0.68652
 Alpha  occ. eigenvalues --   -0.67920  -0.66824  -0.65505  -0.64426  -0.63751
 Alpha  occ. eigenvalues --   -0.63075  -0.62166  -0.61307  -0.61166  -0.59805
 Alpha  occ. eigenvalues --   -0.59583  -0.59136  -0.58722  -0.58636  -0.58408
 Alpha  occ. eigenvalues --   -0.58305  -0.57419  -0.57060  -0.56711  -0.54487
 Alpha  occ. eigenvalues --   -0.54203  -0.53897  -0.53591  -0.53113  -0.52551
 Alpha  occ. eigenvalues --   -0.51888  -0.51666  -0.50991  -0.50534  -0.50132
 Alpha  occ. eigenvalues --   -0.49716  -0.49638  -0.49336  -0.49215  -0.48743
 Alpha  occ. eigenvalues --   -0.48613  -0.48518  -0.47790  -0.47716  -0.47445
 Alpha  occ. eigenvalues --   -0.47186  -0.47043  -0.46619  -0.46326  -0.46220
 Alpha  occ. eigenvalues --   -0.45868  -0.45594  -0.45577  -0.45272  -0.44979
 Alpha  occ. eigenvalues --   -0.44890  -0.44481  -0.44264  -0.44223  -0.44082
 Alpha  occ. eigenvalues --   -0.43842  -0.43776  -0.43650  -0.43568  -0.43170
 Alpha  occ. eigenvalues --   -0.42927  -0.42791  -0.42598  -0.42322  -0.42055
 Alpha  occ. eigenvalues --   -0.41952  -0.41669  -0.41516  -0.41416  -0.41226
 Alpha  occ. eigenvalues --   -0.40992  -0.40869  -0.40684  -0.40621  -0.40514
 Alpha  occ. eigenvalues --   -0.40247  -0.40211  -0.39828  -0.39436  -0.39253
 Alpha  occ. eigenvalues --   -0.39124  -0.38920  -0.38704  -0.38488  -0.38254
 Alpha  occ. eigenvalues --   -0.38212  -0.38041  -0.37866  -0.37846  -0.37639
 Alpha  occ. eigenvalues --   -0.37173  -0.37070  -0.36757  -0.36693  -0.36583
 Alpha  occ. eigenvalues --   -0.36292  -0.36232  -0.36181  -0.35950  -0.35933
 Alpha  occ. eigenvalues --   -0.35603  -0.35520  -0.35365  -0.35153  -0.34970
 Alpha  occ. eigenvalues --   -0.34614  -0.34250  -0.33747  -0.33685  -0.33575
 Alpha  occ. eigenvalues --   -0.33420  -0.33403  -0.33062  -0.32843  -0.32215
 Alpha  occ. eigenvalues --   -0.32211  -0.31766  -0.31560  -0.31503  -0.31218
 Alpha  occ. eigenvalues --   -0.30797  -0.30586  -0.29886  -0.29875  -0.29511
 Alpha  occ. eigenvalues --   -0.29048  -0.28693  -0.28616  -0.26816  -0.25810
 Alpha  occ. eigenvalues --   -0.25505  -0.25460  -0.25134  -0.24559  -0.20564
 Alpha  occ. eigenvalues --   -0.18991
 Alpha virt. eigenvalues --   -0.11149  -0.04466  -0.03708  -0.01857  -0.00728
 Alpha virt. eigenvalues --    0.00345   0.00885   0.01347   0.02416   0.02989
 Alpha virt. eigenvalues --    0.03702   0.03707   0.04789   0.05223   0.05596

 Mulliken charges:
               1
     1  Mg   0.958765
     2  C   -0.050919
     3  C   -0.060364
     4  C   -0.030966
     5  C   -0.073691
     6  N   -0.321573
     7  C   -0.017588
     8  C   -0.083220
     9  C   -0.134693
    10  C    0.075371
    11  C    0.036644
    12  C    0.060321
    13  C   -0.046059
    14  C    0.207652
    15  O   -0.273985
    16  O   -0.317886
    17  N   -0.482141
    18  C    0.144315
    19  C   -0.150090
    20  C   -0.118252
    21  C    0.120035
    22  C    0.064621
    23  C    0.079964
    24  O   -0.247889
    25  C   -0.032176
    26  N   -0.403962
    27  C    0.082807
    28  C   -0.180156
    29  C   -0.016250
    30  C    0.067056
    31  C   -0.004152
    32  C   -0.065418
    33  C   -0.039926
    34  N   -0.506408
    35  C    0.155280
    36  C   -0.210308
    37  C   -0.056001
    38  C    0.169274
    39  C    0.065684
    40  C    0.162929
    41  O   -0.250313
    42  C   -0.105562
    43  C    0.286731
    44  O   -0.198224
    45  O   -0.366655
    46  C    0.119436
    47  C    0.230140
    48  C   -0.144975
    49  C   -0.196136
    50  C   -0.013397
    51  C    0.004975
    52  C   -0.034781
    53  C   -0.039485
    54  C   -0.202302
    55  C   -0.011260
    56  C   -0.019103
    57  C   -0.049202
    58  C   -0.014944
    59  C   -0.234591
    60  C    0.005698
    61  C    0.030344
    62  C   -0.059103
    63  C   -0.020760
    64  C   -0.245481
    65  C   -0.014544
    66  C   -0.013789
    67  H   -0.009910
    68  H    0.037938
    69  H    0.006026
    70  H    0.072141
    71  H    0.038288
    72  H    0.055512
    73  H    0.050429
    74  H    0.034180
    75  H    0.038396
    76  H    0.052575
    77  H    0.069245
    78  H    0.079171
    79  H    0.048717
    80  H    0.049424
    81  H    0.048950
    82  H    0.059704
    83  H    0.071770
    84  H    0.056940
    85  H    0.065366
    86  H    0.044641
    87  H    0.051160
    88  H    0.055001
    89  H    0.028644
    90  H    0.046055
    91  H    0.045486
    92  H    0.050192
    93  H    0.038146
    94  H    0.043989
    95  H    0.057752
    96  H    0.050244
    97  H    0.052566
    98  H    0.075602
    99  H    0.059267
   100  H    0.049110
   101  H    0.049255
   102  H    0.034105
   103  H    0.053158
   104  H    0.032402
   105  H    0.058944
   106  H    0.047529
   107  H    0.041230
   108  H    0.047287
   109  H    0.024962
   110  H    0.040179
   111  H    0.043978
   112  H    0.021722
   113  H    0.026626
   114  H    0.031529
   115  H    0.037801
   116  H    0.040323
   117  H    0.024984
   118  H    0.021824
   119  H    0.026729
   120  H    0.049628
   121  H    0.046488
   122  H    0.038998
   123  H    0.022378
   124  H    0.031544
   125  H    0.031835
   126  H    0.048040
   127  H    0.025833
   128  H    0.018263
   129  H    0.022928
   130  H    0.030938
   131  H    0.022580
   132  H    0.032940
   133  H    0.024003
   134  H    0.030768
   135  H    0.023739
   136  H    0.043345
   137  H    0.026554
   138  H    0.024838
   139  H    0.031199
   140  H    0.026515
 Sum of Mulliken charges =  -0.00000

 Dipole moment (field-independent basis, Debye):
    X=             -4.6690    Y=              2.4913    Z=              0.4186  Tot=              5.3086
 Quadrupole moment (field-independent basis, Debye-Ang):
   XX=           -373.9809   YY=           -415.2126   ZZ=           -404.0453
   XY=              3.2372   XZ=              6.4605   YZ=              5.3005

 Normal termination of Gaussian 16 at Thu Apr 28 05:31:52 2022.
