 Gaussian 16, Revision A.03,
 Gaussian 16:  ES64L-G16RevA.03 25-Dec-2016

 --------------------------------
 #p wB97XD/Def2SVP td=(nstates=5)
 --------------------------------

 ----------------------------------------------------
 step_1451_chromophore_4 TDDFT with wB97XD functional
 ----------------------------------------------------
 Symbolic Z-matrix:
 Charge =  0 Multiplicity = 1

                         Standard orientation:
 ---------------------------------------------------------------------
 Center     Atomic      Atomic             Coordinates (Angstroms)
 Number     Number       Type             X           Y           Z
 ---------------------------------------------------------------------
      1         12           0        6.000237    0.391751    0.246825
      2          6           0        3.523773   -2.032562    0.450841
      3          6           0        3.491920    2.611234   -0.665367
      4          6           0        8.313811    2.833519   -0.117512
      5          6           0        8.474113   -1.957387    0.661820
      6          7           0        3.707739    0.310594   -0.115169
      7          6           0        2.916202   -0.792961    0.009658
      8          6           0        1.388063   -0.556106   -0.287577
      9          6           0        1.598308    0.854277   -1.019131
     10          6           0        3.015760    1.338695   -0.581415
     11          6           0        1.344667    0.854168   -2.577252
     12          6           0        0.576300   -0.657201    1.108590
     13          6           0       -0.633675   -1.562686    1.127165
     14          6           0       -1.570989   -1.552159   -0.048799
     15          8           0       -1.518507   -0.783994   -0.992324
     16          8           0       -2.543611   -2.447419    0.161248
     17          7           0        5.875087    2.474881   -0.239455
     18          6           0        4.733370    3.250983   -0.463863
     19          6           0        5.059623    4.608642   -0.514481
     20          6           0        6.481765    4.695150   -0.324455
     21          6           0        6.969137    3.280220   -0.227443
     22          6           0        4.103865    5.717496   -0.825244
     23          6           0        7.349083    6.017581   -0.210088
     24          8           0        8.583716    6.035034   -0.199462
     25          6           0        6.694305    7.300084    0.041400
     26          7           0        8.120903    0.404143    0.116757
     27          6           0        8.790721    1.500800   -0.117916
     28          6           0       10.357508    1.189258   -0.101595
     29          6           0       10.418400   -0.328498    0.150426
     30          6           0        8.927423   -0.706436    0.309136
     31          6           0       11.023143    1.812730   -1.415412
     32          6           0       11.273229   -0.740240    1.382927
     33          6           0       12.639181   -0.082265    1.655989
     34          7           0        5.998152   -1.630805    0.494890
     35          6           0        7.085938   -2.429839    0.802620
     36          6           0        6.658039   -3.774525    0.913002
     37          6           0        5.221830   -3.706400    0.755639
     38          6           0        4.877652   -2.369456    0.588130
     39          6           0        7.476559   -5.045188    1.009214
     40          6           0        3.930700   -4.477343    0.808437
     41          8           0        3.762803   -5.665521    1.165717
     42          6           0        2.779138   -3.467289    0.578174
     43          6           0        2.037574   -3.866311   -0.680842
     44          8           0        2.537963   -3.916116   -1.743102
     45          8           0        0.731235   -4.221370   -0.433234
     46          6           0        0.029007   -4.917661   -1.457580
     47          6           0       -3.567481   -2.460695   -0.823386
     48          6           0       -4.797994   -1.740286   -0.318050
     49          6           0       -5.977509   -2.279744    0.130404
     50          6           0       -6.225164   -3.813376    0.178781
     51          6           0       -7.304862   -1.485459    0.141102
     52          6           0       -7.684893   -1.035732   -1.333541
     53          6           0       -7.943913    0.484771   -1.269899
     54          6           0       -9.476689    0.812276   -0.844786
     55          6           0      -10.236610    1.128497   -2.090034
     56          6           0       -9.556500    1.924525    0.256471
     57          6           0      -10.341107    1.437678    1.526925
     58          6           0      -11.096044    2.686524    2.107035
     59          6           0      -12.593727    2.482173    2.443549
     60          6           0      -13.044513    3.241752    3.772220
     61          6           0      -13.432682    2.786055    1.221269
     62          6           0      -14.429548    1.651595    0.823546
     63          6           0      -14.426162    1.189318   -0.662868
     64          6           0      -14.259090   -0.278209   -0.881041
     65          6           0      -13.999845   -0.604674   -2.369411
     66          6           0      -15.342016   -1.091808   -0.216063
     67          1           0        2.726750    3.357101   -0.891973
     68          1           0        9.012158    3.627533   -0.392171
     69          1           0        9.228388   -2.741848    0.741602
     70          1           0        1.100037   -1.274243   -1.054957
     71          1           0        0.769104    1.443376   -0.627624
     72          1           0        0.518573    1.488076   -2.899704
     73          1           0        1.303205   -0.179305   -2.922624
     74          1           0        2.272663    1.282012   -2.955630
     75          1           0        0.217079    0.343201    1.351680
     76          1           0        1.251664   -0.964434    1.906791
     77          1           0       -1.265633   -1.120310    1.897739
     78          1           0       -0.438951   -2.596033    1.411798
     79          1           0        3.838427    6.310142    0.049403
     80          1           0        3.135116    5.454269   -1.248917
     81          1           0        4.631833    6.409834   -1.481089
     82          1           0        5.996662    7.120801    0.858965
     83          1           0        6.250098    7.791686   -0.824460
     84          1           0        7.470450    7.967400    0.418393
     85          1           0       10.671714    1.822995    0.727730
     86          1           0       10.737384   -0.862733   -0.743480
     87          1           0       11.814968    2.498601   -1.111555
     88          1           0       10.288993    2.257403   -2.086485
     89          1           0       11.498107    1.106569   -2.095926
     90          1           0       11.362212   -1.796003    1.125608
     91          1           0       10.709863   -0.572351    2.301366
     92          1           0       12.678865    0.812070    1.035406
     93          1           0       13.457822   -0.771125    1.447009
     94          1           0       12.740576    0.079730    2.729185
     95          1           0        7.708985   -5.293866    2.044470
     96          1           0        8.320357   -5.088958    0.320954
     97          1           0        6.809938   -5.844171    0.686315
     98          1           0        2.192616   -3.314308    1.483861
     99          1           0        0.233579   -4.487385   -2.438938
    100          1           0       -1.032757   -4.971429   -1.216677
    101          1           0        0.254036   -5.979667   -1.551800
    102          1           0       -3.835831   -3.474189   -1.122130
    103          1           0       -3.333579   -1.973147   -1.768666
    104          1           0       -4.790787   -0.677632   -0.561635
    105          1           0       -6.970351   -4.183032   -0.525211
    106          1           0       -6.600760   -4.000506    1.184629
    107          1           0       -5.298383   -4.380308    0.095064
    108          1           0       -7.185605   -0.618200    0.790998
    109          1           0       -8.051323   -2.121226    0.617125
    110          1           0       -8.572862   -1.570562   -1.671703
    111          1           0       -6.819672   -1.142850   -1.988213
    112          1           0       -7.698047    0.870862   -2.258509
    113          1           0       -7.223556    0.925711   -0.579138
    114          1           0       -9.960380   -0.093194   -0.478754
    115          1           0       -9.738114    1.933064   -2.631524
    116          1           0      -11.271425    1.284039   -1.782973
    117          1           0      -10.327122    0.318565   -2.813418
    118          1           0      -10.027101    2.806998   -0.178327
    119          1           0       -8.548469    2.255158    0.508308
    120          1           0       -9.442480    1.134456    2.064531
    121          1           0      -11.118556    0.695016    1.342471
    122          1           0      -11.074359    3.585758    1.491452
    123          1           0      -10.604466    2.810770    3.072276
    124          1           0      -12.670041    1.410721    2.627562
    125          1           0      -12.415947    4.107282    3.981113
    126          1           0      -13.104932    2.555166    4.616836
    127          1           0      -13.988750    3.727821    3.528297
    128          1           0      -12.835856    3.043230    0.346243
    129          1           0      -14.061267    3.675631    1.219798
    130          1           0      -15.482900    1.795563    1.062605
    131          1           0      -14.094901    0.780109    1.385547
    132          1           0      -13.647719    1.619733   -1.291976
    133          1           0      -15.431037    1.433583   -1.006792
    134          1           0      -13.342574   -0.595946   -0.383414
    135          1           0      -14.851905   -1.195691   -2.705446
    136          1           0      -13.036052   -1.085067   -2.539076
    137          1           0      -14.062786    0.204418   -3.097341
    138          1           0      -16.282609   -0.569275   -0.043762
    139          1           0      -15.106944   -1.493947    0.770064
    140          1           0      -15.614795   -1.996153   -0.759505
 ---------------------------------------------------------------------

 SCF Done:  E(RwB97XD) =  -3007.85624702     A.U. after   16 cycles

 Excitation energies and oscillator strengths:

 Excited State   1:      Singlet-A      1.7530 eV  707.27 nm  f=0.4295  <S**2>=0.000
     245 -> 248       -0.18524
     246 -> 247        0.68234
     245 <- 248       -0.11146
 This state for optimization and/or second-order correction.
 Total Energy, E(TD-HF/TD-DFT) =  -3007.79182535
 Copying the excited state density for this state as the 1-particle RhoCI density.

 Excited State   2:      Singlet-A      2.1549 eV  575.35 nm  f=0.1667  <S**2>=0.000
     245 -> 247        0.65961
     246 -> 248        0.23011

 Excited State   3:      Singlet-A      3.2765 eV  378.40 nm  f=0.0041  <S**2>=0.000
     243 -> 247        0.54020
     244 -> 247       -0.41668

 Excited State   4:      Singlet-A      3.3998 eV  364.68 nm  f=0.0261  <S**2>=0.000
     243 -> 247        0.37756
     244 -> 247        0.52815
     246 -> 248       -0.14498

 Excited State   5:      Singlet-A      3.5591 eV  348.36 nm  f=0.0006  <S**2>=0.000
     241 -> 247        0.52798
     241 -> 249       -0.32387
     241 -> 250        0.23331
     244 -> 247        0.10375

 The electronic state is 1-A.
 Alpha  occ. eigenvalues --  -46.95023 -19.31004 -19.30202 -19.25182 -19.24907
 Alpha  occ. eigenvalues --  -19.24218 -19.23511 -14.46678 -14.45877 -14.43735
 Alpha  occ. eigenvalues --  -14.43041 -10.43344 -10.43282 -10.39580 -10.39090
 Alpha  occ. eigenvalues --  -10.35641 -10.35110 -10.35006 -10.34989 -10.34817
 Alpha  occ. eigenvalues --  -10.34648 -10.34222 -10.34019 -10.33053 -10.33038
 Alpha  occ. eigenvalues --  -10.32926 -10.32761 -10.32582 -10.32281 -10.32202
 Alpha  occ. eigenvalues --  -10.31848 -10.31705 -10.31695 -10.31636 -10.31420
 Alpha  occ. eigenvalues --  -10.31327 -10.31129 -10.31008 -10.30851 -10.30526
 Alpha  occ. eigenvalues --  -10.30285 -10.30071 -10.29932 -10.29885 -10.29880
 Alpha  occ. eigenvalues --  -10.29879 -10.29778 -10.29749 -10.29688 -10.29525
 Alpha  occ. eigenvalues --  -10.29487 -10.29346 -10.29329 -10.29178 -10.29110
 Alpha  occ. eigenvalues --  -10.28996 -10.28943 -10.28787 -10.28643 -10.28632
 Alpha  occ. eigenvalues --  -10.28622 -10.28563 -10.28356 -10.28326 -10.28244
 Alpha  occ. eigenvalues --  -10.28108  -3.20908  -1.94512  -1.94027  -1.93868
 Alpha  occ. eigenvalues --   -1.20807  -1.20086  -1.11988  -1.11976  -1.11080
 Alpha  occ. eigenvalues --   -1.09789  -1.06296  -1.05716  -1.04712  -1.04232
 Alpha  occ. eigenvalues --   -0.93169  -0.92141  -0.91797  -0.91007  -0.90788
 Alpha  occ. eigenvalues --   -0.90493  -0.89998  -0.89502  -0.88854  -0.88290
 Alpha  occ. eigenvalues --   -0.87480  -0.86987  -0.85980  -0.85058  -0.84601
 Alpha  occ. eigenvalues --   -0.84427  -0.83934  -0.83191  -0.82758  -0.82005
 Alpha  occ. eigenvalues --   -0.81726  -0.79927  -0.79369  -0.79120  -0.77948
 Alpha  occ. eigenvalues --   -0.77918  -0.77318  -0.76981  -0.76841  -0.76319
 Alpha  occ. eigenvalues --   -0.75528  -0.74287  -0.73036  -0.72049  -0.71268
 Alpha  occ. eigenvalues --   -0.70719  -0.69684  -0.68916  -0.68768  -0.67373
 Alpha  occ. eigenvalues --   -0.67142  -0.66689  -0.66277  -0.66069  -0.66015
 Alpha  occ. eigenvalues --   -0.65738  -0.65067  -0.64405  -0.64330  -0.62133
 Alpha  occ. eigenvalues --   -0.61732  -0.61389  -0.61032  -0.60494  -0.59857
 Alpha  occ. eigenvalues --   -0.59286  -0.59137  -0.58452  -0.58003  -0.57483
 Alpha  occ. eigenvalues --   -0.57112  -0.57036  -0.56816  -0.56607  -0.56177
 Alpha  occ. eigenvalues --   -0.55964  -0.55949  -0.55200  -0.55141  -0.54925
 Alpha  occ. eigenvalues --   -0.54740  -0.54413  -0.54131  -0.53587  -0.53517
 Alpha  occ. eigenvalues --   -0.53228  -0.52922  -0.52881  -0.52627  -0.52319
 Alpha  occ. eigenvalues --   -0.52101  -0.52085  -0.51693  -0.51533  -0.51426
 Alpha  occ. eigenvalues --   -0.51174  -0.51133  -0.50929  -0.50851  -0.50463
 Alpha  occ. eigenvalues --   -0.50364  -0.50073  -0.49842  -0.49559  -0.49337
 Alpha  occ. eigenvalues --   -0.49192  -0.48931  -0.48847  -0.48683  -0.48432
 Alpha  occ. eigenvalues --   -0.48245  -0.48120  -0.47850  -0.47830  -0.47714
 Alpha  occ. eigenvalues --   -0.47457  -0.47408  -0.47005  -0.46650  -0.46386
 Alpha  occ. eigenvalues --   -0.46171  -0.46040  -0.45803  -0.45658  -0.45364
 Alpha  occ. eigenvalues --   -0.45301  -0.45230  -0.45135  -0.44985  -0.44653
 Alpha  occ. eigenvalues --   -0.44285  -0.44147  -0.43915  -0.43837  -0.43743
 Alpha  occ. eigenvalues --   -0.43546  -0.43291  -0.43209  -0.43068  -0.43021
 Alpha  occ. eigenvalues --   -0.42669  -0.42555  -0.42376  -0.42256  -0.41886
 Alpha  occ. eigenvalues --   -0.41667  -0.41321  -0.40765  -0.40643  -0.40636
 Alpha  occ. eigenvalues --   -0.40434  -0.40368  -0.40118  -0.39742  -0.39253
 Alpha  occ. eigenvalues --   -0.39128  -0.38845  -0.38597  -0.38557  -0.38100
 Alpha  occ. eigenvalues --   -0.37768  -0.37569  -0.36989  -0.36784  -0.36536
 Alpha  occ. eigenvalues --   -0.35830  -0.35535  -0.35238  -0.33509  -0.33122
 Alpha  occ. eigenvalues --   -0.32354  -0.32208  -0.31938  -0.30830  -0.25536
 Alpha  occ. eigenvalues --   -0.23281
 Alpha virt. eigenvalues --   -0.07069   0.01054   0.02592   0.04627   0.05951
 Alpha virt. eigenvalues --    0.06184   0.07734   0.08252   0.09048   0.09483
 Alpha virt. eigenvalues --    0.10073   0.10304   0.11669   0.11804   0.12357

 Mulliken charges:
               1
     1  Mg   0.949339
     2  C   -0.053049
     3  C   -0.072933
     4  C   -0.057964
     5  C   -0.088065
     6  N   -0.284590
     7  C   -0.049513
     8  C   -0.058977
     9  C   -0.113382
    10  C    0.064448
    11  C    0.048053
    12  C    0.072478
    13  C   -0.029181
    14  C    0.194076
    15  O   -0.270874
    16  O   -0.316061
    17  N   -0.453962
    18  C    0.138382
    19  C   -0.135393
    20  C   -0.112265
    21  C    0.118117
    22  C    0.074705
    23  C    0.077882
    24  O   -0.240146
    25  C   -0.021879
    26  N   -0.371938
    27  C    0.075754
    28  C   -0.157846
    29  C    0.009640
    30  C    0.053270
    31  C    0.005538
    32  C   -0.050429
    33  C   -0.022192
    34  N   -0.469955
    35  C    0.141154
    36  C   -0.205469
    37  C   -0.051320
    38  C    0.150161
    39  C    0.076888
    40  C    0.141766
    41  O   -0.242827
    42  C   -0.065487
    43  C    0.261263
    44  O   -0.192249
    45  O   -0.362757
    46  C    0.133497
    47  C    0.248718
    48  C   -0.154607
    49  C   -0.183394
    50  C    0.001317
    51  C    0.019673
    52  C   -0.016652
    53  C   -0.019779
    54  C   -0.174317
    55  C    0.012956
    56  C   -0.005095
    57  C   -0.028285
    58  C    0.002170
    59  C   -0.201579
    60  C    0.018301
    61  C    0.039618
    62  C   -0.036002
    63  C   -0.001657
    64  C   -0.208477
    65  C   -0.004534
    66  C   -0.005838
    67  H   -0.017833
    68  H    0.031311
    69  H   -0.001509
    70  H    0.054160
    71  H    0.028827
    72  H    0.051831
    73  H    0.046509
    74  H    0.025560
    75  H    0.030671
    76  H    0.044354
    77  H    0.063273
    78  H    0.072814
    79  H    0.045564
    80  H    0.048064
    81  H    0.042290
    82  H    0.053509
    83  H    0.069329
    84  H    0.056654
    85  H    0.054417
    86  H    0.035372
    87  H    0.046177
    88  H    0.048334
    89  H    0.023843
    90  H    0.037077
    91  H    0.037413
    92  H    0.040354
    93  H    0.032603
    94  H    0.038730
    95  H    0.051726
    96  H    0.044186
    97  H    0.046910
    98  H    0.067120
    99  H    0.055283
   100  H    0.045930
   101  H    0.045186
   102  H    0.028243
   103  H    0.048573
   104  H    0.028008
   105  H    0.053612
   106  H    0.040895
   107  H    0.035124
   108  H    0.036686
   109  H    0.018184
   110  H    0.032185
   111  H    0.033913
   112  H    0.014037
   113  H    0.014518
   114  H    0.016532
   115  H    0.031072
   116  H    0.021424
   117  H    0.018500
   118  H    0.010231
   119  H    0.019154
   120  H    0.041653
   121  H    0.032506
   122  H    0.028687
   123  H    0.013732
   124  H    0.017145
   125  H    0.025771
   126  H    0.043835
   127  H    0.018901
   128  H    0.005344
   129  H    0.015963
   130  H    0.024530
   131  H    0.005506
   132  H    0.019007
   133  H    0.014014
   134  H    0.016225
   135  H    0.017112
   136  H    0.038676
   137  H    0.021074
   138  H    0.018183
   139  H    0.026158
   140  H    0.020807
 Sum of Mulliken charges =  -0.00000

 Dipole moment (field-independent basis, Debye):
    X=             -4.8247    Y=              3.3061    Z=              0.3051  Tot=              5.8567
 Quadrupole moment (field-independent basis, Debye-Ang):
   XX=           -376.8080   YY=           -412.5441   ZZ=           -403.6629
   XY=              8.3953   XZ=              5.6927   YZ=              5.5070

 Normal termination of Gaussian 16 at Thu Apr 28 06:04:17 2022.
