 Gaussian 16, Revision A.03,
 Gaussian 16:  ES64L-G16RevA.03 25-Dec-2016

 --------------------
 #p ZINDO=(nstates=5)
 --------------------

 -----------------------------
 step_1451_chromophore_4 ZINDO
 -----------------------------
 Symbolic Z-matrix:
 Charge =  0 Multiplicity = 1

                         Standard orientation:
 ---------------------------------------------------------------------
 Center     Atomic      Atomic             Coordinates (Angstroms)
 Number     Number       Type             X           Y           Z
 ---------------------------------------------------------------------
      1         12           0        6.000237    0.391751    0.246825
      2          6           0        3.523773   -2.032562    0.450841
      3          6           0        3.491920    2.611234   -0.665367
      4          6           0        8.313811    2.833519   -0.117512
      5          6           0        8.474113   -1.957387    0.661820
      6          7           0        3.707739    0.310594   -0.115169
      7          6           0        2.916202   -0.792961    0.009658
      8          6           0        1.388063   -0.556106   -0.287577
      9          6           0        1.598308    0.854277   -1.019131
     10          6           0        3.015760    1.338695   -0.581415
     11          6           0        1.344667    0.854168   -2.577252
     12          6           0        0.576300   -0.657201    1.108590
     13          6           0       -0.633675   -1.562686    1.127165
     14          6           0       -1.570989   -1.552159   -0.048799
     15          8           0       -1.518507   -0.783994   -0.992324
     16          8           0       -2.543611   -2.447419    0.161248
     17          7           0        5.875087    2.474881   -0.239455
     18          6           0        4.733370    3.250983   -0.463863
     19          6           0        5.059623    4.608642   -0.514481
     20          6           0        6.481765    4.695150   -0.324455
     21          6           0        6.969137    3.280220   -0.227443
     22          6           0        4.103865    5.717496   -0.825244
     23          6           0        7.349083    6.017581   -0.210088
     24          8           0        8.583716    6.035034   -0.199462
     25          6           0        6.694305    7.300084    0.041400
     26          7           0        8.120903    0.404143    0.116757
     27          6           0        8.790721    1.500800   -0.117916
     28          6           0       10.357508    1.189258   -0.101595
     29          6           0       10.418400   -0.328498    0.150426
     30          6           0        8.927423   -0.706436    0.309136
     31          6           0       11.023143    1.812730   -1.415412
     32          6           0       11.273229   -0.740240    1.382927
     33          6           0       12.639181   -0.082265    1.655989
     34          7           0        5.998152   -1.630805    0.494890
     35          6           0        7.085938   -2.429839    0.802620
     36          6           0        6.658039   -3.774525    0.913002
     37          6           0        5.221830   -3.706400    0.755639
     38          6           0        4.877652   -2.369456    0.588130
     39          6           0        7.476559   -5.045188    1.009214
     40          6           0        3.930700   -4.477343    0.808437
     41          8           0        3.762803   -5.665521    1.165717
     42          6           0        2.779138   -3.467289    0.578174
     43          6           0        2.037574   -3.866311   -0.680842
     44          8           0        2.537963   -3.916116   -1.743102
     45          8           0        0.731235   -4.221370   -0.433234
     46          6           0        0.029007   -4.917661   -1.457580
     47          6           0       -3.567481   -2.460695   -0.823386
     48          6           0       -4.797994   -1.740286   -0.318050
     49          6           0       -5.977509   -2.279744    0.130404
     50          6           0       -6.225164   -3.813376    0.178781
     51          6           0       -7.304862   -1.485459    0.141102
     52          6           0       -7.684893   -1.035732   -1.333541
     53          6           0       -7.943913    0.484771   -1.269899
     54          6           0       -9.476689    0.812276   -0.844786
     55          6           0      -10.236610    1.128497   -2.090034
     56          6           0       -9.556500    1.924525    0.256471
     57          6           0      -10.341107    1.437678    1.526925
     58          6           0      -11.096044    2.686524    2.107035
     59          6           0      -12.593727    2.482173    2.443549
     60          6           0      -13.044513    3.241752    3.772220
     61          6           0      -13.432682    2.786055    1.221269
     62          6           0      -14.429548    1.651595    0.823546
     63          6           0      -14.426162    1.189318   -0.662868
     64          6           0      -14.259090   -0.278209   -0.881041
     65          6           0      -13.999845   -0.604674   -2.369411
     66          6           0      -15.342016   -1.091808   -0.216063
     67          1           0        2.726750    3.357101   -0.891973
     68          1           0        9.012158    3.627533   -0.392171
     69          1           0        9.228388   -2.741848    0.741602
     70          1           0        1.100037   -1.274243   -1.054957
     71          1           0        0.769104    1.443376   -0.627624
     72          1           0        0.518573    1.488076   -2.899704
     73          1           0        1.303205   -0.179305   -2.922624
     74          1           0        2.272663    1.282012   -2.955630
     75          1           0        0.217079    0.343201    1.351680
     76          1           0        1.251664   -0.964434    1.906791
     77          1           0       -1.265633   -1.120310    1.897739
     78          1           0       -0.438951   -2.596033    1.411798
     79          1           0        3.838427    6.310142    0.049403
     80          1           0        3.135116    5.454269   -1.248917
     81          1           0        4.631833    6.409834   -1.481089
     82          1           0        5.996662    7.120801    0.858965
     83          1           0        6.250098    7.791686   -0.824460
     84          1           0        7.470450    7.967400    0.418393
     85          1           0       10.671714    1.822995    0.727730
     86          1           0       10.737384   -0.862733   -0.743480
     87          1           0       11.814968    2.498601   -1.111555
     88          1           0       10.288993    2.257403   -2.086485
     89          1           0       11.498107    1.106569   -2.095926
     90          1           0       11.362212   -1.796003    1.125608
     91          1           0       10.709863   -0.572351    2.301366
     92          1           0       12.678865    0.812070    1.035406
     93          1           0       13.457822   -0.771125    1.447009
     94          1           0       12.740576    0.079730    2.729185
     95          1           0        7.708985   -5.293866    2.044470
     96          1           0        8.320357   -5.088958    0.320954
     97          1           0        6.809938   -5.844171    0.686315
     98          1           0        2.192616   -3.314308    1.483861
     99          1           0        0.233579   -4.487385   -2.438938
    100          1           0       -1.032757   -4.971429   -1.216677
    101          1           0        0.254036   -5.979667   -1.551800
    102          1           0       -3.835831   -3.474189   -1.122130
    103          1           0       -3.333579   -1.973147   -1.768666
    104          1           0       -4.790787   -0.677632   -0.561635
    105          1           0       -6.970351   -4.183032   -0.525211
    106          1           0       -6.600760   -4.000506    1.184629
    107          1           0       -5.298383   -4.380308    0.095064
    108          1           0       -7.185605   -0.618200    0.790998
    109          1           0       -8.051323   -2.121226    0.617125
    110          1           0       -8.572862   -1.570562   -1.671703
    111          1           0       -6.819672   -1.142850   -1.988213
    112          1           0       -7.698047    0.870862   -2.258509
    113          1           0       -7.223556    0.925711   -0.579138
    114          1           0       -9.960380   -0.093194   -0.478754
    115          1           0       -9.738114    1.933064   -2.631524
    116          1           0      -11.271425    1.284039   -1.782973
    117          1           0      -10.327122    0.318565   -2.813418
    118          1           0      -10.027101    2.806998   -0.178327
    119          1           0       -8.548469    2.255158    0.508308
    120          1           0       -9.442480    1.134456    2.064531
    121          1           0      -11.118556    0.695016    1.342471
    122          1           0      -11.074359    3.585758    1.491452
    123          1           0      -10.604466    2.810770    3.072276
    124          1           0      -12.670041    1.410721    2.627562
    125          1           0      -12.415947    4.107282    3.981113
    126          1           0      -13.104932    2.555166    4.616836
    127          1           0      -13.988750    3.727821    3.528297
    128          1           0      -12.835856    3.043230    0.346243
    129          1           0      -14.061267    3.675631    1.219798
    130          1           0      -15.482900    1.795563    1.062605
    131          1           0      -14.094901    0.780109    1.385547
    132          1           0      -13.647719    1.619733   -1.291976
    133          1           0      -15.431037    1.433583   -1.006792
    134          1           0      -13.342574   -0.595946   -0.383414
    135          1           0      -14.851905   -1.195691   -2.705446
    136          1           0      -13.036052   -1.085067   -2.539076
    137          1           0      -14.062786    0.204418   -3.097341
    138          1           0      -16.282609   -0.569275   -0.043762
    139          1           0      -15.106944   -1.493947    0.770064
    140          1           0      -15.614795   -1.996153   -0.759505
 ---------------------------------------------------------------------

 SCF Done:  E(RZINDO/S) =  -474.178625849     A.U. after   18 cycles

 Excitation energies and oscillator strengths:

 Excited State   1:      Singlet-A      1.3519 eV  917.11 nm  f=0.5939  <S**2>=0.000
     175 ->178        -0.17156
     176 ->177         0.66980
 This state for optimization and/or second-order correction.
 Total Energy, E(CIS/TDA) =  -474.128944343
 Copying the excited state density for this state as the 1-particle RhoCI density.

 Excited State   2:      Singlet-A      1.9450 eV  637.44 nm  f=0.1440  <S**2>=0.000
     175 ->177         0.59717
     176 ->178         0.33935

 Excited State   3:      Singlet-A      2.9528 eV  419.89 nm  f=0.0006  <S**2>=0.000
     167 ->177         0.14578
     167 ->179        -0.22687
     167 ->180         0.15129
     167 ->186        -0.10501
     168 ->177         0.29362
     168 ->179        -0.38681
     168 ->180         0.24192
     168 ->186        -0.17943
     168 ->188        -0.10438

 Excited State   4:      Singlet-A      3.0408 eV  407.73 nm  f=0.0423  <S**2>=0.000
     170 ->177         0.24909
     170 ->178         0.17522
     170 ->179         0.23782
     170 ->180         0.35178
     170 ->186         0.21034
     170 ->188        -0.13189
     174 ->177        -0.21295
     176 ->178         0.13803
     176 ->179         0.10271

 Excited State   5:      Singlet-A      3.0840 eV  402.02 nm  f=0.5803  <S**2>=0.000
     171 ->177        -0.29956
     172 ->177        -0.16009
     174 ->177         0.18532
     175 ->177        -0.23429
     176 ->178         0.46793
     176 ->179         0.11009
     176 ->180         0.11099

 The electronic state is 1-A.
 Alpha  occ. eigenvalues --   -1.82444  -1.80301  -1.79313  -1.77205  -1.73284
 Alpha  occ. eigenvalues --   -1.70151  -1.65689  -1.61062  -1.59549  -1.56202
 Alpha  occ. eigenvalues --   -1.56027  -1.52458  -1.48548  -1.47618  -1.47015
 Alpha  occ. eigenvalues --   -1.42891  -1.41574  -1.40214  -1.37766  -1.37007
 Alpha  occ. eigenvalues --   -1.34962  -1.34014  -1.31639  -1.31207  -1.28083
 Alpha  occ. eigenvalues --   -1.27500  -1.23899  -1.22711  -1.21548  -1.17958
 Alpha  occ. eigenvalues --   -1.17212  -1.15763  -1.14419  -1.13868  -1.13057
 Alpha  occ. eigenvalues --   -1.11871  -1.10959  -1.10345  -1.04762  -1.03532
 Alpha  occ. eigenvalues --   -1.02801  -0.99858  -0.98872  -0.98051  -0.96285
 Alpha  occ. eigenvalues --   -0.95542  -0.95173  -0.94334  -0.92853  -0.90589
 Alpha  occ. eigenvalues --   -0.89908  -0.89572  -0.89331  -0.87731  -0.86053
 Alpha  occ. eigenvalues --   -0.85554  -0.84574  -0.83393  -0.81802  -0.80789
 Alpha  occ. eigenvalues --   -0.80341  -0.78802  -0.77882  -0.77475  -0.76900
 Alpha  occ. eigenvalues --   -0.75974  -0.75666  -0.74941  -0.74490  -0.74087
 Alpha  occ. eigenvalues --   -0.73611  -0.72725  -0.72139  -0.71795  -0.70762
 Alpha  occ. eigenvalues --   -0.70196  -0.69261  -0.68756  -0.68313  -0.67713
 Alpha  occ. eigenvalues --   -0.67665  -0.67296  -0.66838  -0.66370  -0.65523
 Alpha  occ. eigenvalues --   -0.65136  -0.64833  -0.64233  -0.64214  -0.63461
 Alpha  occ. eigenvalues --   -0.62855  -0.62119  -0.61976  -0.61692  -0.61385
 Alpha  occ. eigenvalues --   -0.61184  -0.60626  -0.60315  -0.60044  -0.59975
 Alpha  occ. eigenvalues --   -0.59513  -0.58886  -0.58444  -0.58402  -0.57851
 Alpha  occ. eigenvalues --   -0.57532  -0.57466  -0.57307  -0.57021  -0.56597
 Alpha  occ. eigenvalues --   -0.56247  -0.55620  -0.55181  -0.54847  -0.54741
 Alpha  occ. eigenvalues --   -0.54208  -0.54187  -0.53501  -0.52683  -0.52381
 Alpha  occ. eigenvalues --   -0.52250  -0.51836  -0.51745  -0.51282  -0.50829
 Alpha  occ. eigenvalues --   -0.50778  -0.50450  -0.50226  -0.50011  -0.49898
 Alpha  occ. eigenvalues --   -0.49847  -0.49659  -0.49229  -0.48981  -0.48867
 Alpha  occ. eigenvalues --   -0.48425  -0.48341  -0.48182  -0.47705  -0.47589
 Alpha  occ. eigenvalues --   -0.47359  -0.47185  -0.47058  -0.46842  -0.46653
 Alpha  occ. eigenvalues --   -0.46362  -0.45925  -0.45787  -0.45508  -0.45039
 Alpha  occ. eigenvalues --   -0.44874  -0.44647  -0.44621  -0.43743  -0.43314
 Alpha  occ. eigenvalues --   -0.43163  -0.43016  -0.42780  -0.42593  -0.41745
 Alpha  occ. eigenvalues --   -0.41656  -0.41495  -0.41416  -0.38934  -0.38772
 Alpha  occ. eigenvalues --   -0.38132  -0.36800  -0.35960  -0.34629  -0.34288
 Alpha  occ. eigenvalues --   -0.33665  -0.32384  -0.32026  -0.30898  -0.26308
 Alpha  occ. eigenvalues --   -0.22319
 Alpha virt. eigenvalues --   -0.08625  -0.01456  -0.00249   0.01621   0.02067
 Alpha virt. eigenvalues --    0.02655   0.03352   0.03485   0.03799   0.04503
 Alpha virt. eigenvalues --    0.05938   0.06331   0.06912   0.07598   0.07963

 Mulliken charges:
               1
     1  Mg   0.423261
     2  C   -0.050661
     3  C   -0.064907
     4  C   -0.096912
     5  C   -0.065796
     6  N   -0.264368
     7  C    0.092350
     8  C   -0.006271
     9  C    0.004394
    10  C    0.173989
    11  C   -0.049004
    12  C   -0.014095
    13  C    0.008136
    14  C    0.479103
    15  O   -0.534652
    16  O   -0.247766
    17  N   -0.348824
    18  C    0.131209
    19  C    0.034900
    20  C   -0.050519
    21  C    0.166921
    22  C   -0.040679
    23  C    0.331271
    24  O   -0.516036
    25  C   -0.024750
    26  N   -0.261619
    27  C    0.179062
    28  C   -0.003950
    29  C    0.011958
    30  C    0.085238
    31  C   -0.057109
    32  C   -0.034140
    33  C   -0.060899
    34  N   -0.317697
    35  C    0.064979
    36  C    0.004729
    37  C   -0.066856
    38  C    0.107357
    39  C   -0.041719
    40  C    0.331754
    41  O   -0.537614
    42  C    0.047304
    43  C    0.496604
    44  O   -0.497679
    45  O   -0.279030
    46  C    0.078355
    47  C    0.109716
    48  C   -0.083076
    49  C   -0.019399
    50  C   -0.047902
    51  C   -0.024894
    52  C   -0.033204
    53  C   -0.044509
    54  C   -0.016495
    55  C   -0.052597
    56  C   -0.039906
    57  C   -0.047489
    58  C   -0.042676
    59  C   -0.011583
    60  C   -0.062570
    61  C   -0.030368
    62  C   -0.048476
    63  C   -0.031845
    64  C    0.003671
    65  C   -0.062712
    66  C   -0.053170
    67  H    0.009479
    68  H    0.043476
    69  H    0.025706
    70  H    0.052177
    71  H    0.023332
    72  H    0.034496
    73  H    0.036539
    74  H    0.015609
    75  H    0.024693
    76  H    0.027108
    77  H    0.039192
    78  H    0.048322
    79  H    0.029451
    80  H    0.030884
    81  H    0.026756
    82  H    0.032862
    83  H    0.047509
    84  H    0.035080
    85  H    0.038008
    86  H    0.034515
    87  H    0.024383
    88  H    0.028648
    89  H    0.017150
    90  H    0.020697
    91  H    0.025208
    92  H    0.029619
    93  H    0.018316
    94  H    0.021856
    95  H    0.033291
    96  H    0.028474
    97  H    0.024666
    98  H    0.051435
    99  H    0.047136
   100  H    0.026915
   101  H    0.037972
   102  H    0.032516
   103  H    0.051078
   104  H    0.030338
   105  H    0.034135
   106  H    0.019820
   107  H    0.020776
   108  H    0.025901
   109  H    0.018636
   110  H    0.027471
   111  H    0.026409
   112  H    0.014067
   113  H    0.021052
   114  H    0.020147
   115  H    0.022308
   116  H    0.013920
   117  H    0.010266
   118  H    0.015658
   119  H    0.020194
   120  H    0.033714
   121  H    0.036323
   122  H    0.031120
   123  H    0.008748
   124  H    0.019674
   125  H    0.020370
   126  H    0.028830
   127  H    0.017099
   128  H    0.015921
   129  H    0.015473
   130  H    0.023958
   131  H    0.013073
   132  H    0.021025
   133  H    0.016237
   134  H    0.010789
   135  H    0.014526
   136  H    0.022755
   137  H    0.016106
   138  H    0.015386
   139  H    0.012877
   140  H    0.010504
 Sum of Mulliken charges =  -0.00000

 Dipole moment (field-independent basis, Debye):
    X=             -5.7484    Y=              7.3732    Z=              0.3395  Tot=              9.3554
 N-N= 4.272382186368D+03 E-N= 0.000000000000D+00  KE=-9.219423486109D+03
 Leave Link  601 at Thu Apr 28 06:21:35 2022, MaxMem=  6710886400 cpu:               1.2 elap:               0.1
 (Enter /sw/apps/gaussian-16.0/g16/l9999.exe)
 1\1\GINC-BP1-COMPUTE142\SP\RZINDO CIS\STO-3G\C55H74Mg1N4O6\OF15641\28-
 Apr-2022\0\\#p ZINDO=(nstates=5)\\step_1451_chromophore_4 ZINDO\\0,1\M
 g,0,9.267,3.03,28.395\C,0,10.613,1.882,31.382\C,0,7.395,5.243,30.305\C
 ,0,7.772,4.17,25.582\C,0,10.766,0.492,26.628\N,0,8.987,3.514,30.649\C,
 0,9.628,2.901,31.685\C,0,9.252,3.44,33.116\C,0,7.931,4.212,32.639\C,0,
 8.082,4.372,31.094\C,0,6.566,3.577,33.114\C,0,10.523,4.25,33.705\C,0,1
 0.975,3.884,35.1\C,0,9.939,3.647,36.164\O,0,8.742,3.837,36.045\O,0,10.

 Normal termination of Gaussian 16 at Thu Apr 28 06:21:35 2022.
