 Gaussian 16, Revision A.03,
 Gaussian 16:  ES64L-G16RevA.03 25-Dec-2016

 ------------------------------
 #p blyp/Def2SVP td=(nstates=5)
 ------------------------------

 ---------------------------------------------------
 step_1201_chromophore_24 TDDFT with blyp functional
 ---------------------------------------------------
 Symbolic Z-matrix:
 Charge =  0 Multiplicity = 1

                         Standard orientation:
 ---------------------------------------------------------------------
 Center     Atomic      Atomic             Coordinates (Angstroms)
 Number     Number       Type             X           Y           Z
 ---------------------------------------------------------------------
      1         12           0        4.918852    0.942853    0.242571
      2          6           0        3.748726   -2.304447   -0.084318
      3          6           0        1.915627    1.955035   -0.455073
      4          6           0        6.246187    4.047941   -0.331863
      5          6           0        8.194692   -0.268198    0.523930
      6          7           0        3.080352   -0.095336   -0.006606
      7          6           0        2.758146   -1.427385   -0.015328
      8          6           0        1.298188   -1.693689   -0.072364
      9          6           0        0.725500   -0.239979   -0.389480
     10          6           0        1.982298    0.610309   -0.356629
     11          6           0       -0.024054   -0.187605   -1.821983
     12          6           0        0.635468   -2.320400    1.265689
     13          6           0       -0.019375   -3.670227    1.159728
     14          6           0       -0.832849   -4.074281   -0.180365
     15          8           0       -0.496135   -4.912889   -0.981999
     16          8           0       -1.924194   -3.240993   -0.254750
     17          7           0        4.146958    2.743700   -0.198356
     18          6           0        2.892190    3.021257   -0.476538
     19          6           0        2.695547    4.466809   -0.777018
     20          6           0        3.910534    5.086036   -0.570403
     21          6           0        4.851344    3.967806   -0.318173
     22          6           0        1.321822    5.006670   -1.031020
     23          6           0        4.311468    6.586185   -0.610409
     24          8           0        5.462439    7.019589   -0.394367
     25          6           0        3.175968    7.571005   -0.967011
     26          7           0        6.944496    1.811138    0.028116
     27          6           0        7.250978    3.090069   -0.124282
     28          6           0        8.762015    3.354191    0.122123
     29          6           0        9.270099    2.000980    0.600930
     30          6           0        8.049920    1.079001    0.453556
     31          6           0        9.532077    3.941875   -1.122093
     32          6           0        9.824125    2.048233    2.082259
     33          6           0        8.715110    2.439144    3.195056
     34          7           0        5.821121   -0.910796    0.225629
     35          6           0        7.170649   -1.261779    0.385091
     36          6           0        7.310774   -2.665381    0.403435
     37          6           0        6.041109   -3.118429    0.174085
     38          6           0        5.121470   -2.017687    0.112322
     39          6           0        8.558362   -3.475736    0.697875
     40          6           0        5.238844   -4.291870    0.007492
     41          8           0        5.500050   -5.482489    0.075929
     42          6           0        3.700998   -3.873508   -0.200331
     43          6           0        3.239576   -4.406851   -1.466059
     44          8           0        3.337519   -3.836940   -2.544367
     45          8           0        2.501211   -5.516942   -1.261980
     46          6           0        1.946501   -6.235210   -2.388982
     47          6           0       -2.922641   -3.539849   -1.263356
     48          6           0       -4.281375   -2.955570   -0.840859
     49          6           0       -5.490468   -3.400153   -1.076416
     50          6           0       -5.759060   -4.551207   -2.017200
     51          6           0       -6.732675   -2.602674   -0.635577
     52          6           0       -7.122880   -3.092918    0.783609
     53          6           0       -6.471182   -2.131455    1.859587
     54          6           0       -7.566867   -1.786144    2.883993
     55          6           0       -7.342361   -2.423947    4.270545
     56          6           0       -7.662124   -0.199654    2.889309
     57          6           0       -9.152818    0.232985    2.688550
     58          6           0       -9.312578    1.762406    2.368738
     59          6           0       -9.859503    2.210499    1.019715
     60          6           0       -8.886624    3.260830    0.333426
     61          6           0      -11.351785    2.690436    1.132021
     62          6           0      -12.323718    2.048084    0.097835
     63          6           0      -13.350364    3.060889   -0.475093
     64          6           0      -14.034448    2.654148   -1.811721
     65          6           0      -13.218812    3.327296   -2.973142
     66          6           0      -15.513983    3.008857   -1.996976
     67          1           0        0.927418    2.350085   -0.699866
     68          1           0        6.656522    5.054419   -0.433969
     69          1           0        9.202578   -0.590253    0.794773
     70          1           0        1.233810   -2.376264   -0.919697
     71          1           0        0.076639    0.205456    0.365409
     72          1           0       -0.057851   -1.184931   -2.260763
     73          1           0        0.318096    0.522440   -2.574207
     74          1           0       -1.045421    0.156286   -1.659246
     75          1           0       -0.149477   -1.666927    1.645895
     76          1           0        1.424088   -2.396113    2.013924
     77          1           0       -0.618806   -3.818291    2.057353
     78          1           0        0.752369   -4.433944    1.263024
     79          1           0        0.977566    5.309543   -0.041990
     80          1           0        0.580989    4.273590   -1.346686
     81          1           0        1.223284    5.739069   -1.831827
     82          1           0        2.417106    7.405423   -0.201677
     83          1           0        2.860205    7.391128   -1.994328
     84          1           0        3.394871    8.639080   -0.968072
     85          1           0        8.833659    4.049599    0.958297
     86          1           0       10.113169    1.771924   -0.050999
     87          1           0       10.570974    4.003607   -0.796452
     88          1           0        9.114981    4.870383   -1.511474
     89          1           0        9.465570    3.078215   -1.784133
     90          1           0       10.640156    2.770688    2.057481
     91          1           0       10.218829    1.045723    2.247749
     92          1           0        9.154141    3.321916    3.659224
     93          1           0        8.707445    1.674469    3.971858
     94          1           0        7.770673    2.746690    2.744786
     95          1           0        8.355818   -4.421955    1.200032
     96          1           0        9.243706   -2.855949    1.274853
     97          1           0        9.080060   -3.604353   -0.251050
     98          1           0        3.129257   -4.288056    0.630656
     99          1           0        1.665963   -5.549056   -3.187267
    100          1           0        1.065838   -6.803109   -2.088477
    101          1           0        2.684260   -6.851318   -2.903193
    102          1           0       -3.007178   -4.624935   -1.320993
    103          1           0       -2.669630   -3.122298   -2.237937
    104          1           0       -4.237883   -2.029150   -0.268688
    105          1           0       -6.773158   -4.928457   -1.889465
    106          1           0       -5.062725   -5.375673   -1.868605
    107          1           0       -5.628870   -4.058758   -2.981049
    108          1           0       -7.490847   -2.807511   -1.391167
    109          1           0       -6.528818   -1.533521   -0.697082
    110          1           0       -6.758239   -4.095395    1.009409
    111          1           0       -8.213104   -3.076674    0.769088
    112          1           0       -5.929570   -1.298895    1.409860
    113          1           0       -5.597917   -2.544508    2.363975
    114          1           0       -8.485548   -2.290937    2.582519
    115          1           0       -6.493126   -3.106066    4.233431
    116          1           0       -8.201776   -3.000793    4.612504
    117          1           0       -7.106933   -1.673654    5.024576
    118          1           0       -7.119690    0.252980    2.060456
    119          1           0       -7.272730    0.142532    3.848780
    120          1           0       -9.541877    0.158086    3.703255
    121          1           0       -9.656939   -0.451294    2.005390
    122          1           0       -8.389752    2.279689    2.632162
    123          1           0      -10.035252    2.023249    3.142877
    124          1           0       -9.761190    1.377596    0.323468
    125          1           0       -7.918299    3.275919    0.833963
    126          1           0       -9.276840    4.267637    0.185209
    127          1           0       -8.663104    2.889787   -0.666904
    128          1           0      -11.378009    3.769355    0.976829
    129          1           0      -11.829608    2.612739    2.108831
    130          1           0      -12.913218    1.249692    0.548146
    131          1           0      -11.708716    1.678240   -0.722290
    132          1           0      -12.799786    4.001119   -0.485716
    133          1           0      -14.076920    3.091192    0.336798
    134          1           0      -13.947396    1.591571   -2.040646
    135          1           0      -13.631073    4.309123   -3.205573
    136          1           0      -13.148974    2.717701   -3.873907
    137          1           0      -12.194583    3.436288   -2.616951
    138          1           0      -16.061791    2.091054   -2.209858
    139          1           0      -15.702749    3.568848   -2.912590
    140          1           0      -15.781128    3.428594   -1.027124
 ---------------------------------------------------------------------

 SCF Done:  E(RB-LYP) =  -3007.37101727     A.U. after   21 cycles

 Excitation energies and oscillator strengths:

 Excited State   1:      Singlet-A      1.6913 eV  733.05 nm  f=0.0133  <S**2>=0.000
     244 -> 247        0.60077
     245 -> 247       -0.33300
     246 -> 247        0.16394
 This state for optimization and/or second-order correction.
 Total Energy, E(TD-HF/TD-DFT) =  -3007.30886130
 Copying the excited state density for this state as the 1-particle RhoCI density.

 Excited State   2:      Singlet-A      1.8130 eV  683.87 nm  f=0.3134  <S**2>=0.000
     244 -> 247       -0.16974
     245 -> 248        0.11655
     245 -> 249        0.12278
     246 -> 247        0.67173
     246 <- 247       -0.14476

 Excited State   3:      Singlet-A      2.0486 eV  605.23 nm  f=0.0792  <S**2>=0.000
     244 -> 247        0.31415
     245 -> 247        0.57218
     246 -> 248       -0.19654
     246 -> 249       -0.14425

 Excited State   4:      Singlet-A      2.2900 eV  541.41 nm  f=0.0001  <S**2>=0.000
     243 -> 247        0.70518

 Excited State   5:      Singlet-A      2.4114 eV  514.15 nm  f=0.0011  <S**2>=0.000
     242 -> 247        0.70368

 The electronic state is 1-A.
 Alpha  occ. eigenvalues --  -46.26097 -18.82803 -18.80351 -18.78259 -18.76869
 Alpha  occ. eigenvalues --  -18.74530 -18.74350 -14.02501 -14.02262 -14.01378
 Alpha  occ. eigenvalues --  -14.00132 -10.05150 -10.01990 -10.01545  -9.98533
 Alpha  occ. eigenvalues --   -9.98318  -9.96192  -9.96055  -9.95847  -9.95754
 Alpha  occ. eigenvalues --   -9.95542  -9.95184  -9.95064  -9.94642  -9.94563
 Alpha  occ. eigenvalues --   -9.94469  -9.94174  -9.93801  -9.93770  -9.93659
 Alpha  occ. eigenvalues --   -9.93548  -9.93488  -9.93188  -9.93039  -9.92908
 Alpha  occ. eigenvalues --   -9.92709  -9.92572  -9.92560  -9.92515  -9.92480
 Alpha  occ. eigenvalues --   -9.92442  -9.92415  -9.92414  -9.92365  -9.92353
 Alpha  occ. eigenvalues --   -9.92322  -9.92268  -9.92212  -9.92089  -9.92040
 Alpha  occ. eigenvalues --   -9.91933  -9.91737  -9.91717  -9.91461  -9.91442
 Alpha  occ. eigenvalues --   -9.91366  -9.91335  -9.91335  -9.91299  -9.91287
 Alpha  occ. eigenvalues --   -9.91225  -9.90968  -9.90802  -9.90790  -9.90733
 Alpha  occ. eigenvalues --   -9.89860  -2.90949  -1.71365  -1.70814  -1.70681
 Alpha  occ. eigenvalues --   -0.98545  -0.96582  -0.91549  -0.91055  -0.90166
 Alpha  occ. eigenvalues --   -0.88021  -0.86812  -0.86067  -0.85758  -0.85038
 Alpha  occ. eigenvalues --   -0.74308  -0.74122  -0.72765  -0.72223  -0.72054
 Alpha  occ. eigenvalues --   -0.71924  -0.71541  -0.71013  -0.70844  -0.70612
 Alpha  occ. eigenvalues --   -0.69930  -0.68760  -0.67942  -0.67276  -0.66647
 Alpha  occ. eigenvalues --   -0.66440  -0.65699  -0.65330  -0.64948  -0.64491
 Alpha  occ. eigenvalues --   -0.64353  -0.62930  -0.61937  -0.61110  -0.60477
 Alpha  occ. eigenvalues --   -0.60045  -0.60005  -0.59722  -0.59438  -0.59150
 Alpha  occ. eigenvalues --   -0.58599  -0.57874  -0.56469  -0.55423  -0.55145
 Alpha  occ. eigenvalues --   -0.53949  -0.53671  -0.52887  -0.52369  -0.51828
 Alpha  occ. eigenvalues --   -0.51119  -0.50800  -0.50262  -0.50182  -0.50063
 Alpha  occ. eigenvalues --   -0.49661  -0.49532  -0.48629  -0.47564  -0.46684
 Alpha  occ. eigenvalues --   -0.46310  -0.45560  -0.45111  -0.44617  -0.43729
 Alpha  occ. eigenvalues --   -0.43549  -0.43341  -0.42958  -0.42491  -0.42126
 Alpha  occ. eigenvalues --   -0.41909  -0.41744  -0.41699  -0.41486  -0.41349
 Alpha  occ. eigenvalues --   -0.40728  -0.40659  -0.40544  -0.40105  -0.39911
 Alpha  occ. eigenvalues --   -0.39733  -0.39589  -0.39153  -0.39083  -0.38899
 Alpha  occ. eigenvalues --   -0.38780  -0.38760  -0.38575  -0.38351  -0.38166
 Alpha  occ. eigenvalues --   -0.37709  -0.37687  -0.37581  -0.37480  -0.37289
 Alpha  occ. eigenvalues --   -0.37255  -0.36971  -0.36844  -0.36648  -0.36521
 Alpha  occ. eigenvalues --   -0.36371  -0.36150  -0.36059  -0.35634  -0.35373
 Alpha  occ. eigenvalues --   -0.35118  -0.35032  -0.34818  -0.34688  -0.34504
 Alpha  occ. eigenvalues --   -0.34273  -0.34105  -0.34042  -0.33975  -0.33667
 Alpha  occ. eigenvalues --   -0.33520  -0.33391  -0.33163  -0.33119  -0.32947
 Alpha  occ. eigenvalues --   -0.32903  -0.32807  -0.32417  -0.32278  -0.32152
 Alpha  occ. eigenvalues --   -0.32049  -0.31921  -0.31736  -0.31466  -0.31381
 Alpha  occ. eigenvalues --   -0.31007  -0.30989  -0.30815  -0.30675  -0.30364
 Alpha  occ. eigenvalues --   -0.30228  -0.30214  -0.30011  -0.29967  -0.29779
 Alpha  occ. eigenvalues --   -0.29516  -0.29475  -0.29240  -0.29145  -0.28530
 Alpha  occ. eigenvalues --   -0.28498  -0.28296  -0.28135  -0.28125  -0.27864
 Alpha  occ. eigenvalues --   -0.27752  -0.27534  -0.27180  -0.26764  -0.26367
 Alpha  occ. eigenvalues --   -0.26170  -0.26013  -0.25892  -0.25802  -0.25544
 Alpha  occ. eigenvalues --   -0.25529  -0.25129  -0.23487  -0.23362  -0.23096
 Alpha  occ. eigenvalues --   -0.22918  -0.22641  -0.22341  -0.21582  -0.20704
 Alpha  occ. eigenvalues --   -0.20268  -0.20061  -0.19524  -0.17471  -0.16904
 Alpha  occ. eigenvalues --   -0.15523
 Alpha virt. eigenvalues --   -0.11223  -0.06944  -0.05269  -0.04086  -0.03278
 Alpha virt. eigenvalues --   -0.02383  -0.01180  -0.00966  -0.00845   0.00464
 Alpha virt. eigenvalues --    0.02070   0.02201   0.02398   0.02613   0.02858

 Mulliken charges:
               1
     1  Mg   0.706889
     2  C    0.061507
     3  C   -0.068692
     4  C   -0.052632
     5  C   -0.081039
     6  N   -0.242146
     7  C   -0.124233
     8  C    0.060504
     9  C   -0.021225
    10  C    0.086609
    11  C    0.097407
    12  C    0.135857
    13  C    0.102814
    14  C    0.097358
    15  O   -0.159875
    16  O   -0.276231
    17  N   -0.293406
    18  C    0.091244
    19  C   -0.113187
    20  C    0.013401
    21  C    0.110600
    22  C    0.155812
    23  C   -0.026648
    24  O   -0.165543
    25  C    0.111907
    26  N   -0.186623
    27  C   -0.027320
    28  C    0.040708
    29  C   -0.003467
    30  C    0.054125
    31  C    0.121996
    32  C    0.052442
    33  C    0.055657
    34  N   -0.250485
    35  C    0.117749
    36  C   -0.201551
    37  C    0.162647
    38  C    0.021574
    39  C    0.199257
    40  C   -0.103824
    41  O   -0.136581
    42  C    0.042451
    43  C    0.118992
    44  O   -0.199523
    45  O   -0.246702
    46  C    0.237589
    47  C    0.329547
    48  C   -0.108322
    49  C   -0.202801
    50  C    0.147758
    51  C    0.127947
    52  C    0.089748
    53  C    0.099288
    54  C   -0.080467
    55  C    0.112699
    56  C    0.091423
    57  C    0.040664
    58  C    0.116768
    59  C   -0.038167
    60  C    0.083745
    61  C    0.113677
    62  C    0.037213
    63  C    0.084908
    64  C   -0.083963
    65  C    0.072511
    66  C    0.138800
    67  H   -0.089016
    68  H   -0.051699
    69  H   -0.062528
    70  H    0.006887
    71  H   -0.008492
    72  H    0.004567
    73  H   -0.002199
    74  H   -0.017592
    75  H   -0.015260
    76  H   -0.013473
    77  H   -0.010611
    78  H   -0.008007
    79  H    0.013452
    80  H   -0.015946
    81  H    0.001486
    82  H    0.011841
    83  H    0.018981
    84  H   -0.011506
    85  H   -0.029971
    86  H   -0.040871
    87  H   -0.006852
    88  H    0.019474
    89  H   -0.003875
    90  H   -0.014362
    91  H   -0.021749
    92  H   -0.011873
    93  H    0.003113
    94  H    0.023623
    95  H    0.017922
    96  H   -0.023134
    97  H   -0.001268
    98  H   -0.003489
    99  H   -0.007833
   100  H    0.022673
   101  H   -0.000994
   102  H   -0.006888
   103  H    0.008735
   104  H   -0.046534
   105  H   -0.012804
   106  H   -0.000867
   107  H    0.014815
   108  H   -0.045879
   109  H   -0.021598
   110  H   -0.011933
   111  H   -0.015838
   112  H   -0.034830
   113  H   -0.046253
   114  H   -0.022514
   115  H   -0.024890
   116  H   -0.015249
   117  H   -0.024570
   118  H   -0.024843
   119  H   -0.027439
   120  H   -0.037029
   121  H   -0.020711
   122  H   -0.041740
   123  H   -0.044104
   124  H   -0.030233
   125  H   -0.019027
   126  H   -0.008702
   127  H   -0.024898
   128  H   -0.042511
   129  H   -0.030894
   130  H   -0.022357
   131  H   -0.029204
   132  H   -0.026759
   133  H   -0.039088
   134  H   -0.034755
   135  H   -0.009362
   136  H   -0.017939
   137  H   -0.024270
   138  H   -0.027114
   139  H   -0.017914
   140  H   -0.012571
 Sum of Mulliken charges =  -0.00000

 Dipole moment (field-independent basis, Debye):
    X=             -5.5419    Y=              3.5367    Z=              2.1789  Tot=              6.9259
 Quadrupole moment (field-independent basis, Debye-Ang):
   XX=           -383.2766   YY=           -436.5262   ZZ=           -402.5461
   XY=             26.1259   XZ=             17.5021   YZ=             -4.3982

 Normal termination of Gaussian 16 at Wed May  4 01:53:57 2022.
