 Gaussian 16, Revision A.03,
 Gaussian 16:  ES64L-G16RevA.03 25-Dec-2016

 -----------------------------------
 #p cam-b3lyp/Def2SVP td=(nstates=5)
 -----------------------------------

 --------------------------------------------------------
 step_1201_chromophore_24 TDDFT with cam-b3lyp functional
 --------------------------------------------------------
 Symbolic Z-matrix:
 Charge =  0 Multiplicity = 1

                         Standard orientation:
 ---------------------------------------------------------------------
 Center     Atomic      Atomic             Coordinates (Angstroms)
 Number     Number       Type             X           Y           Z
 ---------------------------------------------------------------------
      1         12           0        4.918852    0.942853    0.242571
      2          6           0        3.748726   -2.304447   -0.084318
      3          6           0        1.915627    1.955035   -0.455073
      4          6           0        6.246187    4.047941   -0.331863
      5          6           0        8.194692   -0.268198    0.523930
      6          7           0        3.080352   -0.095336   -0.006606
      7          6           0        2.758146   -1.427385   -0.015328
      8          6           0        1.298188   -1.693689   -0.072364
      9          6           0        0.725500   -0.239979   -0.389480
     10          6           0        1.982298    0.610309   -0.356629
     11          6           0       -0.024054   -0.187605   -1.821983
     12          6           0        0.635468   -2.320400    1.265689
     13          6           0       -0.019375   -3.670227    1.159728
     14          6           0       -0.832849   -4.074281   -0.180365
     15          8           0       -0.496135   -4.912889   -0.981999
     16          8           0       -1.924194   -3.240993   -0.254750
     17          7           0        4.146958    2.743700   -0.198356
     18          6           0        2.892190    3.021257   -0.476538
     19          6           0        2.695547    4.466809   -0.777018
     20          6           0        3.910534    5.086036   -0.570403
     21          6           0        4.851344    3.967806   -0.318173
     22          6           0        1.321822    5.006670   -1.031020
     23          6           0        4.311468    6.586185   -0.610409
     24          8           0        5.462439    7.019589   -0.394367
     25          6           0        3.175968    7.571005   -0.967011
     26          7           0        6.944496    1.811138    0.028116
     27          6           0        7.250978    3.090069   -0.124282
     28          6           0        8.762015    3.354191    0.122123
     29          6           0        9.270099    2.000980    0.600930
     30          6           0        8.049920    1.079001    0.453556
     31          6           0        9.532077    3.941875   -1.122093
     32          6           0        9.824125    2.048233    2.082259
     33          6           0        8.715110    2.439144    3.195056
     34          7           0        5.821121   -0.910796    0.225629
     35          6           0        7.170649   -1.261779    0.385091
     36          6           0        7.310774   -2.665381    0.403435
     37          6           0        6.041109   -3.118429    0.174085
     38          6           0        5.121470   -2.017687    0.112322
     39          6           0        8.558362   -3.475736    0.697875
     40          6           0        5.238844   -4.291870    0.007492
     41          8           0        5.500050   -5.482489    0.075929
     42          6           0        3.700998   -3.873508   -0.200331
     43          6           0        3.239576   -4.406851   -1.466059
     44          8           0        3.337519   -3.836940   -2.544367
     45          8           0        2.501211   -5.516942   -1.261980
     46          6           0        1.946501   -6.235210   -2.388982
     47          6           0       -2.922641   -3.539849   -1.263356
     48          6           0       -4.281375   -2.955570   -0.840859
     49          6           0       -5.490468   -3.400153   -1.076416
     50          6           0       -5.759060   -4.551207   -2.017200
     51          6           0       -6.732675   -2.602674   -0.635577
     52          6           0       -7.122880   -3.092918    0.783609
     53          6           0       -6.471182   -2.131455    1.859587
     54          6           0       -7.566867   -1.786144    2.883993
     55          6           0       -7.342361   -2.423947    4.270545
     56          6           0       -7.662124   -0.199654    2.889309
     57          6           0       -9.152818    0.232985    2.688550
     58          6           0       -9.312578    1.762406    2.368738
     59          6           0       -9.859503    2.210499    1.019715
     60          6           0       -8.886624    3.260830    0.333426
     61          6           0      -11.351785    2.690436    1.132021
     62          6           0      -12.323718    2.048084    0.097835
     63          6           0      -13.350364    3.060889   -0.475093
     64          6           0      -14.034448    2.654148   -1.811721
     65          6           0      -13.218812    3.327296   -2.973142
     66          6           0      -15.513983    3.008857   -1.996976
     67          1           0        0.927418    2.350085   -0.699866
     68          1           0        6.656522    5.054419   -0.433969
     69          1           0        9.202578   -0.590253    0.794773
     70          1           0        1.233810   -2.376264   -0.919697
     71          1           0        0.076639    0.205456    0.365409
     72          1           0       -0.057851   -1.184931   -2.260763
     73          1           0        0.318096    0.522440   -2.574207
     74          1           0       -1.045421    0.156286   -1.659246
     75          1           0       -0.149477   -1.666927    1.645895
     76          1           0        1.424088   -2.396113    2.013924
     77          1           0       -0.618806   -3.818291    2.057353
     78          1           0        0.752369   -4.433944    1.263024
     79          1           0        0.977566    5.309543   -0.041990
     80          1           0        0.580989    4.273590   -1.346686
     81          1           0        1.223284    5.739069   -1.831827
     82          1           0        2.417106    7.405423   -0.201677
     83          1           0        2.860205    7.391128   -1.994328
     84          1           0        3.394871    8.639080   -0.968072
     85          1           0        8.833659    4.049599    0.958297
     86          1           0       10.113169    1.771924   -0.050999
     87          1           0       10.570974    4.003607   -0.796452
     88          1           0        9.114981    4.870383   -1.511474
     89          1           0        9.465570    3.078215   -1.784133
     90          1           0       10.640156    2.770688    2.057481
     91          1           0       10.218829    1.045723    2.247749
     92          1           0        9.154141    3.321916    3.659224
     93          1           0        8.707445    1.674469    3.971858
     94          1           0        7.770673    2.746690    2.744786
     95          1           0        8.355818   -4.421955    1.200032
     96          1           0        9.243706   -2.855949    1.274853
     97          1           0        9.080060   -3.604353   -0.251050
     98          1           0        3.129257   -4.288056    0.630656
     99          1           0        1.665963   -5.549056   -3.187267
    100          1           0        1.065838   -6.803109   -2.088477
    101          1           0        2.684260   -6.851318   -2.903193
    102          1           0       -3.007178   -4.624935   -1.320993
    103          1           0       -2.669630   -3.122298   -2.237937
    104          1           0       -4.237883   -2.029150   -0.268688
    105          1           0       -6.773158   -4.928457   -1.889465
    106          1           0       -5.062725   -5.375673   -1.868605
    107          1           0       -5.628870   -4.058758   -2.981049
    108          1           0       -7.490847   -2.807511   -1.391167
    109          1           0       -6.528818   -1.533521   -0.697082
    110          1           0       -6.758239   -4.095395    1.009409
    111          1           0       -8.213104   -3.076674    0.769088
    112          1           0       -5.929570   -1.298895    1.409860
    113          1           0       -5.597917   -2.544508    2.363975
    114          1           0       -8.485548   -2.290937    2.582519
    115          1           0       -6.493126   -3.106066    4.233431
    116          1           0       -8.201776   -3.000793    4.612504
    117          1           0       -7.106933   -1.673654    5.024576
    118          1           0       -7.119690    0.252980    2.060456
    119          1           0       -7.272730    0.142532    3.848780
    120          1           0       -9.541877    0.158086    3.703255
    121          1           0       -9.656939   -0.451294    2.005390
    122          1           0       -8.389752    2.279689    2.632162
    123          1           0      -10.035252    2.023249    3.142877
    124          1           0       -9.761190    1.377596    0.323468
    125          1           0       -7.918299    3.275919    0.833963
    126          1           0       -9.276840    4.267637    0.185209
    127          1           0       -8.663104    2.889787   -0.666904
    128          1           0      -11.378009    3.769355    0.976829
    129          1           0      -11.829608    2.612739    2.108831
    130          1           0      -12.913218    1.249692    0.548146
    131          1           0      -11.708716    1.678240   -0.722290
    132          1           0      -12.799786    4.001119   -0.485716
    133          1           0      -14.076920    3.091192    0.336798
    134          1           0      -13.947396    1.591571   -2.040646
    135          1           0      -13.631073    4.309123   -3.205573
    136          1           0      -13.148974    2.717701   -3.873907
    137          1           0      -12.194583    3.436288   -2.616951
    138          1           0      -16.061791    2.091054   -2.209858
    139          1           0      -15.702749    3.568848   -2.912590
    140          1           0      -15.781128    3.428594   -1.027124
 ---------------------------------------------------------------------

 SCF Done:  E(RCAM-B3LYP) =  -3007.17163171     A.U. after   18 cycles

 Excitation energies and oscillator strengths:

 Excited State   1:      Singlet-A      1.8019 eV  688.08 nm  f=0.3847  <S**2>=0.000
     245 -> 248        0.12329
     246 -> 247        0.68742
 This state for optimization and/or second-order correction.
 Total Energy, E(TD-HF/TD-DFT) =  -3007.10541340
 Copying the excited state density for this state as the 1-particle RhoCI density.

 Excited State   2:      Singlet-A      2.3147 eV  535.64 nm  f=0.1330  <S**2>=0.000
     245 -> 247        0.64772
     246 -> 248       -0.23088
     246 -> 249        0.12763

 Excited State   3:      Singlet-A      3.5112 eV  353.11 nm  f=0.0111  <S**2>=0.000
     244 -> 247        0.59097
     244 -> 249        0.12912
     244 -> 251        0.28162
     246 -> 248       -0.14525

 Excited State   4:      Singlet-A      3.5934 eV  345.04 nm  f=0.5232  <S**2>=0.000
     241 -> 247        0.15548
     243 -> 247       -0.12856
     244 -> 247        0.12967
     245 -> 247        0.23462
     246 -> 248        0.60125

 Excited State   5:      Singlet-A      3.6143 eV  343.04 nm  f=0.0098  <S**2>=0.000
     241 -> 247       -0.13510
     243 -> 247        0.64655
     244 -> 251        0.10114
     246 -> 248        0.15659

 The electronic state is 1-A.
 Alpha  occ. eigenvalues --  -46.87592 -19.25532 -19.22967 -19.21120 -19.20796
 Alpha  occ. eigenvalues --  -19.17291 -19.16740 -14.41688 -14.40711 -14.40339
 Alpha  occ. eigenvalues --  -14.38150 -10.40366 -10.37513 -10.37076 -10.33006
 Alpha  occ. eigenvalues --  -10.32528 -10.31337 -10.31318 -10.30807 -10.30499
 Alpha  occ. eigenvalues --  -10.30111 -10.29240 -10.29092 -10.29040 -10.28935
 Alpha  occ. eigenvalues --  -10.28496 -10.28049 -10.27933 -10.27807 -10.27541
 Alpha  occ. eigenvalues --  -10.27452 -10.27327 -10.27321 -10.27295 -10.26764
 Alpha  occ. eigenvalues --  -10.26756 -10.26640 -10.26416 -10.26377 -10.26367
 Alpha  occ. eigenvalues --  -10.26280 -10.26276 -10.26180 -10.26178 -10.26074
 Alpha  occ. eigenvalues --  -10.26071 -10.25976 -10.25897 -10.25846 -10.25815
 Alpha  occ. eigenvalues --  -10.25659 -10.25627 -10.25287 -10.25174 -10.25133
 Alpha  occ. eigenvalues --  -10.25127 -10.25045 -10.25017 -10.24999 -10.24975
 Alpha  occ. eigenvalues --  -10.24954 -10.24529 -10.24477 -10.24375 -10.24355
 Alpha  occ. eigenvalues --  -10.23008  -3.16356  -1.91245  -1.90788  -1.90691
 Alpha  occ. eigenvalues --   -1.16876  -1.14815  -1.10062  -1.09301  -1.07871
 Alpha  occ. eigenvalues --   -1.05659  -1.04801  -1.03754  -1.03432  -1.02291
 Alpha  occ. eigenvalues --   -0.91027  -0.90966  -0.89541  -0.89175  -0.88794
 Alpha  occ. eigenvalues --   -0.88693  -0.88528  -0.87743  -0.87412  -0.87143
 Alpha  occ. eigenvalues --   -0.86048  -0.84969  -0.84181  -0.83454  -0.82690
 Alpha  occ. eigenvalues --   -0.82550  -0.82276  -0.81150  -0.80761  -0.80367
 Alpha  occ. eigenvalues --   -0.80086  -0.78891  -0.77316  -0.76472  -0.75764
 Alpha  occ. eigenvalues --   -0.75395  -0.75202  -0.75020  -0.74634  -0.74316
 Alpha  occ. eigenvalues --   -0.73715  -0.72831  -0.71394  -0.70253  -0.69805
 Alpha  occ. eigenvalues --   -0.68809  -0.68275  -0.67277  -0.66680  -0.66042
 Alpha  occ. eigenvalues --   -0.65315  -0.64767  -0.64247  -0.64076  -0.63908
 Alpha  occ. eigenvalues --   -0.63665  -0.63416  -0.62519  -0.61022  -0.60784
 Alpha  occ. eigenvalues --   -0.59809  -0.58923  -0.58627  -0.57943  -0.56929
 Alpha  occ. eigenvalues --   -0.56863  -0.56605  -0.56219  -0.55709  -0.55114
 Alpha  occ. eigenvalues --   -0.55031  -0.54755  -0.54513  -0.54383  -0.54131
 Alpha  occ. eigenvalues --   -0.53985  -0.53392  -0.53312  -0.52817  -0.52635
 Alpha  occ. eigenvalues --   -0.52421  -0.52356  -0.52070  -0.51805  -0.51418
 Alpha  occ. eigenvalues --   -0.51405  -0.51176  -0.51117  -0.50828  -0.50576
 Alpha  occ. eigenvalues --   -0.50443  -0.50015  -0.49916  -0.49790  -0.49580
 Alpha  occ. eigenvalues --   -0.49495  -0.49374  -0.49118  -0.48921  -0.48713
 Alpha  occ. eigenvalues --   -0.48514  -0.48390  -0.48196  -0.47889  -0.47778
 Alpha  occ. eigenvalues --   -0.47379  -0.47227  -0.46853  -0.46711  -0.46409
 Alpha  occ. eigenvalues --   -0.46193  -0.45974  -0.45866  -0.45710  -0.45358
 Alpha  occ. eigenvalues --   -0.45240  -0.45197  -0.44816  -0.44754  -0.44717
 Alpha  occ. eigenvalues --   -0.44521  -0.44315  -0.44077  -0.43896  -0.43735
 Alpha  occ. eigenvalues --   -0.43634  -0.43539  -0.43433  -0.43220  -0.43023
 Alpha  occ. eigenvalues --   -0.42752  -0.42394  -0.42275  -0.42057  -0.41792
 Alpha  occ. eigenvalues --   -0.41744  -0.41373  -0.41193  -0.41093  -0.40987
 Alpha  occ. eigenvalues --   -0.40824  -0.40640  -0.40341  -0.40223  -0.39639
 Alpha  occ. eigenvalues --   -0.39539  -0.39375  -0.39174  -0.39121  -0.39014
 Alpha  occ. eigenvalues --   -0.38757  -0.38655  -0.38059  -0.37706  -0.37529
 Alpha  occ. eigenvalues --   -0.37395  -0.36725  -0.36697  -0.36392  -0.36317
 Alpha  occ. eigenvalues --   -0.36176  -0.35675  -0.34831  -0.34149  -0.34012
 Alpha  occ. eigenvalues --   -0.33212  -0.33168  -0.32401  -0.32275  -0.31832
 Alpha  occ. eigenvalues --   -0.30997  -0.30455  -0.29068  -0.28640  -0.23913
 Alpha  occ. eigenvalues --   -0.20940
 Alpha virt. eigenvalues --   -0.08163  -0.01213   0.00745   0.02660   0.03168
 Alpha virt. eigenvalues --    0.04794   0.06245   0.06485   0.06788   0.06996
 Alpha virt. eigenvalues --    0.08159   0.08571   0.08698   0.09061   0.09370

 Mulliken charges:
               1
     1  Mg   0.842293
     2  C    0.039217
     3  C   -0.095779
     4  C   -0.067363
     5  C   -0.068634
     6  N   -0.321920
     7  C   -0.077336
     8  C   -0.000320
     9  C   -0.073868
    10  C    0.116221
    11  C    0.046568
    12  C    0.091148
    13  C    0.043631
    14  C    0.167606
    15  O   -0.201002
    16  O   -0.339398
    17  N   -0.382286
    18  C    0.114602
    19  C   -0.120238
    20  C   -0.043914
    21  C    0.134540
    22  C    0.094559
    23  C    0.053540
    24  O   -0.202412
    25  C    0.032648
    26  N   -0.247957
    27  C   -0.005773
    28  C   -0.018424
    29  C   -0.056530
    30  C    0.049110
    31  C    0.067989
    32  C    0.009930
    33  C   -0.006709
    34  N   -0.338961
    35  C    0.105253
    36  C   -0.195312
    37  C    0.070860
    38  C    0.054098
    39  C    0.149305
    40  C   -0.005264
    41  O   -0.181880
    42  C   -0.030258
    43  C    0.207839
    44  O   -0.237639
    45  O   -0.309633
    46  C    0.196200
    47  C    0.300978
    48  C   -0.127070
    49  C   -0.221952
    50  C    0.082777
    51  C    0.065850
    52  C    0.033626
    53  C    0.048908
    54  C   -0.141394
    55  C    0.058197
    56  C    0.045430
    57  C   -0.010228
    58  C    0.061217
    59  C   -0.100328
    60  C    0.031837
    61  C    0.061389
    62  C   -0.010019
    63  C    0.027147
    64  C   -0.144264
    65  C    0.017981
    66  C    0.076127
    67  H   -0.057717
    68  H   -0.009414
    69  H   -0.027467
    70  H    0.037291
    71  H    0.025583
    72  H    0.027668
    73  H    0.022649
    74  H    0.005571
    75  H    0.012499
    76  H    0.018036
    77  H    0.022231
    78  H    0.021799
    79  H    0.043251
    80  H    0.016560
    81  H    0.030747
    82  H    0.038572
    83  H    0.046269
    84  H    0.026291
    85  H    0.005307
    86  H   -0.004414
    87  H    0.018363
    88  H    0.041747
    89  H    0.020187
    90  H    0.010787
    91  H    0.005330
    92  H    0.011187
    93  H    0.028478
    94  H    0.039794
    95  H    0.043058
    96  H   -0.001885
    97  H    0.023891
    98  H    0.036311
    99  H    0.018505
   100  H    0.045101
   101  H    0.021680
   102  H    0.020965
   103  H    0.033493
   104  H   -0.013975
   105  H    0.012408
   106  H    0.023128
   107  H    0.039030
   108  H   -0.013268
   109  H    0.008221
   110  H    0.016549
   111  H    0.011160
   112  H   -0.009453
   113  H   -0.015624
   114  H    0.008062
   115  H   -0.000214
   116  H    0.008708
   117  H   -0.001236
   118  H    0.000261
   119  H   -0.001110
   120  H   -0.008085
   121  H    0.004868
   122  H   -0.012534
   123  H   -0.013625
   124  H    0.001121
   125  H    0.004159
   126  H    0.013692
   127  H   -0.001421
   128  H   -0.014358
   129  H   -0.001719
   130  H    0.004564
   131  H   -0.004449
   132  H    0.000433
   133  H   -0.010669
   134  H   -0.001884
   135  H    0.013324
   136  H    0.006687
   137  H   -0.002330
   138  H   -0.002006
   139  H    0.007333
   140  H    0.011390
 Sum of Mulliken charges =  -0.00000

 Dipole moment (field-independent basis, Debye):
    X=             -6.0459    Y=              5.5678    Z=              2.0031  Tot=              8.4596
 Quadrupole moment (field-independent basis, Debye-Ang):
   XX=           -386.6004   YY=           -429.8676   ZZ=           -402.2062
   XY=             34.4754   XZ=             17.6456   YZ=             -6.0243

 Normal termination of Gaussian 16 at Wed May  4 00:46:58 2022.
