 Gaussian 16, Revision A.03,
 Gaussian 16:  ES64L-G16RevA.03 25-Dec-2016

 ---------------------------------
 #p PBE1PBE/Def2SVP td=(nstates=5)
 ---------------------------------

 ------------------------------------------------------
 step_1201_chromophore_24 TDDFT with PBE1PBE functional
 ------------------------------------------------------
 Symbolic Z-matrix:
 Charge =  0 Multiplicity = 1

                         Standard orientation:
 ---------------------------------------------------------------------
 Center     Atomic      Atomic             Coordinates (Angstroms)
 Number     Number       Type             X           Y           Z
 ---------------------------------------------------------------------
      1         12           0        4.918852    0.942853    0.242571
      2          6           0        3.748726   -2.304447   -0.084318
      3          6           0        1.915627    1.955035   -0.455073
      4          6           0        6.246187    4.047941   -0.331863
      5          6           0        8.194692   -0.268198    0.523930
      6          7           0        3.080352   -0.095336   -0.006606
      7          6           0        2.758146   -1.427385   -0.015328
      8          6           0        1.298188   -1.693689   -0.072364
      9          6           0        0.725500   -0.239979   -0.389480
     10          6           0        1.982298    0.610309   -0.356629
     11          6           0       -0.024054   -0.187605   -1.821983
     12          6           0        0.635468   -2.320400    1.265689
     13          6           0       -0.019375   -3.670227    1.159728
     14          6           0       -0.832849   -4.074281   -0.180365
     15          8           0       -0.496135   -4.912889   -0.981999
     16          8           0       -1.924194   -3.240993   -0.254750
     17          7           0        4.146958    2.743700   -0.198356
     18          6           0        2.892190    3.021257   -0.476538
     19          6           0        2.695547    4.466809   -0.777018
     20          6           0        3.910534    5.086036   -0.570403
     21          6           0        4.851344    3.967806   -0.318173
     22          6           0        1.321822    5.006670   -1.031020
     23          6           0        4.311468    6.586185   -0.610409
     24          8           0        5.462439    7.019589   -0.394367
     25          6           0        3.175968    7.571005   -0.967011
     26          7           0        6.944496    1.811138    0.028116
     27          6           0        7.250978    3.090069   -0.124282
     28          6           0        8.762015    3.354191    0.122123
     29          6           0        9.270099    2.000980    0.600930
     30          6           0        8.049920    1.079001    0.453556
     31          6           0        9.532077    3.941875   -1.122093
     32          6           0        9.824125    2.048233    2.082259
     33          6           0        8.715110    2.439144    3.195056
     34          7           0        5.821121   -0.910796    0.225629
     35          6           0        7.170649   -1.261779    0.385091
     36          6           0        7.310774   -2.665381    0.403435
     37          6           0        6.041109   -3.118429    0.174085
     38          6           0        5.121470   -2.017687    0.112322
     39          6           0        8.558362   -3.475736    0.697875
     40          6           0        5.238844   -4.291870    0.007492
     41          8           0        5.500050   -5.482489    0.075929
     42          6           0        3.700998   -3.873508   -0.200331
     43          6           0        3.239576   -4.406851   -1.466059
     44          8           0        3.337519   -3.836940   -2.544367
     45          8           0        2.501211   -5.516942   -1.261980
     46          6           0        1.946501   -6.235210   -2.388982
     47          6           0       -2.922641   -3.539849   -1.263356
     48          6           0       -4.281375   -2.955570   -0.840859
     49          6           0       -5.490468   -3.400153   -1.076416
     50          6           0       -5.759060   -4.551207   -2.017200
     51          6           0       -6.732675   -2.602674   -0.635577
     52          6           0       -7.122880   -3.092918    0.783609
     53          6           0       -6.471182   -2.131455    1.859587
     54          6           0       -7.566867   -1.786144    2.883993
     55          6           0       -7.342361   -2.423947    4.270545
     56          6           0       -7.662124   -0.199654    2.889309
     57          6           0       -9.152818    0.232985    2.688550
     58          6           0       -9.312578    1.762406    2.368738
     59          6           0       -9.859503    2.210499    1.019715
     60          6           0       -8.886624    3.260830    0.333426
     61          6           0      -11.351785    2.690436    1.132021
     62          6           0      -12.323718    2.048084    0.097835
     63          6           0      -13.350364    3.060889   -0.475093
     64          6           0      -14.034448    2.654148   -1.811721
     65          6           0      -13.218812    3.327296   -2.973142
     66          6           0      -15.513983    3.008857   -1.996976
     67          1           0        0.927418    2.350085   -0.699866
     68          1           0        6.656522    5.054419   -0.433969
     69          1           0        9.202578   -0.590253    0.794773
     70          1           0        1.233810   -2.376264   -0.919697
     71          1           0        0.076639    0.205456    0.365409
     72          1           0       -0.057851   -1.184931   -2.260763
     73          1           0        0.318096    0.522440   -2.574207
     74          1           0       -1.045421    0.156286   -1.659246
     75          1           0       -0.149477   -1.666927    1.645895
     76          1           0        1.424088   -2.396113    2.013924
     77          1           0       -0.618806   -3.818291    2.057353
     78          1           0        0.752369   -4.433944    1.263024
     79          1           0        0.977566    5.309543   -0.041990
     80          1           0        0.580989    4.273590   -1.346686
     81          1           0        1.223284    5.739069   -1.831827
     82          1           0        2.417106    7.405423   -0.201677
     83          1           0        2.860205    7.391128   -1.994328
     84          1           0        3.394871    8.639080   -0.968072
     85          1           0        8.833659    4.049599    0.958297
     86          1           0       10.113169    1.771924   -0.050999
     87          1           0       10.570974    4.003607   -0.796452
     88          1           0        9.114981    4.870383   -1.511474
     89          1           0        9.465570    3.078215   -1.784133
     90          1           0       10.640156    2.770688    2.057481
     91          1           0       10.218829    1.045723    2.247749
     92          1           0        9.154141    3.321916    3.659224
     93          1           0        8.707445    1.674469    3.971858
     94          1           0        7.770673    2.746690    2.744786
     95          1           0        8.355818   -4.421955    1.200032
     96          1           0        9.243706   -2.855949    1.274853
     97          1           0        9.080060   -3.604353   -0.251050
     98          1           0        3.129257   -4.288056    0.630656
     99          1           0        1.665963   -5.549056   -3.187267
    100          1           0        1.065838   -6.803109   -2.088477
    101          1           0        2.684260   -6.851318   -2.903193
    102          1           0       -3.007178   -4.624935   -1.320993
    103          1           0       -2.669630   -3.122298   -2.237937
    104          1           0       -4.237883   -2.029150   -0.268688
    105          1           0       -6.773158   -4.928457   -1.889465
    106          1           0       -5.062725   -5.375673   -1.868605
    107          1           0       -5.628870   -4.058758   -2.981049
    108          1           0       -7.490847   -2.807511   -1.391167
    109          1           0       -6.528818   -1.533521   -0.697082
    110          1           0       -6.758239   -4.095395    1.009409
    111          1           0       -8.213104   -3.076674    0.769088
    112          1           0       -5.929570   -1.298895    1.409860
    113          1           0       -5.597917   -2.544508    2.363975
    114          1           0       -8.485548   -2.290937    2.582519
    115          1           0       -6.493126   -3.106066    4.233431
    116          1           0       -8.201776   -3.000793    4.612504
    117          1           0       -7.106933   -1.673654    5.024576
    118          1           0       -7.119690    0.252980    2.060456
    119          1           0       -7.272730    0.142532    3.848780
    120          1           0       -9.541877    0.158086    3.703255
    121          1           0       -9.656939   -0.451294    2.005390
    122          1           0       -8.389752    2.279689    2.632162
    123          1           0      -10.035252    2.023249    3.142877
    124          1           0       -9.761190    1.377596    0.323468
    125          1           0       -7.918299    3.275919    0.833963
    126          1           0       -9.276840    4.267637    0.185209
    127          1           0       -8.663104    2.889787   -0.666904
    128          1           0      -11.378009    3.769355    0.976829
    129          1           0      -11.829608    2.612739    2.108831
    130          1           0      -12.913218    1.249692    0.548146
    131          1           0      -11.708716    1.678240   -0.722290
    132          1           0      -12.799786    4.001119   -0.485716
    133          1           0      -14.076920    3.091192    0.336798
    134          1           0      -13.947396    1.591571   -2.040646
    135          1           0      -13.631073    4.309123   -3.205573
    136          1           0      -13.148974    2.717701   -3.873907
    137          1           0      -12.194583    3.436288   -2.616951
    138          1           0      -16.061791    2.091054   -2.209858
    139          1           0      -15.702749    3.568848   -2.912590
    140          1           0      -15.781128    3.428594   -1.027124
 ---------------------------------------------------------------------

 SCF Done:  E(RPBE1PBE) =  -3005.35501781     A.U. after   16 cycles

 Excitation energies and oscillator strengths:

 Excited State   1:      Singlet-A      1.8773 eV  660.44 nm  f=0.3777  <S**2>=0.000
     245 -> 248        0.11796
     245 -> 249        0.10598
     246 -> 247        0.69509
     246 <- 247       -0.10491
 This state for optimization and/or second-order correction.
 Total Energy, E(TD-HF/TD-DFT) =  -3005.28602876
 Copying the excited state density for this state as the 1-particle RhoCI density.

 Excited State   2:      Singlet-A      2.2752 eV  544.93 nm  f=0.1203  <S**2>=0.000
     245 -> 247        0.65838
     246 -> 248       -0.21072
     246 -> 249       -0.13210

 Excited State   3:      Singlet-A      2.8203 eV  439.61 nm  f=0.0012  <S**2>=0.000
     244 -> 247        0.68538
     244 -> 250        0.12565

 Excited State   4:      Singlet-A      3.1537 eV  393.14 nm  f=0.0008  <S**2>=0.000
     243 -> 247        0.67621
     246 -> 248        0.17519

 Excited State   5:      Singlet-A      3.2319 eV  383.63 nm  f=0.1906  <S**2>=0.000
     243 -> 247       -0.17022
     245 -> 247        0.17600
     246 -> 248        0.62656
     246 -> 249       -0.15620

 The electronic state is 1-A.
 Alpha  occ. eigenvalues --  -46.90995 -19.26274 -19.23778 -19.21438 -19.20625
 Alpha  occ. eigenvalues --  -19.17693 -19.17451 -14.40981 -14.40460 -14.39700
 Alpha  occ. eigenvalues --  -14.38058 -10.37496 -10.34304 -10.34218 -10.30564
 Alpha  occ. eigenvalues --  -10.29947 -10.28607 -10.28428 -10.28157 -10.27917
 Alpha  occ. eigenvalues --  -10.27231 -10.27101 -10.26925 -10.26600 -10.26306
 Alpha  occ. eigenvalues --  -10.26262 -10.26166 -10.25978 -10.25386 -10.25262
 Alpha  occ. eigenvalues --  -10.25033 -10.25022 -10.24991 -10.24630 -10.24495
 Alpha  occ. eigenvalues --  -10.24319 -10.24307 -10.24306 -10.24101 -10.24003
 Alpha  occ. eigenvalues --  -10.23994 -10.23981 -10.23701 -10.23671 -10.23659
 Alpha  occ. eigenvalues --  -10.23651 -10.23642 -10.23575 -10.23477 -10.23401
 Alpha  occ. eigenvalues --  -10.23365 -10.23349 -10.23010 -10.22754 -10.22739
 Alpha  occ. eigenvalues --  -10.22684 -10.22622 -10.22601 -10.22560 -10.22544
 Alpha  occ. eigenvalues --  -10.22369 -10.22052 -10.21947 -10.21749 -10.21744
 Alpha  occ. eigenvalues --  -10.21292  -3.13331  -1.86162  -1.85683  -1.85590
 Alpha  occ. eigenvalues --   -1.11749  -1.09765  -1.04398  -1.04244  -1.03048
 Alpha  occ. eigenvalues --   -1.00642  -0.99224  -0.98423  -0.98018  -0.97197
 Alpha  occ. eigenvalues --   -0.85568  -0.85159  -0.83637  -0.83191  -0.82996
 Alpha  occ. eigenvalues --   -0.82826  -0.82714  -0.82004  -0.81530  -0.81512
 Alpha  occ. eigenvalues --   -0.80681  -0.79259  -0.78378  -0.77732  -0.76900
 Alpha  occ. eigenvalues --   -0.76769  -0.76193  -0.75370  -0.75062  -0.74718
 Alpha  occ. eigenvalues --   -0.74282  -0.73074  -0.71695  -0.70811  -0.69978
 Alpha  occ. eigenvalues --   -0.69605  -0.69491  -0.69159  -0.69007  -0.68544
 Alpha  occ. eigenvalues --   -0.67980  -0.67348  -0.65760  -0.64528  -0.64147
 Alpha  occ. eigenvalues --   -0.63023  -0.62525  -0.61863  -0.60948  -0.60501
 Alpha  occ. eigenvalues --   -0.59551  -0.59410  -0.58594  -0.58440  -0.58394
 Alpha  occ. eigenvalues --   -0.57956  -0.57832  -0.56716  -0.55707  -0.55032
 Alpha  occ. eigenvalues --   -0.54264  -0.53552  -0.53204  -0.52505  -0.51677
 Alpha  occ. eigenvalues --   -0.51441  -0.51053  -0.50712  -0.50328  -0.49662
 Alpha  occ. eigenvalues --   -0.49585  -0.49380  -0.48964  -0.48856  -0.48562
 Alpha  occ. eigenvalues --   -0.48061  -0.47876  -0.47827  -0.47305  -0.47145
 Alpha  occ. eigenvalues --   -0.46990  -0.46843  -0.46743  -0.46244  -0.46034
 Alpha  occ. eigenvalues --   -0.45942  -0.45719  -0.45643  -0.45299  -0.45136
 Alpha  occ. eigenvalues --   -0.44815  -0.44727  -0.44477  -0.44313  -0.44176
 Alpha  occ. eigenvalues --   -0.44144  -0.44039  -0.43747  -0.43431  -0.43314
 Alpha  occ. eigenvalues --   -0.43146  -0.42993  -0.42785  -0.42484  -0.42355
 Alpha  occ. eigenvalues --   -0.42181  -0.41906  -0.41510  -0.41265  -0.41082
 Alpha  occ. eigenvalues --   -0.40922  -0.40714  -0.40684  -0.40376  -0.40115
 Alpha  occ. eigenvalues --   -0.39941  -0.39884  -0.39597  -0.39539  -0.39439
 Alpha  occ. eigenvalues --   -0.39247  -0.39084  -0.38700  -0.38649  -0.38566
 Alpha  occ. eigenvalues --   -0.38479  -0.38304  -0.38030  -0.37863  -0.37657
 Alpha  occ. eigenvalues --   -0.37584  -0.37285  -0.37225  -0.37012  -0.36690
 Alpha  occ. eigenvalues --   -0.36529  -0.36111  -0.36049  -0.35882  -0.35863
 Alpha  occ. eigenvalues --   -0.35740  -0.35406  -0.35347  -0.35206  -0.34571
 Alpha  occ. eigenvalues --   -0.34385  -0.34310  -0.34157  -0.34054  -0.33866
 Alpha  occ. eigenvalues --   -0.33614  -0.33450  -0.32838  -0.32707  -0.32391
 Alpha  occ. eigenvalues --   -0.32285  -0.31769  -0.31520  -0.31397  -0.31288
 Alpha  occ. eigenvalues --   -0.31067  -0.30624  -0.29817  -0.29377  -0.29120
 Alpha  occ. eigenvalues --   -0.28554  -0.28207  -0.27514  -0.27085  -0.26729
 Alpha  occ. eigenvalues --   -0.26567  -0.25706  -0.25059  -0.23960  -0.20692
 Alpha  occ. eigenvalues --   -0.18477
 Alpha virt. eigenvalues --   -0.10751  -0.04965  -0.03194  -0.01421  -0.00154
 Alpha virt. eigenvalues --    0.00104   0.01772   0.02125   0.02186   0.03340
 Alpha virt. eigenvalues --    0.04708   0.05265   0.05367   0.05538   0.05845

 Mulliken charges:
               1
     1  Mg   0.993986
     2  C    0.037995
     3  C   -0.088436
     4  C   -0.064795
     5  C   -0.057248
     6  N   -0.425337
     7  C   -0.003467
     8  C   -0.079183
     9  C   -0.148995
    10  C    0.145448
    11  C   -0.006889
    12  C    0.042878
    13  C   -0.031040
    14  C    0.228264
    15  O   -0.235235
    16  O   -0.368010
    17  N   -0.498607
    18  C    0.143716
    19  C   -0.157146
    20  C   -0.081556
    21  C    0.155664
    22  C    0.037180
    23  C    0.099813
    24  O   -0.242187
    25  C   -0.038532
    26  N   -0.353023
    27  C    0.035428
    28  C   -0.091111
    29  C   -0.134710
    30  C    0.084842
    31  C    0.004980
    32  C   -0.048279
    33  C   -0.083984
    34  N   -0.472077
    35  C    0.127552
    36  C   -0.206431
    37  C    0.012470
    38  C    0.113414
    39  C    0.096037
    40  C    0.092548
    41  O   -0.223176
    42  C   -0.140216
    43  C    0.303426
    44  O   -0.273423
    45  O   -0.344759
    46  C    0.141735
    47  C    0.262513
    48  C   -0.132957
    49  C   -0.267134
    50  C    0.016491
    51  C   -0.001570
    52  C   -0.032348
    53  C    0.005965
    54  C   -0.227997
    55  C    0.003107
    56  C   -0.009336
    57  C   -0.075670
    58  C    0.009007
    59  C   -0.187620
    60  C   -0.024568
    61  C    0.012602
    62  C   -0.072574
    63  C   -0.035245
    64  C   -0.232121
    65  C   -0.043815
    66  C    0.014761
    67  H   -0.021835
    68  H    0.022063
    69  H    0.003243
    70  H    0.080842
    71  H    0.059715
    72  H    0.053830
    73  H    0.049186
    74  H    0.032650
    75  H    0.044525
    76  H    0.050084
    77  H    0.054463
    78  H    0.055102
    79  H    0.069799
    80  H    0.040783
    81  H    0.055574
    82  H    0.064661
    83  H    0.071546
    84  H    0.052387
    85  H    0.043686
    86  H    0.033184
    87  H    0.046364
    88  H    0.069094
    89  H    0.048461
    90  H    0.044412
    91  H    0.038150
    92  H    0.039998
    93  H    0.055884
    94  H    0.071083
    95  H    0.070253
    96  H    0.027507
    97  H    0.054322
    98  H    0.077023
    99  H    0.040506
   100  H    0.067031
   101  H    0.045021
   102  H    0.047093
   103  H    0.059827
   104  H    0.017516
   105  H    0.039730
   106  H    0.049885
   107  H    0.067781
   108  H    0.020096
   109  H    0.040276
   110  H    0.049878
   111  H    0.042453
   112  H    0.019560
   113  H    0.015715
   114  H    0.044390
   115  H    0.026782
   116  H    0.035781
   117  H    0.025629
   118  H    0.034027
   119  H    0.030717
   120  H    0.027048
   121  H    0.035796
   122  H    0.018684
   123  H    0.019517
   124  H    0.038574
   125  H    0.030794
   126  H    0.039729
   127  H    0.026059
   128  H    0.017523
   129  H    0.029483
   130  H    0.037728
   131  H    0.029046
   132  H    0.032147
   133  H    0.023217
   134  H    0.035370
   135  H    0.040726
   136  H    0.034755
   137  H    0.026509
   138  H    0.026026
   139  H    0.033968
   140  H    0.038553
 Sum of Mulliken charges =  -0.00000

 Dipole moment (field-independent basis, Debye):
    X=             -5.8234    Y=              4.5329    Z=              2.1858  Tot=              7.6966
 Quadrupole moment (field-independent basis, Debye-Ang):
   XX=           -378.7992   YY=           -429.2927   ZZ=           -399.5531
   XY=             30.2505   XZ=             18.9492   YZ=             -5.4191

 Normal termination of Gaussian 16 at Wed May  4 01:07:47 2022.
