 Gaussian 16, Revision A.03,
 Gaussian 16:  ES64L-G16RevA.03 25-Dec-2016

 --------------------------------
 #p wB97XD/Def2SVP td=(nstates=5)
 --------------------------------

 -----------------------------------------------------
 step_1201_chromophore_24 TDDFT with wB97XD functional
 -----------------------------------------------------
 Symbolic Z-matrix:
 Charge =  0 Multiplicity = 1

                         Standard orientation:
 ---------------------------------------------------------------------
 Center     Atomic      Atomic             Coordinates (Angstroms)
 Number     Number       Type             X           Y           Z
 ---------------------------------------------------------------------
      1         12           0        4.918852    0.942853    0.242571
      2          6           0        3.748726   -2.304447   -0.084318
      3          6           0        1.915627    1.955035   -0.455073
      4          6           0        6.246187    4.047941   -0.331863
      5          6           0        8.194692   -0.268198    0.523930
      6          7           0        3.080352   -0.095336   -0.006606
      7          6           0        2.758146   -1.427385   -0.015328
      8          6           0        1.298188   -1.693689   -0.072364
      9          6           0        0.725500   -0.239979   -0.389480
     10          6           0        1.982298    0.610309   -0.356629
     11          6           0       -0.024054   -0.187605   -1.821983
     12          6           0        0.635468   -2.320400    1.265689
     13          6           0       -0.019375   -3.670227    1.159728
     14          6           0       -0.832849   -4.074281   -0.180365
     15          8           0       -0.496135   -4.912889   -0.981999
     16          8           0       -1.924194   -3.240993   -0.254750
     17          7           0        4.146958    2.743700   -0.198356
     18          6           0        2.892190    3.021257   -0.476538
     19          6           0        2.695547    4.466809   -0.777018
     20          6           0        3.910534    5.086036   -0.570403
     21          6           0        4.851344    3.967806   -0.318173
     22          6           0        1.321822    5.006670   -1.031020
     23          6           0        4.311468    6.586185   -0.610409
     24          8           0        5.462439    7.019589   -0.394367
     25          6           0        3.175968    7.571005   -0.967011
     26          7           0        6.944496    1.811138    0.028116
     27          6           0        7.250978    3.090069   -0.124282
     28          6           0        8.762015    3.354191    0.122123
     29          6           0        9.270099    2.000980    0.600930
     30          6           0        8.049920    1.079001    0.453556
     31          6           0        9.532077    3.941875   -1.122093
     32          6           0        9.824125    2.048233    2.082259
     33          6           0        8.715110    2.439144    3.195056
     34          7           0        5.821121   -0.910796    0.225629
     35          6           0        7.170649   -1.261779    0.385091
     36          6           0        7.310774   -2.665381    0.403435
     37          6           0        6.041109   -3.118429    0.174085
     38          6           0        5.121470   -2.017687    0.112322
     39          6           0        8.558362   -3.475736    0.697875
     40          6           0        5.238844   -4.291870    0.007492
     41          8           0        5.500050   -5.482489    0.075929
     42          6           0        3.700998   -3.873508   -0.200331
     43          6           0        3.239576   -4.406851   -1.466059
     44          8           0        3.337519   -3.836940   -2.544367
     45          8           0        2.501211   -5.516942   -1.261980
     46          6           0        1.946501   -6.235210   -2.388982
     47          6           0       -2.922641   -3.539849   -1.263356
     48          6           0       -4.281375   -2.955570   -0.840859
     49          6           0       -5.490468   -3.400153   -1.076416
     50          6           0       -5.759060   -4.551207   -2.017200
     51          6           0       -6.732675   -2.602674   -0.635577
     52          6           0       -7.122880   -3.092918    0.783609
     53          6           0       -6.471182   -2.131455    1.859587
     54          6           0       -7.566867   -1.786144    2.883993
     55          6           0       -7.342361   -2.423947    4.270545
     56          6           0       -7.662124   -0.199654    2.889309
     57          6           0       -9.152818    0.232985    2.688550
     58          6           0       -9.312578    1.762406    2.368738
     59          6           0       -9.859503    2.210499    1.019715
     60          6           0       -8.886624    3.260830    0.333426
     61          6           0      -11.351785    2.690436    1.132021
     62          6           0      -12.323718    2.048084    0.097835
     63          6           0      -13.350364    3.060889   -0.475093
     64          6           0      -14.034448    2.654148   -1.811721
     65          6           0      -13.218812    3.327296   -2.973142
     66          6           0      -15.513983    3.008857   -1.996976
     67          1           0        0.927418    2.350085   -0.699866
     68          1           0        6.656522    5.054419   -0.433969
     69          1           0        9.202578   -0.590253    0.794773
     70          1           0        1.233810   -2.376264   -0.919697
     71          1           0        0.076639    0.205456    0.365409
     72          1           0       -0.057851   -1.184931   -2.260763
     73          1           0        0.318096    0.522440   -2.574207
     74          1           0       -1.045421    0.156286   -1.659246
     75          1           0       -0.149477   -1.666927    1.645895
     76          1           0        1.424088   -2.396113    2.013924
     77          1           0       -0.618806   -3.818291    2.057353
     78          1           0        0.752369   -4.433944    1.263024
     79          1           0        0.977566    5.309543   -0.041990
     80          1           0        0.580989    4.273590   -1.346686
     81          1           0        1.223284    5.739069   -1.831827
     82          1           0        2.417106    7.405423   -0.201677
     83          1           0        2.860205    7.391128   -1.994328
     84          1           0        3.394871    8.639080   -0.968072
     85          1           0        8.833659    4.049599    0.958297
     86          1           0       10.113169    1.771924   -0.050999
     87          1           0       10.570974    4.003607   -0.796452
     88          1           0        9.114981    4.870383   -1.511474
     89          1           0        9.465570    3.078215   -1.784133
     90          1           0       10.640156    2.770688    2.057481
     91          1           0       10.218829    1.045723    2.247749
     92          1           0        9.154141    3.321916    3.659224
     93          1           0        8.707445    1.674469    3.971858
     94          1           0        7.770673    2.746690    2.744786
     95          1           0        8.355818   -4.421955    1.200032
     96          1           0        9.243706   -2.855949    1.274853
     97          1           0        9.080060   -3.604353   -0.251050
     98          1           0        3.129257   -4.288056    0.630656
     99          1           0        1.665963   -5.549056   -3.187267
    100          1           0        1.065838   -6.803109   -2.088477
    101          1           0        2.684260   -6.851318   -2.903193
    102          1           0       -3.007178   -4.624935   -1.320993
    103          1           0       -2.669630   -3.122298   -2.237937
    104          1           0       -4.237883   -2.029150   -0.268688
    105          1           0       -6.773158   -4.928457   -1.889465
    106          1           0       -5.062725   -5.375673   -1.868605
    107          1           0       -5.628870   -4.058758   -2.981049
    108          1           0       -7.490847   -2.807511   -1.391167
    109          1           0       -6.528818   -1.533521   -0.697082
    110          1           0       -6.758239   -4.095395    1.009409
    111          1           0       -8.213104   -3.076674    0.769088
    112          1           0       -5.929570   -1.298895    1.409860
    113          1           0       -5.597917   -2.544508    2.363975
    114          1           0       -8.485548   -2.290937    2.582519
    115          1           0       -6.493126   -3.106066    4.233431
    116          1           0       -8.201776   -3.000793    4.612504
    117          1           0       -7.106933   -1.673654    5.024576
    118          1           0       -7.119690    0.252980    2.060456
    119          1           0       -7.272730    0.142532    3.848780
    120          1           0       -9.541877    0.158086    3.703255
    121          1           0       -9.656939   -0.451294    2.005390
    122          1           0       -8.389752    2.279689    2.632162
    123          1           0      -10.035252    2.023249    3.142877
    124          1           0       -9.761190    1.377596    0.323468
    125          1           0       -7.918299    3.275919    0.833963
    126          1           0       -9.276840    4.267637    0.185209
    127          1           0       -8.663104    2.889787   -0.666904
    128          1           0      -11.378009    3.769355    0.976829
    129          1           0      -11.829608    2.612739    2.108831
    130          1           0      -12.913218    1.249692    0.548146
    131          1           0      -11.708716    1.678240   -0.722290
    132          1           0      -12.799786    4.001119   -0.485716
    133          1           0      -14.076920    3.091192    0.336798
    134          1           0      -13.947396    1.591571   -2.040646
    135          1           0      -13.631073    4.309123   -3.205573
    136          1           0      -13.148974    2.717701   -3.873907
    137          1           0      -12.194583    3.436288   -2.616951
    138          1           0      -16.061791    2.091054   -2.209858
    139          1           0      -15.702749    3.568848   -2.912590
    140          1           0      -15.781128    3.428594   -1.027124
 ---------------------------------------------------------------------

 SCF Done:  E(RwB97XD) =  -3007.86904735     A.U. after   19 cycles

 Excitation energies and oscillator strengths:

 Excited State   1:      Singlet-A      1.7866 eV  693.97 nm  f=0.3833  <S**2>=0.000
     245 -> 248        0.12354
     246 -> 247        0.68380
 This state for optimization and/or second-order correction.
 Total Energy, E(TD-HF/TD-DFT) =  -3007.80339111
 Copying the excited state density for this state as the 1-particle RhoCI density.

 Excited State   2:      Singlet-A      2.2773 eV  544.43 nm  f=0.1340  <S**2>=0.000
     245 -> 247        0.64492
     246 -> 248       -0.22735
     246 -> 249       -0.13356

 Excited State   3:      Singlet-A      3.6063 eV  343.79 nm  f=0.0671  <S**2>=0.000
     243 -> 247       -0.10110
     244 -> 247        0.51956
     244 -> 249       -0.14078
     244 -> 250        0.30256
     245 -> 247       -0.10052
     246 -> 248       -0.25683

 Excited State   4:      Singlet-A      3.6396 eV  340.65 nm  f=0.4399  <S**2>=0.000
     236 -> 247        0.10789
     238 -> 247        0.14024
     241 -> 247        0.20042
     243 -> 247       -0.19179
     244 -> 247        0.18944
     245 -> 247        0.20070
     245 -> 248       -0.10145
     246 -> 248        0.48580
     246 -> 249        0.11735

 Excited State   5:      Singlet-A      3.6495 eV  339.72 nm  f=0.0593  <S**2>=0.000
     238 -> 247        0.35170
     238 -> 248       -0.25642
     238 -> 249        0.23761
     239 -> 247        0.29073
     239 -> 248       -0.18154
     239 -> 249        0.16310
     240 -> 247        0.13768
     246 -> 248       -0.19649

 The electronic state is 1-A.
 Alpha  occ. eigenvalues --  -46.93948 -19.30744 -19.28122 -19.25999 -19.25933
 Alpha  occ. eigenvalues --  -19.22161 -19.21678 -14.46324 -14.45270 -14.45015
 Alpha  occ. eigenvalues --  -14.42672 -10.44172 -10.41609 -10.40827 -10.36918
 Alpha  occ. eigenvalues --  -10.36398 -10.35541 -10.35492 -10.34913 -10.34563
 Alpha  occ. eigenvalues --  -10.34388 -10.33317 -10.32998 -10.32941 -10.32844
 Alpha  occ. eigenvalues --  -10.32564 -10.32096 -10.31966 -10.31695 -10.31476
 Alpha  occ. eigenvalues --  -10.31382 -10.31329 -10.31271 -10.31177 -10.30796
 Alpha  occ. eigenvalues --  -10.30722 -10.30612 -10.30553 -10.30372 -10.30339
 Alpha  occ. eigenvalues --  -10.30280 -10.30170 -10.30052 -10.30015 -10.30008
 Alpha  occ. eigenvalues --  -10.30002 -10.29948 -10.29840 -10.29761 -10.29750
 Alpha  occ. eigenvalues --  -10.29708 -10.29640 -10.29117 -10.29080 -10.29077
 Alpha  occ. eigenvalues --  -10.29045 -10.28966 -10.28935 -10.28928 -10.28922
 Alpha  occ. eigenvalues --  -10.28798 -10.28419 -10.28352 -10.28179 -10.28176
 Alpha  occ. eigenvalues --  -10.26909  -3.20121  -1.93706  -1.93228  -1.93129
 Alpha  occ. eigenvalues --   -1.19025  -1.16926  -1.12377  -1.11472  -1.09997
 Alpha  occ. eigenvalues --   -1.07774  -1.06904  -1.05756  -1.05459  -1.04265
 Alpha  occ. eigenvalues --   -0.92892  -0.92793  -0.91305  -0.91202  -0.90619
 Alpha  occ. eigenvalues --   -0.90587  -0.90334  -0.89707  -0.89191  -0.89072
 Alpha  occ. eigenvalues --   -0.87927  -0.86836  -0.86029  -0.85357  -0.84538
 Alpha  occ. eigenvalues --   -0.84488  -0.84173  -0.83014  -0.82672  -0.82321
 Alpha  occ. eigenvalues --   -0.81928  -0.80885  -0.79170  -0.78367  -0.77607
 Alpha  occ. eigenvalues --   -0.77196  -0.77119  -0.76842  -0.76546  -0.76177
 Alpha  occ. eigenvalues --   -0.75594  -0.74783  -0.73355  -0.72192  -0.71719
 Alpha  occ. eigenvalues --   -0.70843  -0.70164  -0.69256  -0.68554  -0.68021
 Alpha  occ. eigenvalues --   -0.67164  -0.66735  -0.66078  -0.66050  -0.65847
 Alpha  occ. eigenvalues --   -0.65496  -0.65379  -0.64356  -0.62972  -0.62856
 Alpha  occ. eigenvalues --   -0.61702  -0.60855  -0.60640  -0.59909  -0.58870
 Alpha  occ. eigenvalues --   -0.58795  -0.58530  -0.58152  -0.57625  -0.57026
 Alpha  occ. eigenvalues --   -0.56953  -0.56666  -0.56357  -0.56267  -0.56003
 Alpha  occ. eigenvalues --   -0.55971  -0.55284  -0.55226  -0.54805  -0.54506
 Alpha  occ. eigenvalues --   -0.54322  -0.54225  -0.53977  -0.53790  -0.53326
 Alpha  occ. eigenvalues --   -0.53298  -0.53076  -0.52986  -0.52777  -0.52466
 Alpha  occ. eigenvalues --   -0.52416  -0.51902  -0.51791  -0.51658  -0.51481
 Alpha  occ. eigenvalues --   -0.51380  -0.51247  -0.51035  -0.50887  -0.50600
 Alpha  occ. eigenvalues --   -0.50467  -0.50289  -0.50106  -0.49815  -0.49727
 Alpha  occ. eigenvalues --   -0.49279  -0.49082  -0.48788  -0.48630  -0.48286
 Alpha  occ. eigenvalues --   -0.48088  -0.47882  -0.47757  -0.47575  -0.47254
 Alpha  occ. eigenvalues --   -0.47135  -0.47098  -0.46782  -0.46676  -0.46607
 Alpha  occ. eigenvalues --   -0.46355  -0.46165  -0.46051  -0.45771  -0.45627
 Alpha  occ. eigenvalues --   -0.45509  -0.45470  -0.45398  -0.45180  -0.44979
 Alpha  occ. eigenvalues --   -0.44626  -0.44279  -0.44195  -0.43917  -0.43668
 Alpha  occ. eigenvalues --   -0.43634  -0.43229  -0.43123  -0.42963  -0.42929
 Alpha  occ. eigenvalues --   -0.42726  -0.42507  -0.42260  -0.42168  -0.41558
 Alpha  occ. eigenvalues --   -0.41388  -0.41273  -0.41065  -0.41020  -0.40877
 Alpha  occ. eigenvalues --   -0.40620  -0.40511  -0.39918  -0.39610  -0.39358
 Alpha  occ. eigenvalues --   -0.39344  -0.38686  -0.38534  -0.38416  -0.38238
 Alpha  occ. eigenvalues --   -0.38024  -0.37534  -0.36736  -0.36099  -0.35964
 Alpha  occ. eigenvalues --   -0.35395  -0.35074  -0.34469  -0.34223  -0.33975
 Alpha  occ. eigenvalues --   -0.33191  -0.32461  -0.31127  -0.30526  -0.25886
 Alpha  occ. eigenvalues --   -0.22794
 Alpha virt. eigenvalues --   -0.06457   0.00735   0.02769   0.05308   0.05721
 Alpha virt. eigenvalues --    0.07067   0.08542   0.08920   0.09185   0.09700
 Alpha virt. eigenvalues --    0.10975   0.11985   0.12134   0.12406   0.12626

 Mulliken charges:
               1
     1  Mg   0.981385
     2  C    0.030981
     3  C   -0.110050
     4  C   -0.075883
     5  C   -0.067770
     6  N   -0.395483
     7  C   -0.036917
     8  C   -0.047978
     9  C   -0.125469
    10  C    0.142715
    11  C    0.003327
    12  C    0.052012
    13  C   -0.011299
    14  C    0.214683
    15  O   -0.231061
    16  O   -0.367254
    17  N   -0.467933
    18  C    0.139617
    19  C   -0.141339
    20  C   -0.077659
    21  C    0.153884
    22  C    0.046519
    23  C    0.097238
    24  O   -0.233337
    25  C   -0.026522
    26  N   -0.314093
    27  C    0.017926
    28  C   -0.069679
    29  C   -0.103564
    30  C    0.063261
    31  C    0.018863
    32  C   -0.033793
    33  C   -0.063716
    34  N   -0.430433
    35  C    0.111908
    36  C   -0.204827
    37  C    0.015535
    38  C    0.092994
    39  C    0.107088
    40  C    0.072417
    41  O   -0.218871
    42  C   -0.096995
    43  C    0.275297
    44  O   -0.267614
    45  O   -0.340714
    46  C    0.153670
    47  C    0.277430
    48  C   -0.146339
    49  C   -0.250125
    50  C    0.030174
    51  C    0.019408
    52  C   -0.014510
    53  C    0.017328
    54  C   -0.197975
    55  C    0.014182
    56  C    0.008205
    57  C   -0.056846
    58  C    0.024787
    59  C   -0.160786
    60  C   -0.011518
    61  C    0.025993
    62  C   -0.055500
    63  C   -0.014341
    64  C   -0.207368
    65  C   -0.029192
    66  C    0.026771
    67  H   -0.034230
    68  H    0.017998
    69  H   -0.003050
    70  H    0.060984
    71  H    0.050911
    72  H    0.049550
    73  H    0.043346
    74  H    0.026773
    75  H    0.036513
    76  H    0.043678
    77  H    0.049527
    78  H    0.047163
    79  H    0.067038
    80  H    0.040094
    81  H    0.053231
    82  H    0.058932
    83  H    0.067016
    84  H    0.053155
    85  H    0.032220
    86  H    0.022958
    87  H    0.041019
    88  H    0.064461
    89  H    0.041176
    90  H    0.034946
    91  H    0.029923
    92  H    0.033538
    93  H    0.051981
    94  H    0.058021
    95  H    0.066361
    96  H    0.018574
    97  H    0.047410
    98  H    0.065301
    99  H    0.036333
   100  H    0.064569
   101  H    0.041117
   102  H    0.039752
   103  H    0.055665
   104  H    0.012500
   105  H    0.034431
   106  H    0.044533
   107  H    0.061531
   108  H    0.013084
   109  H    0.031508
   110  H    0.041003
   111  H    0.034435
   112  H    0.006900
   113  H    0.007724
   114  H    0.029328
   115  H    0.020225
   116  H    0.030926
   117  H    0.019015
   118  H    0.021574
   119  H    0.021915
   120  H    0.017657
   121  H    0.026890
   122  H    0.009406
   123  H    0.010165
   124  H    0.025271
   125  H    0.024090
   126  H    0.034056
   127  H    0.020072
   128  H    0.005961
   129  H    0.021992
   130  H    0.030207
   131  H    0.016671
   132  H    0.020966
   133  H    0.013627
   134  H    0.025326
   135  H    0.033691
   136  H    0.029741
   137  H    0.017686
   138  H    0.020576
   139  H    0.028308
   140  H    0.032211
 Sum of Mulliken charges =  -0.00000

 Dipole moment (field-independent basis, Debye):
    X=             -6.1546    Y=              5.8977    Z=              2.0199  Tot=              8.7602
 Quadrupole moment (field-independent basis, Debye-Ang):
   XX=           -382.2905   YY=           -425.3236   ZZ=           -399.0946
   XY=             36.0007   XZ=             18.3048   YZ=             -6.2771

 Normal termination of Gaussian 16 at Wed May  4 01:42:03 2022.
