 Gaussian 16, Revision A.03,
 Gaussian 16:  ES64L-G16RevA.03 25-Dec-2016

 --------------------
 #p ZINDO=(nstates=5)
 --------------------

 ------------------------------
 step_1201_chromophore_24 ZINDO
 ------------------------------
 Symbolic Z-matrix:
 Charge =  0 Multiplicity = 1

                         Standard orientation:
 ---------------------------------------------------------------------
 Center     Atomic      Atomic             Coordinates (Angstroms)
 Number     Number       Type             X           Y           Z
 ---------------------------------------------------------------------
      1         12           0        4.918852    0.942853    0.242571
      2          6           0        3.748726   -2.304447   -0.084318
      3          6           0        1.915627    1.955035   -0.455073
      4          6           0        6.246187    4.047941   -0.331863
      5          6           0        8.194692   -0.268198    0.523930
      6          7           0        3.080352   -0.095336   -0.006606
      7          6           0        2.758146   -1.427385   -0.015328
      8          6           0        1.298188   -1.693689   -0.072364
      9          6           0        0.725500   -0.239979   -0.389480
     10          6           0        1.982298    0.610309   -0.356629
     11          6           0       -0.024054   -0.187605   -1.821983
     12          6           0        0.635468   -2.320400    1.265689
     13          6           0       -0.019375   -3.670227    1.159728
     14          6           0       -0.832849   -4.074281   -0.180365
     15          8           0       -0.496135   -4.912889   -0.981999
     16          8           0       -1.924194   -3.240993   -0.254750
     17          7           0        4.146958    2.743700   -0.198356
     18          6           0        2.892190    3.021257   -0.476538
     19          6           0        2.695547    4.466809   -0.777018
     20          6           0        3.910534    5.086036   -0.570403
     21          6           0        4.851344    3.967806   -0.318173
     22          6           0        1.321822    5.006670   -1.031020
     23          6           0        4.311468    6.586185   -0.610409
     24          8           0        5.462439    7.019589   -0.394367
     25          6           0        3.175968    7.571005   -0.967011
     26          7           0        6.944496    1.811138    0.028116
     27          6           0        7.250978    3.090069   -0.124282
     28          6           0        8.762015    3.354191    0.122123
     29          6           0        9.270099    2.000980    0.600930
     30          6           0        8.049920    1.079001    0.453556
     31          6           0        9.532077    3.941875   -1.122093
     32          6           0        9.824125    2.048233    2.082259
     33          6           0        8.715110    2.439144    3.195056
     34          7           0        5.821121   -0.910796    0.225629
     35          6           0        7.170649   -1.261779    0.385091
     36          6           0        7.310774   -2.665381    0.403435
     37          6           0        6.041109   -3.118429    0.174085
     38          6           0        5.121470   -2.017687    0.112322
     39          6           0        8.558362   -3.475736    0.697875
     40          6           0        5.238844   -4.291870    0.007492
     41          8           0        5.500050   -5.482489    0.075929
     42          6           0        3.700998   -3.873508   -0.200331
     43          6           0        3.239576   -4.406851   -1.466059
     44          8           0        3.337519   -3.836940   -2.544367
     45          8           0        2.501211   -5.516942   -1.261980
     46          6           0        1.946501   -6.235210   -2.388982
     47          6           0       -2.922641   -3.539849   -1.263356
     48          6           0       -4.281375   -2.955570   -0.840859
     49          6           0       -5.490468   -3.400153   -1.076416
     50          6           0       -5.759060   -4.551207   -2.017200
     51          6           0       -6.732675   -2.602674   -0.635577
     52          6           0       -7.122880   -3.092918    0.783609
     53          6           0       -6.471182   -2.131455    1.859587
     54          6           0       -7.566867   -1.786144    2.883993
     55          6           0       -7.342361   -2.423947    4.270545
     56          6           0       -7.662124   -0.199654    2.889309
     57          6           0       -9.152818    0.232985    2.688550
     58          6           0       -9.312578    1.762406    2.368738
     59          6           0       -9.859503    2.210499    1.019715
     60          6           0       -8.886624    3.260830    0.333426
     61          6           0      -11.351785    2.690436    1.132021
     62          6           0      -12.323718    2.048084    0.097835
     63          6           0      -13.350364    3.060889   -0.475093
     64          6           0      -14.034448    2.654148   -1.811721
     65          6           0      -13.218812    3.327296   -2.973142
     66          6           0      -15.513983    3.008857   -1.996976
     67          1           0        0.927418    2.350085   -0.699866
     68          1           0        6.656522    5.054419   -0.433969
     69          1           0        9.202578   -0.590253    0.794773
     70          1           0        1.233810   -2.376264   -0.919697
     71          1           0        0.076639    0.205456    0.365409
     72          1           0       -0.057851   -1.184931   -2.260763
     73          1           0        0.318096    0.522440   -2.574207
     74          1           0       -1.045421    0.156286   -1.659246
     75          1           0       -0.149477   -1.666927    1.645895
     76          1           0        1.424088   -2.396113    2.013924
     77          1           0       -0.618806   -3.818291    2.057353
     78          1           0        0.752369   -4.433944    1.263024
     79          1           0        0.977566    5.309543   -0.041990
     80          1           0        0.580989    4.273590   -1.346686
     81          1           0        1.223284    5.739069   -1.831827
     82          1           0        2.417106    7.405423   -0.201677
     83          1           0        2.860205    7.391128   -1.994328
     84          1           0        3.394871    8.639080   -0.968072
     85          1           0        8.833659    4.049599    0.958297
     86          1           0       10.113169    1.771924   -0.050999
     87          1           0       10.570974    4.003607   -0.796452
     88          1           0        9.114981    4.870383   -1.511474
     89          1           0        9.465570    3.078215   -1.784133
     90          1           0       10.640156    2.770688    2.057481
     91          1           0       10.218829    1.045723    2.247749
     92          1           0        9.154141    3.321916    3.659224
     93          1           0        8.707445    1.674469    3.971858
     94          1           0        7.770673    2.746690    2.744786
     95          1           0        8.355818   -4.421955    1.200032
     96          1           0        9.243706   -2.855949    1.274853
     97          1           0        9.080060   -3.604353   -0.251050
     98          1           0        3.129257   -4.288056    0.630656
     99          1           0        1.665963   -5.549056   -3.187267
    100          1           0        1.065838   -6.803109   -2.088477
    101          1           0        2.684260   -6.851318   -2.903193
    102          1           0       -3.007178   -4.624935   -1.320993
    103          1           0       -2.669630   -3.122298   -2.237937
    104          1           0       -4.237883   -2.029150   -0.268688
    105          1           0       -6.773158   -4.928457   -1.889465
    106          1           0       -5.062725   -5.375673   -1.868605
    107          1           0       -5.628870   -4.058758   -2.981049
    108          1           0       -7.490847   -2.807511   -1.391167
    109          1           0       -6.528818   -1.533521   -0.697082
    110          1           0       -6.758239   -4.095395    1.009409
    111          1           0       -8.213104   -3.076674    0.769088
    112          1           0       -5.929570   -1.298895    1.409860
    113          1           0       -5.597917   -2.544508    2.363975
    114          1           0       -8.485548   -2.290937    2.582519
    115          1           0       -6.493126   -3.106066    4.233431
    116          1           0       -8.201776   -3.000793    4.612504
    117          1           0       -7.106933   -1.673654    5.024576
    118          1           0       -7.119690    0.252980    2.060456
    119          1           0       -7.272730    0.142532    3.848780
    120          1           0       -9.541877    0.158086    3.703255
    121          1           0       -9.656939   -0.451294    2.005390
    122          1           0       -8.389752    2.279689    2.632162
    123          1           0      -10.035252    2.023249    3.142877
    124          1           0       -9.761190    1.377596    0.323468
    125          1           0       -7.918299    3.275919    0.833963
    126          1           0       -9.276840    4.267637    0.185209
    127          1           0       -8.663104    2.889787   -0.666904
    128          1           0      -11.378009    3.769355    0.976829
    129          1           0      -11.829608    2.612739    2.108831
    130          1           0      -12.913218    1.249692    0.548146
    131          1           0      -11.708716    1.678240   -0.722290
    132          1           0      -12.799786    4.001119   -0.485716
    133          1           0      -14.076920    3.091192    0.336798
    134          1           0      -13.947396    1.591571   -2.040646
    135          1           0      -13.631073    4.309123   -3.205573
    136          1           0      -13.148974    2.717701   -3.873907
    137          1           0      -12.194583    3.436288   -2.616951
    138          1           0      -16.061791    2.091054   -2.209858
    139          1           0      -15.702749    3.568848   -2.912590
    140          1           0      -15.781128    3.428594   -1.027124
 ---------------------------------------------------------------------

 SCF Done:  E(RZINDO/S) =  -474.351196121     A.U. after   18 cycles

 Excitation energies and oscillator strengths:

 Excited State   1:      Singlet-A      1.3764 eV  900.77 nm  f=0.5245  <S**2>=0.000
     175 ->179        -0.10042
     176 ->177         0.67339
 This state for optimization and/or second-order correction.
 Total Energy, E(CIS/TDA) =  -474.300613533
 Copying the excited state density for this state as the 1-particle RhoCI density.

 Excited State   2:      Singlet-A      2.0787 eV  596.45 nm  f=0.0656  <S**2>=0.000
     175 ->177         0.54958
     176 ->178        -0.32522
     176 ->179         0.22861

 Excited State   3:      Singlet-A      2.9932 eV  414.22 nm  f=0.1035  <S**2>=0.000
     166 ->177         0.30041
     166 ->178        -0.37712
     166 ->179        -0.32748
     166 ->180         0.12221
     166 ->184         0.12723
     166 ->185        -0.13720
     175 ->177         0.11989
     176 ->178         0.20192

 Excited State   4:      Singlet-A      3.0194 eV  410.62 nm  f=0.6791  <S**2>=0.000
     166 ->177        -0.10480
     166 ->178         0.13766
     166 ->179         0.11836
     175 ->177         0.32272
     176 ->178         0.54484

 Excited State   5:      Singlet-A      3.0837 eV  402.07 nm  f=0.0042  <S**2>=0.000
     173 ->177         0.25124
     173 ->179         0.17459
     173 ->180         0.37928
     173 ->181        -0.25853
     173 ->185         0.19747
     173 ->188         0.18800
     173 ->191        -0.11678

 The electronic state is 1-A.
 Alpha  occ. eigenvalues --   -1.85051  -1.82700  -1.81206  -1.72554  -1.72135
 Alpha  occ. eigenvalues --   -1.70890  -1.63977  -1.60847  -1.57228  -1.56568
 Alpha  occ. eigenvalues --   -1.55444  -1.51515  -1.48025  -1.47275  -1.46244
 Alpha  occ. eigenvalues --   -1.44595  -1.42204  -1.40242  -1.39352  -1.38104
 Alpha  occ. eigenvalues --   -1.35386  -1.33789  -1.32794  -1.32090  -1.29191
 Alpha  occ. eigenvalues --   -1.28351  -1.24448  -1.23276  -1.20183  -1.18693
 Alpha  occ. eigenvalues --   -1.17648  -1.15478  -1.15318  -1.14201  -1.12488
 Alpha  occ. eigenvalues --   -1.11841  -1.11438  -1.09907  -1.04877  -1.04141
 Alpha  occ. eigenvalues --   -1.02717  -1.01487  -0.99640  -0.97865  -0.97766
 Alpha  occ. eigenvalues --   -0.95732  -0.94514  -0.94136  -0.93455  -0.92889
 Alpha  occ. eigenvalues --   -0.89992  -0.89115  -0.88727  -0.88455  -0.86729
 Alpha  occ. eigenvalues --   -0.85527  -0.84466  -0.82446  -0.81616  -0.80176
 Alpha  occ. eigenvalues --   -0.79627  -0.77921  -0.76595  -0.76360  -0.76005
 Alpha  occ. eigenvalues --   -0.75168  -0.74685  -0.74143  -0.73979  -0.73474
 Alpha  occ. eigenvalues --   -0.72302  -0.71909  -0.71466  -0.71216  -0.70873
 Alpha  occ. eigenvalues --   -0.70252  -0.69465  -0.68738  -0.68654  -0.68226
 Alpha  occ. eigenvalues --   -0.67413  -0.66997  -0.66578  -0.66445  -0.65944
 Alpha  occ. eigenvalues --   -0.65131  -0.64720  -0.64231  -0.63801  -0.63454
 Alpha  occ. eigenvalues --   -0.62956  -0.62404  -0.62180  -0.61988  -0.61780
 Alpha  occ. eigenvalues --   -0.61390  -0.61271  -0.60872  -0.60234  -0.60119
 Alpha  occ. eigenvalues --   -0.59743  -0.59019  -0.58886  -0.58553  -0.58129
 Alpha  occ. eigenvalues --   -0.57847  -0.57672  -0.57261  -0.57123  -0.56802
 Alpha  occ. eigenvalues --   -0.56274  -0.55836  -0.55439  -0.55380  -0.54888
 Alpha  occ. eigenvalues --   -0.54355  -0.53935  -0.53590  -0.53027  -0.52409
 Alpha  occ. eigenvalues --   -0.52400  -0.52062  -0.51553  -0.51487  -0.51099
 Alpha  occ. eigenvalues --   -0.51007  -0.50775  -0.50479  -0.50334  -0.49792
 Alpha  occ. eigenvalues --   -0.49727  -0.49554  -0.49340  -0.48968  -0.48679
 Alpha  occ. eigenvalues --   -0.48562  -0.48198  -0.47820  -0.47445  -0.47306
 Alpha  occ. eigenvalues --   -0.47069  -0.46925  -0.46856  -0.46607  -0.46377
 Alpha  occ. eigenvalues --   -0.46118  -0.45859  -0.45647  -0.45378  -0.45223
 Alpha  occ. eigenvalues --   -0.45210  -0.45063  -0.44660  -0.44629  -0.43943
 Alpha  occ. eigenvalues --   -0.43786  -0.43444  -0.43068  -0.42312  -0.42170
 Alpha  occ. eigenvalues --   -0.41443  -0.40642  -0.39593  -0.39167  -0.38923
 Alpha  occ. eigenvalues --   -0.37608  -0.36706  -0.36215  -0.35717  -0.33862
 Alpha  occ. eigenvalues --   -0.32955  -0.32593  -0.32561  -0.31299  -0.26990
 Alpha  occ. eigenvalues --   -0.21816
 Alpha virt. eigenvalues --   -0.07933  -0.01677  -0.00399   0.01929   0.02186
 Alpha virt. eigenvalues --    0.02307   0.03432   0.04252   0.04909   0.05194
 Alpha virt. eigenvalues --    0.05476   0.07293   0.07825   0.08012   0.08451

 Mulliken charges:
               1
     1  Mg   0.425807
     2  C   -0.042420
     3  C   -0.124754
     4  C   -0.049477
     5  C   -0.032241
     6  N   -0.313626
     7  C    0.120998
     8  C   -0.000019
     9  C    0.000761
    10  C    0.189501
    11  C   -0.057502
    12  C   -0.016938
    13  C    0.001923
    14  C    0.463466
    15  O   -0.489382
    16  O   -0.274745
    17  N   -0.307647
    18  C    0.169097
    19  C    0.035012
    20  C   -0.017972
    21  C    0.125474
    22  C   -0.042747
    23  C    0.333166
    24  O   -0.504759
    25  C   -0.029710
    26  N   -0.256270
    27  C    0.173362
    28  C    0.003514
    29  C   -0.006037
    30  C    0.058281
    31  C   -0.055674
    32  C   -0.039576
    33  C   -0.061884
    34  N   -0.306957
    35  C    0.028098
    36  C    0.026023
    37  C   -0.072393
    38  C    0.114096
    39  C   -0.039741
    40  C    0.322113
    41  O   -0.547247
    42  C    0.042266
    43  C    0.503811
    44  O   -0.542453
    45  O   -0.257309
    46  C    0.076679
    47  C    0.105679
    48  C   -0.101735
    49  C   -0.003123
    50  C   -0.045214
    51  C   -0.024945
    52  C   -0.027594
    53  C   -0.040172
    54  C   -0.018774
    55  C   -0.058528
    56  C   -0.039672
    57  C   -0.046199
    58  C   -0.039499
    59  C   -0.004918
    60  C   -0.063510
    61  C   -0.036247
    62  C   -0.040617
    63  C   -0.034470
    64  C   -0.014975
    65  C   -0.062928
    66  C   -0.062038
    67  H    0.003335
    68  H    0.038417
    69  H    0.028250
    70  H    0.052232
    71  H    0.039758
    72  H    0.031958
    73  H    0.028285
    74  H    0.011040
    75  H    0.022496
    76  H    0.027479
    77  H    0.034803
    78  H    0.029563
    79  H    0.038442
    80  H    0.023383
    81  H    0.034002
    82  H    0.036517
    83  H    0.040520
    84  H    0.038009
    85  H    0.027519
    86  H    0.025022
    87  H    0.022595
    88  H    0.037125
    89  H    0.026228
    90  H    0.018801
    91  H    0.020893
    92  H    0.011563
    93  H    0.030313
    94  H    0.037252
    95  H    0.040168
    96  H    0.015583
    97  H    0.031183
    98  H    0.048075
    99  H    0.038893
   100  H    0.042087
   101  H    0.038446
   102  H    0.048921
   103  H    0.051254
   104  H    0.021071
   105  H    0.020463
   106  H    0.028974
   107  H    0.035338
   108  H    0.014440
   109  H    0.025988
   110  H    0.028798
   111  H    0.023372
   112  H    0.022703
   113  H    0.014609
   114  H    0.026078
   115  H    0.016438
   116  H    0.017922
   117  H    0.017273
   118  H    0.022069
   119  H    0.025006
   120  H    0.014110
   121  H    0.031511
   122  H    0.020507
   123  H    0.010002
   124  H    0.021694
   125  H    0.019865
   126  H    0.024993
   127  H    0.009688
   128  H    0.014885
   129  H    0.021842
   130  H    0.020697
   131  H    0.017896
   132  H    0.027119
   133  H    0.010853
   134  H    0.021299
   135  H    0.021260
   136  H    0.016874
   137  H    0.009777
   138  H    0.011944
   139  H    0.027948
   140  H    0.029787
 Sum of Mulliken charges =  -0.00000

 Dipole moment (field-independent basis, Debye):
    X=             -8.6677    Y=              9.9868    Z=              2.4846  Tot=             13.4550
 N-N= 4.362769776946D+03 E-N= 0.000000000000D+00  KE=-9.400415901802D+03
 Leave Link  601 at Wed May  4 01:54:05 2022, MaxMem=  6710886400 cpu:               0.8 elap:               0.0
 (Enter /sw/apps/gaussian-16.0/g16/l9999.exe)
 1\1\GINC-BP1-COMPUTE092\SP\RZINDO CIS\STO-3G\C55H74Mg1N4O6\OF15641\04-
 May-2022\0\\#p ZINDO=(nstates=5)\\step_1201_chromophore_24 ZINDO\\0,1\
 Mg,0,-0.082,43.948,24.845\C,0,1.978,43.246,27.544\C,0,-2.554,42.789,26
 .599\C,0,-1.888,43.784,21.939\C,0,2.729,44.735,22.907\N,0,-0.23,43.324
 ,26.872\C,0,0.696,43.187,27.873\C,0,0.108,42.86,29.197\C,0,-1.399,42.5
 26,28.798\C,0,-1.407,42.825,27.31\C,0,-1.782,40.989,29.126\C,0,0.187,4
 4.025,30.319\C,0,0.948,43.733,31.583\C,0,0.903,42.251,32.233\O,0,1.829

 Normal termination of Gaussian 16 at Wed May  4 01:54:05 2022.
