 Gaussian 16, Revision A.03,
 Gaussian 16:  ES64L-G16RevA.03 25-Dec-2016

 ------------------------------
 #p blyp/Def2SVP td=(nstates=5)
 ------------------------------

 -------------------------------------------------
 step_551_chromophore_2 TDDFT with blyp functional
 -------------------------------------------------
 Symbolic Z-matrix:
 Charge =  0 Multiplicity = 1

                         Standard orientation:
 ---------------------------------------------------------------------
 Center     Atomic      Atomic             Coordinates (Angstroms)
 Number     Number       Type             X           Y           Z
 ---------------------------------------------------------------------
      1         12           0        4.992257    1.075646   -0.537705
      2          6           0        4.889304   -2.381298   -0.197937
      3          6           0        2.269728    0.868087   -2.739837
      4          6           0        4.524816    4.402267   -0.265804
      5          6           0        7.169979    1.205198    2.199133
      6          7           0        3.617297   -0.581986   -1.268734
      7          6           0        3.745390   -1.894812   -0.874267
      8          6           0        2.640198   -2.710173   -1.402275
      9          6           0        2.067455   -1.781421   -2.543786
     10          6           0        2.660892   -0.412508   -2.182975
     11          6           0        2.274729   -2.309212   -3.984075
     12          6           0        1.611040   -3.135239   -0.263877
     13          6           0        1.243360   -4.680245   -0.227525
     14          6           0       -0.216029   -5.101760   -0.087046
     15          8           0       -0.826157   -5.754513   -0.922821
     16          8           0       -0.850368   -4.377646    0.893757
     17          7           0        3.709303    2.506148   -1.483021
     18          6           0        2.728579    2.187726   -2.373755
     19          6           0        2.085343    3.381374   -2.835643
     20          6           0        2.728913    4.421427   -2.172879
     21          6           0        3.710139    3.836083   -1.295319
     22          6           0        0.869500    3.426337   -3.812670
     23          6           0        2.524893    5.902863   -2.445301
     24          8           0        1.790005    6.170119   -3.336970
     25          6           0        3.300970    7.025713   -1.816840
     26          7           0        5.657500    2.555554    0.850240
     27          6           0        5.328840    3.856258    0.707240
     28          6           0        6.037421    4.744874    1.787239
     29          6           0        6.982081    3.753593    2.559694
     30          6           0        6.571406    2.395473    1.849159
     31          6           0        6.870971    6.042022    1.359814
     32          6           0        6.773205    3.764331    4.144717
     33          6           0        7.974386    3.995785    5.062843
     34          7           0        6.001841   -0.240138    0.598438
     35          6           0        6.926478   -0.044894    1.595856
     36          6           0        7.445769   -1.304684    1.985767
     37          6           0        6.756616   -2.198307    1.219242
     38          6           0        5.852628   -1.543636    0.427087
     39          6           0        8.292892   -1.653051    3.071688
     40          6           0        6.495963   -3.694583    0.994780
     41          8           0        6.997820   -4.677544    1.434757
     42          6           0        5.317749   -3.810365   -0.011489
     43          6           0        5.676931   -4.442580   -1.289456
     44          8           0        5.721853   -5.657048   -1.418956
     45          8           0        5.848487   -3.622816   -2.407063
     46          6           0        6.450376   -4.245533   -3.627548
     47          6           0       -2.291407   -4.465679    1.146778
     48          6           0       -2.944997   -3.115022    1.139496
     49          6           0       -3.522815   -2.547292    2.227973
     50          6           0       -3.491230   -3.052579    3.696989
     51          6           0       -4.186213   -1.124972    2.180452
     52          6           0       -5.687806   -1.040631    2.537202
     53          6           0       -6.303924    0.149914    1.787446
     54          6           0       -6.398136   -0.005127    0.257315
     55          6           0       -6.153225    1.404224   -0.482656
     56          6           0       -7.886857   -0.482568   -0.223140
     57          6           0       -9.093070    0.447095    0.305252
     58          6           0       -9.911749    1.101810   -0.839716
     59          6           0      -11.286022    0.353822   -1.020281
     60          6           0      -11.504689    0.053304   -2.536537
     61          6           0      -12.464346    1.268458   -0.475173
     62          6           0      -13.488297    0.343454    0.283798
     63          6           0      -14.974967    0.792056   -0.019474
     64          6           0      -15.813561    1.085374    1.272431
     65          6           0      -16.937523    0.028628    1.486741
     66          6           0      -16.424374    2.547397    1.349106
     67          1           0        1.412052    0.791952   -3.410899
     68          1           0        4.525090    5.489509   -0.162516
     69          1           0        7.817383    1.076322    3.068855
     70          1           0        3.048957   -3.635941   -1.809062
     71          1           0        0.986245   -1.685503   -2.451705
     72          1           0        1.446865   -2.814690   -4.480918
     73          1           0        3.155685   -2.947797   -4.053622
     74          1           0        2.540267   -1.452721   -4.603719
     75          1           0        0.682956   -2.596575   -0.450141
     76          1           0        2.004009   -2.857635    0.713817
     77          1           0        1.793221   -5.081246    0.623913
     78          1           0        1.591461   -5.098830   -1.172145
     79          1           0        1.241321    3.342438   -4.833533
     80          1           0        0.307923    4.360342   -3.796253
     81          1           0        0.117475    2.654947   -3.642040
     82          1           0        4.366318    6.867337   -1.985623
     83          1           0        3.185260    6.941786   -0.736061
     84          1           0        2.890427    7.958352   -2.201766
     85          1           0        5.168442    5.045776    2.372763
     86          1           0        8.014485    3.813436    2.214895
     87          1           0        6.330939    6.926485    1.698546
     88          1           0        7.044895    6.063151    0.284471
     89          1           0        7.881456    6.192022    1.741042
     90          1           0        6.311638    2.815141    4.416673
     91          1           0        6.125023    4.595541    4.422846
     92          1           0        7.685471    4.834424    5.697585
     93          1           0        8.839755    4.171578    4.424411
     94          1           0        8.181241    3.082232    5.620210
     95          1           0        7.914039   -2.567951    3.528046
     96          1           0        8.458214   -0.935682    3.875046
     97          1           0        9.286045   -1.818677    2.655143
     98          1           0        4.610575   -4.496205    0.454530
     99          1           0        6.291174   -3.513504   -4.419222
    100          1           0        6.008365   -5.205635   -3.895944
    101          1           0        7.534640   -4.351664   -3.603369
    102          1           0       -2.356519   -5.019284    2.084182
    103          1           0       -2.812244   -5.019833    0.366899
    104          1           0       -3.300983   -2.740979    0.180011
    105          1           0       -2.777045   -3.859895    3.860677
    106          1           0       -4.455816   -3.412370    4.053007
    107          1           0       -3.104706   -2.287339    4.369524
    108          1           0       -3.998595   -0.713989    1.187494
    109          1           0       -3.538236   -0.479127    2.774036
    110          1           0       -5.872924   -0.790198    3.582199
    111          1           0       -6.267290   -1.916304    2.242461
    112          1           0       -5.775590    1.082920    1.986890
    113          1           0       -7.252230    0.273750    2.309420
    114          1           0       -5.729702   -0.796081   -0.083387
    115          1           0       -5.379180    1.893150    0.107945
    116          1           0       -7.020230    2.063248   -0.439729
    117          1           0       -5.782628    1.154230   -1.476878
    118          1           0       -7.988131   -1.498167    0.159305
    119          1           0       -7.883197   -0.571001   -1.309779
    120          1           0       -8.793582    1.277313    0.943970
    121          1           0       -9.800223   -0.139891    0.892823
    122          1           0       -9.290117    1.102001   -1.735454
    123          1           0       -9.989961    2.162585   -0.601754
    124          1           0      -11.244496   -0.589038   -0.475029
    125          1           0      -10.817488    0.629651   -3.154942
    126          1           0      -12.493275    0.338471   -2.897415
    127          1           0      -11.389421   -1.017584   -2.708299
    128          1           0      -12.950088    1.891764   -1.225856
    129          1           0      -12.216017    2.038163    0.256123
    130          1           0      -13.348432    0.382550    1.364087
    131          1           0      -13.415559   -0.661624   -0.132226
    132          1           0      -15.496984    0.026249   -0.592267
    133          1           0      -14.903874    1.552718   -0.797057
    134          1           0      -15.148168    0.975431    2.129040
    135          1           0      -17.904656    0.394611    1.143934
    136          1           0      -17.037473   -0.196197    2.547914
    137          1           0      -16.720242   -0.900536    0.959715
    138          1           0      -17.356820    2.561093    0.785852
    139          1           0      -15.653083    3.214218    0.962417
    140          1           0      -16.702103    2.762953    2.380509
 ---------------------------------------------------------------------

 SCF Done:  E(RB-LYP) =  -3007.38099672     A.U. after   21 cycles

 Excitation energies and oscillator strengths:

 Excited State   1:      Singlet-A      1.8791 eV  659.79 nm  f=0.2022  <S**2>=0.000
     244 -> 247       -0.36614
     245 -> 248        0.17542
     246 -> 247        0.58471
     246 <- 247       -0.11980
 This state for optimization and/or second-order correction.
 Total Energy, E(TD-HF/TD-DFT) =  -3007.31193976
 Copying the excited state density for this state as the 1-particle RhoCI density.

 Excited State   2:      Singlet-A      1.8889 eV  656.38 nm  f=0.0921  <S**2>=0.000
     244 -> 247        0.59567
     245 -> 248        0.11085
     246 -> 247        0.35911

 Excited State   3:      Singlet-A      2.0544 eV  603.51 nm  f=0.0760  <S**2>=0.000
     243 -> 247       -0.24310
     245 -> 247        0.61204
     246 -> 248       -0.22043

 Excited State   4:      Singlet-A      2.2747 eV  545.05 nm  f=0.0132  <S**2>=0.000
     243 -> 247        0.65735
     245 -> 247        0.19508
     246 -> 248       -0.15000

 Excited State   5:      Singlet-A      2.5730 eV  481.87 nm  f=0.0011  <S**2>=0.000
     240 -> 247        0.20659
     241 -> 247        0.59449
     242 -> 247       -0.31587

 The electronic state is 1-A.
 Alpha  occ. eigenvalues --  -46.27284 -18.82081 -18.81078 -18.76810 -18.76191
 Alpha  occ. eigenvalues --  -18.76150 -18.75005 -14.03291 -14.03026 -14.00920
 Alpha  occ. eigenvalues --  -14.00482 -10.03883 -10.03784 -10.00636  -9.99198
 Alpha  occ. eigenvalues --   -9.98155  -9.97614  -9.96829  -9.96465  -9.96298
 Alpha  occ. eigenvalues --   -9.96272  -9.95685  -9.95466  -9.94983  -9.94600
 Alpha  occ. eigenvalues --   -9.94529  -9.94339  -9.94246  -9.94154  -9.94111
 Alpha  occ. eigenvalues --   -9.93931  -9.93897  -9.93604  -9.93599  -9.93582
 Alpha  occ. eigenvalues --   -9.93191  -9.93017  -9.92939  -9.92737  -9.92544
 Alpha  occ. eigenvalues --   -9.92482  -9.92438  -9.92418  -9.92411  -9.92357
 Alpha  occ. eigenvalues --   -9.92306  -9.92282  -9.92272  -9.92103  -9.92071
 Alpha  occ. eigenvalues --   -9.92057  -9.92054  -9.91846  -9.91808  -9.91795
 Alpha  occ. eigenvalues --   -9.91283  -9.91271  -9.91181  -9.91165  -9.91154
 Alpha  occ. eigenvalues --   -9.90965  -9.90746  -9.90711  -9.90645  -9.90640
 Alpha  occ. eigenvalues --   -9.90579  -2.91926  -1.72333  -1.71824  -1.71631
 Alpha  occ. eigenvalues --   -0.96874  -0.96784  -0.94018  -0.93452  -0.89054
 Alpha  occ. eigenvalues --   -0.88802  -0.87654  -0.86564  -0.86219  -0.85475
 Alpha  occ. eigenvalues --   -0.76103  -0.73249  -0.72204  -0.72092  -0.71924
 Alpha  occ. eigenvalues --   -0.71569  -0.71440  -0.71132  -0.70261  -0.70130
 Alpha  occ. eigenvalues --   -0.69102  -0.68824  -0.67932  -0.67595  -0.67156
 Alpha  occ. eigenvalues --   -0.66167  -0.65876  -0.65187  -0.64748  -0.64422
 Alpha  occ. eigenvalues --   -0.63395  -0.62644  -0.62464  -0.61765  -0.61161
 Alpha  occ. eigenvalues --   -0.60539  -0.60198  -0.59560  -0.59014  -0.58516
 Alpha  occ. eigenvalues --   -0.58263  -0.57871  -0.57006  -0.55786  -0.54339
 Alpha  occ. eigenvalues --   -0.53915  -0.53716  -0.52582  -0.52544  -0.51867
 Alpha  occ. eigenvalues --   -0.51301  -0.51216  -0.51002  -0.50328  -0.50184
 Alpha  occ. eigenvalues --   -0.49708  -0.49530  -0.49159  -0.47799  -0.46504
 Alpha  occ. eigenvalues --   -0.46192  -0.46095  -0.45805  -0.45169  -0.44800
 Alpha  occ. eigenvalues --   -0.43775  -0.43570  -0.43295  -0.42608  -0.42529
 Alpha  occ. eigenvalues --   -0.42386  -0.41511  -0.41322  -0.40902  -0.40672
 Alpha  occ. eigenvalues --   -0.40547  -0.40224  -0.40083  -0.39747  -0.39657
 Alpha  occ. eigenvalues --   -0.39610  -0.39299  -0.39256  -0.39170  -0.38979
 Alpha  occ. eigenvalues --   -0.38912  -0.38629  -0.38490  -0.38312  -0.38269
 Alpha  occ. eigenvalues --   -0.38184  -0.37722  -0.37573  -0.37282  -0.37091
 Alpha  occ. eigenvalues --   -0.37015  -0.36893  -0.36821  -0.36698  -0.36587
 Alpha  occ. eigenvalues --   -0.36473  -0.36066  -0.35812  -0.35641  -0.35560
 Alpha  occ. eigenvalues --   -0.35098  -0.35057  -0.34957  -0.34903  -0.34824
 Alpha  occ. eigenvalues --   -0.34637  -0.34390  -0.34237  -0.34133  -0.33855
 Alpha  occ. eigenvalues --   -0.33796  -0.33752  -0.33542  -0.33362  -0.33232
 Alpha  occ. eigenvalues --   -0.33098  -0.32992  -0.32941  -0.32766  -0.32599
 Alpha  occ. eigenvalues --   -0.32371  -0.32255  -0.32145  -0.32071  -0.31758
 Alpha  occ. eigenvalues --   -0.31493  -0.31328  -0.30990  -0.30970  -0.30749
 Alpha  occ. eigenvalues --   -0.30262  -0.30185  -0.30026  -0.29775  -0.29670
 Alpha  occ. eigenvalues --   -0.29644  -0.29456  -0.29020  -0.28978  -0.28806
 Alpha  occ. eigenvalues --   -0.28749  -0.28648  -0.28447  -0.28345  -0.27768
 Alpha  occ. eigenvalues --   -0.27492  -0.27433  -0.27183  -0.26767  -0.26693
 Alpha  occ. eigenvalues --   -0.26374  -0.26177  -0.25931  -0.25277  -0.25066
 Alpha  occ. eigenvalues --   -0.24846  -0.24731  -0.24207  -0.23946  -0.23395
 Alpha  occ. eigenvalues --   -0.23167  -0.22444  -0.21907  -0.21284  -0.20915
 Alpha  occ. eigenvalues --   -0.20820  -0.20491  -0.19503  -0.18240  -0.17209
 Alpha  occ. eigenvalues --   -0.15925
 Alpha virt. eigenvalues --   -0.11367  -0.06550  -0.05789  -0.04308  -0.03678
 Alpha virt. eigenvalues --   -0.03114  -0.02760  -0.02263  -0.01093   0.00122
 Alpha virt. eigenvalues --    0.01270   0.01747   0.02314   0.02853   0.03054

 Mulliken charges:
               1
     1  Mg   0.707119
     2  C   -0.002745
     3  C   -0.060694
     4  C   -0.041102
     5  C   -0.074601
     6  N   -0.187875
     7  C   -0.054675
     8  C   -0.015104
     9  C    0.029876
    10  C   -0.009159
    11  C    0.126981
    12  C    0.134742
    13  C    0.107133
    14  C    0.065205
    15  O   -0.185214
    16  O   -0.283389
    17  N   -0.245493
    18  C    0.121895
    19  C   -0.137404
    20  C    0.049659
    21  C    0.108808
    22  C    0.176171
    23  C   -0.121472
    24  O   -0.134971
    25  C    0.158163
    26  N   -0.212991
    27  C   -0.019240
    28  C    0.030744
    29  C    0.041395
    30  C    0.022376
    31  C    0.103468
    32  C    0.068706
    33  C    0.071160
    34  N   -0.274055
    35  C    0.077554
    36  C   -0.176052
    37  C    0.059019
    38  C    0.077381
    39  C    0.172576
    40  C   -0.039960
    41  O   -0.072000
    42  C    0.085839
    43  C    0.109643
    44  O   -0.177197
    45  O   -0.297914
    46  C    0.218920
    47  C    0.315875
    48  C   -0.063963
    49  C   -0.141791
    50  C    0.125896
    51  C    0.099850
    52  C    0.107345
    53  C    0.086536
    54  C   -0.080181
    55  C    0.091918
    56  C    0.087688
    57  C    0.033008
    58  C    0.099348
    59  C   -0.060993
    60  C    0.107283
    61  C    0.087261
    62  C    0.048844
    63  C    0.085717
    64  C   -0.078416
    65  C    0.089601
    66  C    0.091621
    67  H   -0.058974
    68  H   -0.101764
    69  H   -0.075573
    70  H   -0.013520
    71  H   -0.032510
    72  H    0.003518
    73  H   -0.010270
    74  H   -0.023473
    75  H   -0.012516
    76  H   -0.012545
    77  H    0.008421
    78  H    0.001630
    79  H   -0.004648
    80  H    0.001447
    81  H   -0.008804
    82  H    0.013553
    83  H    0.006663
    84  H   -0.002802
    85  H   -0.012969
    86  H   -0.013235
    87  H   -0.008059
    88  H   -0.005670
    89  H   -0.006445
    90  H   -0.012012
    91  H   -0.020075
    92  H   -0.000149
    93  H   -0.011531
    94  H   -0.005692
    95  H    0.012221
    96  H   -0.021964
    97  H   -0.001029
    98  H    0.005677
    99  H    0.008470
   100  H    0.027773
   101  H    0.015594
   102  H   -0.009513
   103  H   -0.005244
   104  H   -0.024878
   105  H   -0.018577
   106  H    0.011505
   107  H   -0.007228
   108  H   -0.037944
   109  H   -0.018714
   110  H   -0.026385
   111  H   -0.020673
   112  H   -0.046423
   113  H   -0.031926
   114  H   -0.026602
   115  H   -0.021717
   116  H    0.001129
   117  H   -0.007627
   118  H   -0.039671
   119  H   -0.025306
   120  H   -0.020088
   121  H   -0.027682
   122  H   -0.036027
   123  H   -0.039845
   124  H   -0.017388
   125  H   -0.015103
   126  H   -0.022953
   127  H   -0.013832
   128  H   -0.030039
   129  H   -0.038721
   130  H   -0.014291
   131  H   -0.020267
   132  H   -0.046316
   133  H   -0.046115
   134  H   -0.031139
   135  H   -0.018482
   136  H   -0.019355
   137  H   -0.015612
   138  H   -0.011838
   139  H   -0.005914
   140  H   -0.015608
 Sum of Mulliken charges =  -0.00000

 Dipole moment (field-independent basis, Debye):
    X=              0.2888    Y=              4.8612    Z=              2.6218  Tot=              5.5307
 Quadrupole moment (field-independent basis, Debye-Ang):
   XX=           -383.8007   YY=           -451.5270   ZZ=           -390.6193
   XY=             42.2481   XZ=             -9.6690   YZ=             19.0441

 Normal termination of Gaussian 16 at Sat Apr 30 03:46:10 2022.
