 Gaussian 16, Revision A.03,
 Gaussian 16:  ES64L-G16RevA.03 25-Dec-2016

 -----------------------------------
 #p cam-b3lyp/Def2SVP td=(nstates=5)
 -----------------------------------

 ------------------------------------------------------
 step_551_chromophore_2 TDDFT with cam-b3lyp functional
 ------------------------------------------------------
 Symbolic Z-matrix:
 Charge =  0 Multiplicity = 1

                         Standard orientation:
 ---------------------------------------------------------------------
 Center     Atomic      Atomic             Coordinates (Angstroms)
 Number     Number       Type             X           Y           Z
 ---------------------------------------------------------------------
      1         12           0        4.992257    1.075646   -0.537705
      2          6           0        4.889304   -2.381298   -0.197937
      3          6           0        2.269728    0.868087   -2.739837
      4          6           0        4.524816    4.402267   -0.265804
      5          6           0        7.169979    1.205198    2.199133
      6          7           0        3.617297   -0.581986   -1.268734
      7          6           0        3.745390   -1.894812   -0.874267
      8          6           0        2.640198   -2.710173   -1.402275
      9          6           0        2.067455   -1.781421   -2.543786
     10          6           0        2.660892   -0.412508   -2.182975
     11          6           0        2.274729   -2.309212   -3.984075
     12          6           0        1.611040   -3.135239   -0.263877
     13          6           0        1.243360   -4.680245   -0.227525
     14          6           0       -0.216029   -5.101760   -0.087046
     15          8           0       -0.826157   -5.754513   -0.922821
     16          8           0       -0.850368   -4.377646    0.893757
     17          7           0        3.709303    2.506148   -1.483021
     18          6           0        2.728579    2.187726   -2.373755
     19          6           0        2.085343    3.381374   -2.835643
     20          6           0        2.728913    4.421427   -2.172879
     21          6           0        3.710139    3.836083   -1.295319
     22          6           0        0.869500    3.426337   -3.812670
     23          6           0        2.524893    5.902863   -2.445301
     24          8           0        1.790005    6.170119   -3.336970
     25          6           0        3.300970    7.025713   -1.816840
     26          7           0        5.657500    2.555554    0.850240
     27          6           0        5.328840    3.856258    0.707240
     28          6           0        6.037421    4.744874    1.787239
     29          6           0        6.982081    3.753593    2.559694
     30          6           0        6.571406    2.395473    1.849159
     31          6           0        6.870971    6.042022    1.359814
     32          6           0        6.773205    3.764331    4.144717
     33          6           0        7.974386    3.995785    5.062843
     34          7           0        6.001841   -0.240138    0.598438
     35          6           0        6.926478   -0.044894    1.595856
     36          6           0        7.445769   -1.304684    1.985767
     37          6           0        6.756616   -2.198307    1.219242
     38          6           0        5.852628   -1.543636    0.427087
     39          6           0        8.292892   -1.653051    3.071688
     40          6           0        6.495963   -3.694583    0.994780
     41          8           0        6.997820   -4.677544    1.434757
     42          6           0        5.317749   -3.810365   -0.011489
     43          6           0        5.676931   -4.442580   -1.289456
     44          8           0        5.721853   -5.657048   -1.418956
     45          8           0        5.848487   -3.622816   -2.407063
     46          6           0        6.450376   -4.245533   -3.627548
     47          6           0       -2.291407   -4.465679    1.146778
     48          6           0       -2.944997   -3.115022    1.139496
     49          6           0       -3.522815   -2.547292    2.227973
     50          6           0       -3.491230   -3.052579    3.696989
     51          6           0       -4.186213   -1.124972    2.180452
     52          6           0       -5.687806   -1.040631    2.537202
     53          6           0       -6.303924    0.149914    1.787446
     54          6           0       -6.398136   -0.005127    0.257315
     55          6           0       -6.153225    1.404224   -0.482656
     56          6           0       -7.886857   -0.482568   -0.223140
     57          6           0       -9.093070    0.447095    0.305252
     58          6           0       -9.911749    1.101810   -0.839716
     59          6           0      -11.286022    0.353822   -1.020281
     60          6           0      -11.504689    0.053304   -2.536537
     61          6           0      -12.464346    1.268458   -0.475173
     62          6           0      -13.488297    0.343454    0.283798
     63          6           0      -14.974967    0.792056   -0.019474
     64          6           0      -15.813561    1.085374    1.272431
     65          6           0      -16.937523    0.028628    1.486741
     66          6           0      -16.424374    2.547397    1.349106
     67          1           0        1.412052    0.791952   -3.410899
     68          1           0        4.525090    5.489509   -0.162516
     69          1           0        7.817383    1.076322    3.068855
     70          1           0        3.048957   -3.635941   -1.809062
     71          1           0        0.986245   -1.685503   -2.451705
     72          1           0        1.446865   -2.814690   -4.480918
     73          1           0        3.155685   -2.947797   -4.053622
     74          1           0        2.540267   -1.452721   -4.603719
     75          1           0        0.682956   -2.596575   -0.450141
     76          1           0        2.004009   -2.857635    0.713817
     77          1           0        1.793221   -5.081246    0.623913
     78          1           0        1.591461   -5.098830   -1.172145
     79          1           0        1.241321    3.342438   -4.833533
     80          1           0        0.307923    4.360342   -3.796253
     81          1           0        0.117475    2.654947   -3.642040
     82          1           0        4.366318    6.867337   -1.985623
     83          1           0        3.185260    6.941786   -0.736061
     84          1           0        2.890427    7.958352   -2.201766
     85          1           0        5.168442    5.045776    2.372763
     86          1           0        8.014485    3.813436    2.214895
     87          1           0        6.330939    6.926485    1.698546
     88          1           0        7.044895    6.063151    0.284471
     89          1           0        7.881456    6.192022    1.741042
     90          1           0        6.311638    2.815141    4.416673
     91          1           0        6.125023    4.595541    4.422846
     92          1           0        7.685471    4.834424    5.697585
     93          1           0        8.839755    4.171578    4.424411
     94          1           0        8.181241    3.082232    5.620210
     95          1           0        7.914039   -2.567951    3.528046
     96          1           0        8.458214   -0.935682    3.875046
     97          1           0        9.286045   -1.818677    2.655143
     98          1           0        4.610575   -4.496205    0.454530
     99          1           0        6.291174   -3.513504   -4.419222
    100          1           0        6.008365   -5.205635   -3.895944
    101          1           0        7.534640   -4.351664   -3.603369
    102          1           0       -2.356519   -5.019284    2.084182
    103          1           0       -2.812244   -5.019833    0.366899
    104          1           0       -3.300983   -2.740979    0.180011
    105          1           0       -2.777045   -3.859895    3.860677
    106          1           0       -4.455816   -3.412370    4.053007
    107          1           0       -3.104706   -2.287339    4.369524
    108          1           0       -3.998595   -0.713989    1.187494
    109          1           0       -3.538236   -0.479127    2.774036
    110          1           0       -5.872924   -0.790198    3.582199
    111          1           0       -6.267290   -1.916304    2.242461
    112          1           0       -5.775590    1.082920    1.986890
    113          1           0       -7.252230    0.273750    2.309420
    114          1           0       -5.729702   -0.796081   -0.083387
    115          1           0       -5.379180    1.893150    0.107945
    116          1           0       -7.020230    2.063248   -0.439729
    117          1           0       -5.782628    1.154230   -1.476878
    118          1           0       -7.988131   -1.498167    0.159305
    119          1           0       -7.883197   -0.571001   -1.309779
    120          1           0       -8.793582    1.277313    0.943970
    121          1           0       -9.800223   -0.139891    0.892823
    122          1           0       -9.290117    1.102001   -1.735454
    123          1           0       -9.989961    2.162585   -0.601754
    124          1           0      -11.244496   -0.589038   -0.475029
    125          1           0      -10.817488    0.629651   -3.154942
    126          1           0      -12.493275    0.338471   -2.897415
    127          1           0      -11.389421   -1.017584   -2.708299
    128          1           0      -12.950088    1.891764   -1.225856
    129          1           0      -12.216017    2.038163    0.256123
    130          1           0      -13.348432    0.382550    1.364087
    131          1           0      -13.415559   -0.661624   -0.132226
    132          1           0      -15.496984    0.026249   -0.592267
    133          1           0      -14.903874    1.552718   -0.797057
    134          1           0      -15.148168    0.975431    2.129040
    135          1           0      -17.904656    0.394611    1.143934
    136          1           0      -17.037473   -0.196197    2.547914
    137          1           0      -16.720242   -0.900536    0.959715
    138          1           0      -17.356820    2.561093    0.785852
    139          1           0      -15.653083    3.214218    0.962417
    140          1           0      -16.702103    2.762953    2.380509
 ---------------------------------------------------------------------

 SCF Done:  E(RCAM-B3LYP) =  -3007.17424362     A.U. after   18 cycles

 Excitation energies and oscillator strengths:

 Excited State   1:      Singlet-A      1.7736 eV  699.06 nm  f=0.3591  <S**2>=0.000
     245 -> 248       -0.18722
     246 -> 247        0.68350
     245 <- 248       -0.10915
 This state for optimization and/or second-order correction.
 Total Energy, E(TD-HF/TD-DFT) =  -3007.10906602
 Copying the excited state density for this state as the 1-particle RhoCI density.

 Excited State   2:      Singlet-A      2.2996 eV  539.17 nm  f=0.1205  <S**2>=0.000
     245 -> 247        0.63835
     246 -> 248        0.29360

 Excited State   3:      Singlet-A      3.4654 eV  357.77 nm  f=0.0051  <S**2>=0.000
     243 -> 247        0.34395
     244 -> 247        0.57787
     246 -> 248       -0.12198

 Excited State   4:      Singlet-A      3.5985 eV  344.54 nm  f=0.1527  <S**2>=0.000
     240 -> 247       -0.12375
     243 -> 247        0.42423
     244 -> 247       -0.35426
     245 -> 247        0.12660
     246 -> 248       -0.36887

 Excited State   5:      Singlet-A      3.6727 eV  337.59 nm  f=0.0095  <S**2>=0.000
     240 -> 247       -0.10374
     242 -> 247        0.54398
     242 -> 249        0.20876
     242 -> 251       -0.25133
     243 -> 247       -0.18163

 The electronic state is 1-A.
 Alpha  occ. eigenvalues --  -46.88873 -19.25020 -19.23879 -19.19890 -19.19321
 Alpha  occ. eigenvalues --  -19.19148 -19.18314 -14.42345 -14.41709 -14.39501
 Alpha  occ. eigenvalues --  -14.38732 -10.39376 -10.39077 -10.35823 -10.34335
 Alpha  occ. eigenvalues --  -10.32184 -10.31688 -10.31484 -10.31074 -10.30639
 Alpha  occ. eigenvalues --  -10.30531 -10.30379 -10.30025 -10.28935 -10.28786
 Alpha  occ. eigenvalues --  -10.28634 -10.28375 -10.28314 -10.28298 -10.28291
 Alpha  occ. eigenvalues --  -10.28117 -10.28076 -10.28002 -10.27908 -10.27545
 Alpha  occ. eigenvalues --  -10.27490 -10.26805 -10.26639 -10.26594 -10.26506
 Alpha  occ. eigenvalues --  -10.26346 -10.26335 -10.26253 -10.26212 -10.26169
 Alpha  occ. eigenvalues --  -10.26158 -10.26155 -10.26107 -10.26089 -10.25934
 Alpha  occ. eigenvalues --  -10.25870 -10.25803 -10.25639 -10.25589 -10.25486
 Alpha  occ. eigenvalues --  -10.24987 -10.24958 -10.24892 -10.24864 -10.24832
 Alpha  occ. eigenvalues --  -10.24672 -10.24591 -10.24351 -10.24327 -10.24307
 Alpha  occ. eigenvalues --  -10.24190  -3.17416  -1.92300  -1.91874  -1.91716
 Alpha  occ. eigenvalues --   -1.15432  -1.15194  -1.12404  -1.12058  -1.06874
 Alpha  occ. eigenvalues --   -1.06708  -1.05256  -1.04358  -1.03964  -1.03031
 Alpha  occ. eigenvalues --   -0.93232  -0.90082  -0.88927  -0.88728  -0.88660
 Alpha  occ. eigenvalues --   -0.88040  -0.88018  -0.87764  -0.86840  -0.86676
 Alpha  occ. eigenvalues --   -0.85826  -0.85239  -0.84160  -0.83763  -0.83362
 Alpha  occ. eigenvalues --   -0.82242  -0.81966  -0.81263  -0.80503  -0.80207
 Alpha  occ. eigenvalues --   -0.79145  -0.78192  -0.77961  -0.77382  -0.76695
 Alpha  occ. eigenvalues --   -0.75866  -0.75539  -0.74890  -0.74282  -0.73697
 Alpha  occ. eigenvalues --   -0.73315  -0.72841  -0.71933  -0.70630  -0.68876
 Alpha  occ. eigenvalues --   -0.68459  -0.68283  -0.67109  -0.66945  -0.65923
 Alpha  occ. eigenvalues --   -0.65560  -0.65506  -0.64937  -0.64400  -0.64263
 Alpha  occ. eigenvalues --   -0.63388  -0.63236  -0.63126  -0.61530  -0.60115
 Alpha  occ. eigenvalues --   -0.59816  -0.59601  -0.59400  -0.58497  -0.58354
 Alpha  occ. eigenvalues --   -0.57203  -0.56965  -0.56479  -0.55899  -0.55682
 Alpha  occ. eigenvalues --   -0.55587  -0.54372  -0.54037  -0.53748  -0.53721
 Alpha  occ. eigenvalues --   -0.53219  -0.53057  -0.52956  -0.52659  -0.52368
 Alpha  occ. eigenvalues --   -0.52250  -0.52099  -0.51977  -0.51780  -0.51648
 Alpha  occ. eigenvalues --   -0.51409  -0.51311  -0.51114  -0.50827  -0.50597
 Alpha  occ. eigenvalues --   -0.50547  -0.49991  -0.49866  -0.49828  -0.49507
 Alpha  occ. eigenvalues --   -0.49386  -0.49278  -0.49024  -0.48967  -0.48946
 Alpha  occ. eigenvalues --   -0.48900  -0.48534  -0.48177  -0.47716  -0.47533
 Alpha  occ. eigenvalues --   -0.47276  -0.47022  -0.46926  -0.46870  -0.46785
 Alpha  occ. eigenvalues --   -0.46625  -0.46190  -0.46086  -0.45951  -0.45794
 Alpha  occ. eigenvalues --   -0.45632  -0.45478  -0.45341  -0.45095  -0.44929
 Alpha  occ. eigenvalues --   -0.44794  -0.44720  -0.44595  -0.44376  -0.44284
 Alpha  occ. eigenvalues --   -0.44038  -0.43923  -0.43715  -0.43619  -0.43386
 Alpha  occ. eigenvalues --   -0.43166  -0.42802  -0.42522  -0.42327  -0.42220
 Alpha  occ. eigenvalues --   -0.42143  -0.41522  -0.41371  -0.41281  -0.40834
 Alpha  occ. eigenvalues --   -0.40773  -0.40633  -0.40535  -0.40107  -0.39991
 Alpha  occ. eigenvalues --   -0.39744  -0.39714  -0.39427  -0.39386  -0.38727
 Alpha  occ. eigenvalues --   -0.38629  -0.38293  -0.38009  -0.37799  -0.37500
 Alpha  occ. eigenvalues --   -0.37319  -0.36815  -0.36637  -0.36500  -0.36186
 Alpha  occ. eigenvalues --   -0.35689  -0.35423  -0.35180  -0.34369  -0.34145
 Alpha  occ. eigenvalues --   -0.33642  -0.33472  -0.33122  -0.31460  -0.31011
 Alpha  occ. eigenvalues --   -0.30903  -0.30585  -0.30287  -0.29966  -0.24021
 Alpha  occ. eigenvalues --   -0.21283
 Alpha virt. eigenvalues --   -0.08456  -0.01438   0.01024   0.01937   0.02818
 Alpha virt. eigenvalues --    0.03894   0.04806   0.05367   0.06104   0.06997
 Alpha virt. eigenvalues --    0.08045   0.08332   0.08952   0.09056   0.09279

 Mulliken charges:
               1
     1  Mg   0.839755
     2  C   -0.029190
     3  C   -0.069435
     4  C   -0.069139
     5  C   -0.080356
     6  N   -0.254099
     7  C   -0.013913
     8  C   -0.069346
     9  C   -0.025198
    10  C    0.009435
    11  C    0.071808
    12  C    0.089100
    13  C    0.035410
    14  C    0.151205
    15  O   -0.227832
    16  O   -0.348821
    17  N   -0.334911
    18  C    0.129561
    19  C   -0.140229
    20  C   -0.021803
    21  C    0.141828
    22  C    0.122230
    23  C   -0.043218
    24  O   -0.175772
    25  C    0.075746
    26  N   -0.291061
    27  C    0.013601
    28  C   -0.023837
    29  C   -0.013740
    30  C    0.042645
    31  C    0.043520
    32  C    0.015021
    33  C    0.010854
    34  N   -0.368124
    35  C    0.087138
    36  C   -0.181290
    37  C   -0.017359
    38  C    0.117614
    39  C    0.112276
    40  C    0.061244
    41  O   -0.111248
    42  C    0.007320
    43  C    0.201642
    44  O   -0.214445
    45  O   -0.361560
    46  C    0.181187
    47  C    0.278562
    48  C   -0.086043
    49  C   -0.156651
    50  C    0.063810
    51  C    0.040818
    52  C    0.051055
    53  C    0.029758
    54  C   -0.136302
    55  C    0.037820
    56  C    0.043478
    57  C   -0.025322
    58  C    0.051047
    59  C   -0.121751
    60  C    0.051041
    61  C    0.037621
    62  C   -0.002855
    63  C    0.029648
    64  C   -0.139069
    65  C    0.031891
    66  C    0.038046
    67  H   -0.021542
    68  H   -0.067111
    69  H   -0.041244
    70  H    0.018357
    71  H    0.003334
    72  H    0.029204
    73  H    0.012320
    74  H    0.001921
    75  H    0.017250
    76  H    0.020158
    77  H    0.037220
    78  H    0.033242
    79  H    0.023579
    80  H    0.033346
    81  H    0.016657
    82  H    0.040363
    83  H    0.032581
    84  H    0.033161
    85  H    0.021469
    86  H    0.020382
    87  H    0.015594
    88  H    0.018527
    89  H    0.019240
    90  H    0.017723
    91  H    0.007392
    92  H    0.022473
    93  H    0.010673
    94  H    0.016910
    95  H    0.037054
    96  H    0.003681
    97  H    0.025612
    98  H    0.046912
    99  H    0.030708
   100  H    0.052293
   101  H    0.037766
   102  H    0.019203
   103  H    0.028144
   104  H    0.005616
   105  H    0.006886
   106  H    0.035145
   107  H    0.017942
   108  H   -0.008412
   109  H    0.011495
   110  H    0.002867
   111  H    0.006031
   112  H   -0.016556
   113  H   -0.001822
   114  H    0.002938
   115  H    0.001186
   116  H    0.021562
   117  H    0.016659
   118  H   -0.011687
   119  H    0.001761
   120  H    0.006217
   121  H   -0.000175
   122  H   -0.009388
   123  H   -0.010535
   124  H    0.013000
   125  H    0.008630
   126  H    0.000900
   127  H    0.009876
   128  H   -0.002596
   129  H   -0.009878
   130  H    0.011772
   131  H    0.006727
   132  H   -0.015995
   133  H   -0.016889
   134  H   -0.000794
   135  H    0.004351
   136  H    0.005170
   137  H    0.008332
   138  H    0.009686
   139  H    0.016317
   140  H    0.008296
 Sum of Mulliken charges =  -0.00000

 Dipole moment (field-independent basis, Debye):
    X=             -0.0192    Y=              5.4076    Z=              2.2666  Tot=              5.8634
 Quadrupole moment (field-independent basis, Debye-Ang):
   XX=           -385.1029   YY=           -448.5205   ZZ=           -388.7111
   XY=             44.5851   XZ=            -11.0170   YZ=             19.2370

 Normal termination of Gaussian 16 at Sat Apr 30 02:48:13 2022.
