 Gaussian 16, Revision A.03,
 Gaussian 16:  ES64L-G16RevA.03 25-Dec-2016

 ---------------------------------
 #p PBE1PBE/Def2SVP td=(nstates=5)
 ---------------------------------

 ----------------------------------------------------
 step_551_chromophore_2 TDDFT with PBE1PBE functional
 ----------------------------------------------------
 Symbolic Z-matrix:
 Charge =  0 Multiplicity = 1

                         Standard orientation:
 ---------------------------------------------------------------------
 Center     Atomic      Atomic             Coordinates (Angstroms)
 Number     Number       Type             X           Y           Z
 ---------------------------------------------------------------------
      1         12           0        4.992257    1.075646   -0.537705
      2          6           0        4.889304   -2.381298   -0.197937
      3          6           0        2.269728    0.868087   -2.739837
      4          6           0        4.524816    4.402267   -0.265804
      5          6           0        7.169979    1.205198    2.199133
      6          7           0        3.617297   -0.581986   -1.268734
      7          6           0        3.745390   -1.894812   -0.874267
      8          6           0        2.640198   -2.710173   -1.402275
      9          6           0        2.067455   -1.781421   -2.543786
     10          6           0        2.660892   -0.412508   -2.182975
     11          6           0        2.274729   -2.309212   -3.984075
     12          6           0        1.611040   -3.135239   -0.263877
     13          6           0        1.243360   -4.680245   -0.227525
     14          6           0       -0.216029   -5.101760   -0.087046
     15          8           0       -0.826157   -5.754513   -0.922821
     16          8           0       -0.850368   -4.377646    0.893757
     17          7           0        3.709303    2.506148   -1.483021
     18          6           0        2.728579    2.187726   -2.373755
     19          6           0        2.085343    3.381374   -2.835643
     20          6           0        2.728913    4.421427   -2.172879
     21          6           0        3.710139    3.836083   -1.295319
     22          6           0        0.869500    3.426337   -3.812670
     23          6           0        2.524893    5.902863   -2.445301
     24          8           0        1.790005    6.170119   -3.336970
     25          6           0        3.300970    7.025713   -1.816840
     26          7           0        5.657500    2.555554    0.850240
     27          6           0        5.328840    3.856258    0.707240
     28          6           0        6.037421    4.744874    1.787239
     29          6           0        6.982081    3.753593    2.559694
     30          6           0        6.571406    2.395473    1.849159
     31          6           0        6.870971    6.042022    1.359814
     32          6           0        6.773205    3.764331    4.144717
     33          6           0        7.974386    3.995785    5.062843
     34          7           0        6.001841   -0.240138    0.598438
     35          6           0        6.926478   -0.044894    1.595856
     36          6           0        7.445769   -1.304684    1.985767
     37          6           0        6.756616   -2.198307    1.219242
     38          6           0        5.852628   -1.543636    0.427087
     39          6           0        8.292892   -1.653051    3.071688
     40          6           0        6.495963   -3.694583    0.994780
     41          8           0        6.997820   -4.677544    1.434757
     42          6           0        5.317749   -3.810365   -0.011489
     43          6           0        5.676931   -4.442580   -1.289456
     44          8           0        5.721853   -5.657048   -1.418956
     45          8           0        5.848487   -3.622816   -2.407063
     46          6           0        6.450376   -4.245533   -3.627548
     47          6           0       -2.291407   -4.465679    1.146778
     48          6           0       -2.944997   -3.115022    1.139496
     49          6           0       -3.522815   -2.547292    2.227973
     50          6           0       -3.491230   -3.052579    3.696989
     51          6           0       -4.186213   -1.124972    2.180452
     52          6           0       -5.687806   -1.040631    2.537202
     53          6           0       -6.303924    0.149914    1.787446
     54          6           0       -6.398136   -0.005127    0.257315
     55          6           0       -6.153225    1.404224   -0.482656
     56          6           0       -7.886857   -0.482568   -0.223140
     57          6           0       -9.093070    0.447095    0.305252
     58          6           0       -9.911749    1.101810   -0.839716
     59          6           0      -11.286022    0.353822   -1.020281
     60          6           0      -11.504689    0.053304   -2.536537
     61          6           0      -12.464346    1.268458   -0.475173
     62          6           0      -13.488297    0.343454    0.283798
     63          6           0      -14.974967    0.792056   -0.019474
     64          6           0      -15.813561    1.085374    1.272431
     65          6           0      -16.937523    0.028628    1.486741
     66          6           0      -16.424374    2.547397    1.349106
     67          1           0        1.412052    0.791952   -3.410899
     68          1           0        4.525090    5.489509   -0.162516
     69          1           0        7.817383    1.076322    3.068855
     70          1           0        3.048957   -3.635941   -1.809062
     71          1           0        0.986245   -1.685503   -2.451705
     72          1           0        1.446865   -2.814690   -4.480918
     73          1           0        3.155685   -2.947797   -4.053622
     74          1           0        2.540267   -1.452721   -4.603719
     75          1           0        0.682956   -2.596575   -0.450141
     76          1           0        2.004009   -2.857635    0.713817
     77          1           0        1.793221   -5.081246    0.623913
     78          1           0        1.591461   -5.098830   -1.172145
     79          1           0        1.241321    3.342438   -4.833533
     80          1           0        0.307923    4.360342   -3.796253
     81          1           0        0.117475    2.654947   -3.642040
     82          1           0        4.366318    6.867337   -1.985623
     83          1           0        3.185260    6.941786   -0.736061
     84          1           0        2.890427    7.958352   -2.201766
     85          1           0        5.168442    5.045776    2.372763
     86          1           0        8.014485    3.813436    2.214895
     87          1           0        6.330939    6.926485    1.698546
     88          1           0        7.044895    6.063151    0.284471
     89          1           0        7.881456    6.192022    1.741042
     90          1           0        6.311638    2.815141    4.416673
     91          1           0        6.125023    4.595541    4.422846
     92          1           0        7.685471    4.834424    5.697585
     93          1           0        8.839755    4.171578    4.424411
     94          1           0        8.181241    3.082232    5.620210
     95          1           0        7.914039   -2.567951    3.528046
     96          1           0        8.458214   -0.935682    3.875046
     97          1           0        9.286045   -1.818677    2.655143
     98          1           0        4.610575   -4.496205    0.454530
     99          1           0        6.291174   -3.513504   -4.419222
    100          1           0        6.008365   -5.205635   -3.895944
    101          1           0        7.534640   -4.351664   -3.603369
    102          1           0       -2.356519   -5.019284    2.084182
    103          1           0       -2.812244   -5.019833    0.366899
    104          1           0       -3.300983   -2.740979    0.180011
    105          1           0       -2.777045   -3.859895    3.860677
    106          1           0       -4.455816   -3.412370    4.053007
    107          1           0       -3.104706   -2.287339    4.369524
    108          1           0       -3.998595   -0.713989    1.187494
    109          1           0       -3.538236   -0.479127    2.774036
    110          1           0       -5.872924   -0.790198    3.582199
    111          1           0       -6.267290   -1.916304    2.242461
    112          1           0       -5.775590    1.082920    1.986890
    113          1           0       -7.252230    0.273750    2.309420
    114          1           0       -5.729702   -0.796081   -0.083387
    115          1           0       -5.379180    1.893150    0.107945
    116          1           0       -7.020230    2.063248   -0.439729
    117          1           0       -5.782628    1.154230   -1.476878
    118          1           0       -7.988131   -1.498167    0.159305
    119          1           0       -7.883197   -0.571001   -1.309779
    120          1           0       -8.793582    1.277313    0.943970
    121          1           0       -9.800223   -0.139891    0.892823
    122          1           0       -9.290117    1.102001   -1.735454
    123          1           0       -9.989961    2.162585   -0.601754
    124          1           0      -11.244496   -0.589038   -0.475029
    125          1           0      -10.817488    0.629651   -3.154942
    126          1           0      -12.493275    0.338471   -2.897415
    127          1           0      -11.389421   -1.017584   -2.708299
    128          1           0      -12.950088    1.891764   -1.225856
    129          1           0      -12.216017    2.038163    0.256123
    130          1           0      -13.348432    0.382550    1.364087
    131          1           0      -13.415559   -0.661624   -0.132226
    132          1           0      -15.496984    0.026249   -0.592267
    133          1           0      -14.903874    1.552718   -0.797057
    134          1           0      -15.148168    0.975431    2.129040
    135          1           0      -17.904656    0.394611    1.143934
    136          1           0      -17.037473   -0.196197    2.547914
    137          1           0      -16.720242   -0.900536    0.959715
    138          1           0      -17.356820    2.561093    0.785852
    139          1           0      -15.653083    3.214218    0.962417
    140          1           0      -16.702103    2.762953    2.380509
 ---------------------------------------------------------------------

 SCF Done:  E(RPBE1PBE) =  -3005.36035214     A.U. after   16 cycles

 Excitation energies and oscillator strengths:

 Excited State   1:      Singlet-A      1.9293 eV  642.64 nm  f=0.3471  <S**2>=0.000
     245 -> 248       -0.18422
     246 -> 247        0.68961
     246 <- 247       -0.10057
 This state for optimization and/or second-order correction.
 Total Energy, E(TD-HF/TD-DFT) =  -3005.28945204
 Copying the excited state density for this state as the 1-particle RhoCI density.

 Excited State   2:      Singlet-A      2.3121 eV  536.25 nm  f=0.1171  <S**2>=0.000
     245 -> 247        0.64855
     246 -> 248        0.27395

 Excited State   3:      Singlet-A      3.0533 eV  406.06 nm  f=0.0003  <S**2>=0.000
     244 -> 247        0.68547
     244 -> 249        0.10365
     244 -> 250       -0.11029

 Excited State   4:      Singlet-A      3.1428 eV  394.51 nm  f=0.0005  <S**2>=0.000
     243 -> 247        0.69598

 Excited State   5:      Singlet-A      3.2361 eV  383.13 nm  f=0.0009  <S**2>=0.000
     240 -> 247        0.22793
     242 -> 247        0.62524
     246 -> 248        0.17621

 The electronic state is 1-A.
 Alpha  occ. eigenvalues --  -46.92254 -19.25649 -19.24590 -19.20189 -19.19543
 Alpha  occ. eigenvalues --  -19.19447 -19.18408 -14.41724 -14.41319 -14.39031
 Alpha  occ. eigenvalues --  -14.38461 -10.36385 -10.36116 -10.33089 -10.31378
 Alpha  occ. eigenvalues --  -10.29401 -10.29070 -10.29062 -10.28663 -10.28466
 Alpha  occ. eigenvalues --  -10.28393 -10.27820 -10.27529 -10.26810 -10.26459
 Alpha  occ. eigenvalues --  -10.26431 -10.26206 -10.26085 -10.26058 -10.26040
 Alpha  occ. eigenvalues --  -10.25935 -10.25734 -10.25575 -10.25479 -10.25155
 Alpha  occ. eigenvalues --  -10.25063 -10.24327 -10.24306 -10.24286 -10.24207
 Alpha  occ. eigenvalues --  -10.24188 -10.24023 -10.23879 -10.23831 -10.23728
 Alpha  occ. eigenvalues --  -10.23709 -10.23598 -10.23558 -10.23524 -10.23465
 Alpha  occ. eigenvalues --  -10.23399 -10.23190 -10.23132 -10.23095 -10.23031
 Alpha  occ. eigenvalues --  -10.22570 -10.22531 -10.22487 -10.22431 -10.22394
 Alpha  occ. eigenvalues --  -10.22359 -10.21975 -10.21935 -10.21916 -10.21702
 Alpha  occ. eigenvalues --  -10.21574  -3.14376  -1.87199  -1.86753  -1.86597
 Alpha  occ. eigenvalues --   -1.10161  -1.10017  -1.07273  -1.06724  -1.01760
 Alpha  occ. eigenvalues --   -1.01525  -1.00032  -0.98944  -0.98540  -0.97686
 Alpha  occ. eigenvalues --   -0.87612  -0.84178  -0.83127  -0.83087  -0.82757
 Alpha  occ. eigenvalues --   -0.82493  -0.82293  -0.81875  -0.81129  -0.80772
 Alpha  occ. eigenvalues --   -0.80029  -0.79447  -0.78427  -0.78004  -0.77542
 Alpha  occ. eigenvalues --   -0.76494  -0.76100  -0.75464  -0.74800  -0.74463
 Alpha  occ. eigenvalues --   -0.73288  -0.72530  -0.72262  -0.71629  -0.70954
 Alpha  occ. eigenvalues --   -0.70047  -0.69815  -0.68967  -0.68386  -0.67897
 Alpha  occ. eigenvalues --   -0.67693  -0.67199  -0.66376  -0.64936  -0.63260
 Alpha  occ. eigenvalues --   -0.62958  -0.62502  -0.61517  -0.61139  -0.60326
 Alpha  occ. eigenvalues --   -0.59975  -0.59681  -0.59556  -0.58957  -0.58405
 Alpha  occ. eigenvalues --   -0.57948  -0.57755  -0.57300  -0.55762  -0.54642
 Alpha  occ. eigenvalues --   -0.54396  -0.53997  -0.53949  -0.53150  -0.52895
 Alpha  occ. eigenvalues --   -0.51655  -0.51372  -0.51083  -0.50445  -0.50171
 Alpha  occ. eigenvalues --   -0.50013  -0.48889  -0.48589  -0.48410  -0.48194
 Alpha  occ. eigenvalues --   -0.47728  -0.47637  -0.47447  -0.47162  -0.46914
 Alpha  occ. eigenvalues --   -0.46793  -0.46543  -0.46425  -0.46322  -0.46112
 Alpha  occ. eigenvalues --   -0.45915  -0.45812  -0.45656  -0.45468  -0.45222
 Alpha  occ. eigenvalues --   -0.45094  -0.44568  -0.44475  -0.44418  -0.43979
 Alpha  occ. eigenvalues --   -0.43894  -0.43823  -0.43619  -0.43550  -0.43468
 Alpha  occ. eigenvalues --   -0.43451  -0.43178  -0.42855  -0.42386  -0.42117
 Alpha  occ. eigenvalues --   -0.41919  -0.41750  -0.41570  -0.41521  -0.41456
 Alpha  occ. eigenvalues --   -0.41281  -0.40903  -0.40804  -0.40580  -0.40503
 Alpha  occ. eigenvalues --   -0.40380  -0.40117  -0.40099  -0.39831  -0.39652
 Alpha  occ. eigenvalues --   -0.39553  -0.39432  -0.39285  -0.38998  -0.38945
 Alpha  occ. eigenvalues --   -0.38789  -0.38576  -0.38548  -0.38385  -0.38179
 Alpha  occ. eigenvalues --   -0.37899  -0.37661  -0.37268  -0.37059  -0.37021
 Alpha  occ. eigenvalues --   -0.36925  -0.36291  -0.36138  -0.36093  -0.35627
 Alpha  occ. eigenvalues --   -0.35551  -0.35527  -0.35357  -0.34994  -0.34782
 Alpha  occ. eigenvalues --   -0.34754  -0.34507  -0.34289  -0.34200  -0.33611
 Alpha  occ. eigenvalues --   -0.33493  -0.33143  -0.32771  -0.32768  -0.32394
 Alpha  occ. eigenvalues --   -0.32355  -0.31719  -0.31511  -0.31401  -0.31225
 Alpha  occ. eigenvalues --   -0.30534  -0.30430  -0.30118  -0.29509  -0.29228
 Alpha  occ. eigenvalues --   -0.28559  -0.28481  -0.28446  -0.26934  -0.26215
 Alpha  occ. eigenvalues --   -0.26208  -0.25872  -0.25544  -0.25201  -0.20943
 Alpha  occ. eigenvalues --   -0.18885
 Alpha virt. eigenvalues --   -0.10934  -0.04925  -0.03283  -0.01610  -0.00832
 Alpha virt. eigenvalues --   -0.00599   0.00285   0.00860   0.01825   0.03158
 Alpha virt. eigenvalues --    0.03988   0.04811   0.05174   0.05837   0.05936

 Mulliken charges:
               1
     1  Mg   0.980976
     2  C   -0.043809
     3  C   -0.058245
     4  C   -0.073077
     5  C   -0.067484
     6  N   -0.359058
     7  C    0.057263
     8  C   -0.143577
     9  C   -0.103685
    10  C    0.054072
    11  C    0.013300
    12  C    0.046668
    13  C   -0.046017
    14  C    0.221330
    15  O   -0.262003
    16  O   -0.377756
    17  N   -0.452996
    18  C    0.148453
    19  C   -0.160968
    20  C   -0.077204
    21  C    0.175569
    22  C    0.063467
    23  C    0.012809
    24  O   -0.210690
    25  C   -0.001741
    26  N   -0.396602
    27  C    0.053313
    28  C   -0.093720
    29  C   -0.090943
    30  C    0.079829
    31  C   -0.016552
    32  C   -0.042154
    33  C   -0.061295
    34  N   -0.505995
    35  C    0.118270
    36  C   -0.217528
    37  C   -0.066012
    38  C    0.183196
    39  C    0.058847
    40  C    0.166170
    41  O   -0.156944
    42  C   -0.104726
    43  C    0.294621
    44  O   -0.249813
    45  O   -0.392511
    46  C    0.125869
    47  C    0.236373
    48  C   -0.106089
    49  C   -0.189085
    50  C    0.003215
    51  C   -0.021547
    52  C   -0.018818
    53  C   -0.020362
    54  C   -0.223498
    55  C   -0.024252
    56  C   -0.007024
    57  C   -0.090647
    58  C    0.005043
    59  C   -0.215913
    60  C   -0.004752
    61  C   -0.009311
    62  C   -0.068954
    63  C   -0.018766
    64  C   -0.230945
    65  C   -0.028434
    66  C   -0.025627
    67  H    0.008913
    68  H   -0.029789
    69  H   -0.006430
    70  H    0.061713
    71  H    0.040492
    72  H    0.055472
    73  H    0.041096
    74  H    0.030701
    75  H    0.050459
    76  H    0.052509
    77  H    0.069303
    78  H    0.064773
    79  H    0.051623
    80  H    0.060008
    81  H    0.042259
    82  H    0.067300
    83  H    0.058709
    84  H    0.060427
    85  H    0.058121
    86  H    0.057091
    87  H    0.042747
    88  H    0.045641
    89  H    0.045633
    90  H    0.049665
    91  H    0.039940
    92  H    0.049620
    93  H    0.038616
    94  H    0.044038
    95  H    0.064745
    96  H    0.030765
    97  H    0.055673
    98  H    0.084431
    99  H    0.052066
   100  H    0.072861
   101  H    0.059805
   102  H    0.045915
   103  H    0.054667
   104  H    0.034743
   105  H    0.034072
   106  H    0.062117
   107  H    0.044674
   108  H    0.024937
   109  H    0.044487
   110  H    0.035661
   111  H    0.039274
   112  H    0.016187
   113  H    0.031082
   114  H    0.040131
   115  H    0.029070
   116  H    0.049687
   117  H    0.044576
   118  H    0.021713
   119  H    0.033614
   120  H    0.036466
   121  H    0.033043
   122  H    0.021720
   123  H    0.021239
   124  H    0.048580
   125  H    0.035157
   126  H    0.028182
   127  H    0.037376
   128  H    0.027153
   129  H    0.022777
   130  H    0.043195
   131  H    0.040154
   132  H    0.016390
   133  H    0.014574
   134  H    0.037125
   135  H    0.031316
   136  H    0.033044
   137  H    0.035607
   138  H    0.037025
   139  H    0.044364
   140  H    0.036389
 Sum of Mulliken charges =  -0.00000

 Dipole moment (field-independent basis, Debye):
    X=              0.1564    Y=              5.3193    Z=              2.5331  Tot=              5.8937
 Quadrupole moment (field-independent basis, Debye-Ang):
   XX=           -379.1443   YY=           -445.9559   ZZ=           -385.0042
   XY=             44.6944   XZ=             -8.8324   YZ=             20.1078

 Normal termination of Gaussian 16 at Sat Apr 30 03:05:42 2022.
