 Gaussian 16, Revision A.03,
 Gaussian 16:  ES64L-G16RevA.03 25-Dec-2016

 --------------------------------
 #p wB97XD/Def2SVP td=(nstates=5)
 --------------------------------

 ---------------------------------------------------
 step_551_chromophore_2 TDDFT with wB97XD functional
 ---------------------------------------------------
 Symbolic Z-matrix:
 Charge =  0 Multiplicity = 1

                         Standard orientation:
 ---------------------------------------------------------------------
 Center     Atomic      Atomic             Coordinates (Angstroms)
 Number     Number       Type             X           Y           Z
 ---------------------------------------------------------------------
      1         12           0        4.992257    1.075646   -0.537705
      2          6           0        4.889304   -2.381298   -0.197937
      3          6           0        2.269728    0.868087   -2.739837
      4          6           0        4.524816    4.402267   -0.265804
      5          6           0        7.169979    1.205198    2.199133
      6          7           0        3.617297   -0.581986   -1.268734
      7          6           0        3.745390   -1.894812   -0.874267
      8          6           0        2.640198   -2.710173   -1.402275
      9          6           0        2.067455   -1.781421   -2.543786
     10          6           0        2.660892   -0.412508   -2.182975
     11          6           0        2.274729   -2.309212   -3.984075
     12          6           0        1.611040   -3.135239   -0.263877
     13          6           0        1.243360   -4.680245   -0.227525
     14          6           0       -0.216029   -5.101760   -0.087046
     15          8           0       -0.826157   -5.754513   -0.922821
     16          8           0       -0.850368   -4.377646    0.893757
     17          7           0        3.709303    2.506148   -1.483021
     18          6           0        2.728579    2.187726   -2.373755
     19          6           0        2.085343    3.381374   -2.835643
     20          6           0        2.728913    4.421427   -2.172879
     21          6           0        3.710139    3.836083   -1.295319
     22          6           0        0.869500    3.426337   -3.812670
     23          6           0        2.524893    5.902863   -2.445301
     24          8           0        1.790005    6.170119   -3.336970
     25          6           0        3.300970    7.025713   -1.816840
     26          7           0        5.657500    2.555554    0.850240
     27          6           0        5.328840    3.856258    0.707240
     28          6           0        6.037421    4.744874    1.787239
     29          6           0        6.982081    3.753593    2.559694
     30          6           0        6.571406    2.395473    1.849159
     31          6           0        6.870971    6.042022    1.359814
     32          6           0        6.773205    3.764331    4.144717
     33          6           0        7.974386    3.995785    5.062843
     34          7           0        6.001841   -0.240138    0.598438
     35          6           0        6.926478   -0.044894    1.595856
     36          6           0        7.445769   -1.304684    1.985767
     37          6           0        6.756616   -2.198307    1.219242
     38          6           0        5.852628   -1.543636    0.427087
     39          6           0        8.292892   -1.653051    3.071688
     40          6           0        6.495963   -3.694583    0.994780
     41          8           0        6.997820   -4.677544    1.434757
     42          6           0        5.317749   -3.810365   -0.011489
     43          6           0        5.676931   -4.442580   -1.289456
     44          8           0        5.721853   -5.657048   -1.418956
     45          8           0        5.848487   -3.622816   -2.407063
     46          6           0        6.450376   -4.245533   -3.627548
     47          6           0       -2.291407   -4.465679    1.146778
     48          6           0       -2.944997   -3.115022    1.139496
     49          6           0       -3.522815   -2.547292    2.227973
     50          6           0       -3.491230   -3.052579    3.696989
     51          6           0       -4.186213   -1.124972    2.180452
     52          6           0       -5.687806   -1.040631    2.537202
     53          6           0       -6.303924    0.149914    1.787446
     54          6           0       -6.398136   -0.005127    0.257315
     55          6           0       -6.153225    1.404224   -0.482656
     56          6           0       -7.886857   -0.482568   -0.223140
     57          6           0       -9.093070    0.447095    0.305252
     58          6           0       -9.911749    1.101810   -0.839716
     59          6           0      -11.286022    0.353822   -1.020281
     60          6           0      -11.504689    0.053304   -2.536537
     61          6           0      -12.464346    1.268458   -0.475173
     62          6           0      -13.488297    0.343454    0.283798
     63          6           0      -14.974967    0.792056   -0.019474
     64          6           0      -15.813561    1.085374    1.272431
     65          6           0      -16.937523    0.028628    1.486741
     66          6           0      -16.424374    2.547397    1.349106
     67          1           0        1.412052    0.791952   -3.410899
     68          1           0        4.525090    5.489509   -0.162516
     69          1           0        7.817383    1.076322    3.068855
     70          1           0        3.048957   -3.635941   -1.809062
     71          1           0        0.986245   -1.685503   -2.451705
     72          1           0        1.446865   -2.814690   -4.480918
     73          1           0        3.155685   -2.947797   -4.053622
     74          1           0        2.540267   -1.452721   -4.603719
     75          1           0        0.682956   -2.596575   -0.450141
     76          1           0        2.004009   -2.857635    0.713817
     77          1           0        1.793221   -5.081246    0.623913
     78          1           0        1.591461   -5.098830   -1.172145
     79          1           0        1.241321    3.342438   -4.833533
     80          1           0        0.307923    4.360342   -3.796253
     81          1           0        0.117475    2.654947   -3.642040
     82          1           0        4.366318    6.867337   -1.985623
     83          1           0        3.185260    6.941786   -0.736061
     84          1           0        2.890427    7.958352   -2.201766
     85          1           0        5.168442    5.045776    2.372763
     86          1           0        8.014485    3.813436    2.214895
     87          1           0        6.330939    6.926485    1.698546
     88          1           0        7.044895    6.063151    0.284471
     89          1           0        7.881456    6.192022    1.741042
     90          1           0        6.311638    2.815141    4.416673
     91          1           0        6.125023    4.595541    4.422846
     92          1           0        7.685471    4.834424    5.697585
     93          1           0        8.839755    4.171578    4.424411
     94          1           0        8.181241    3.082232    5.620210
     95          1           0        7.914039   -2.567951    3.528046
     96          1           0        8.458214   -0.935682    3.875046
     97          1           0        9.286045   -1.818677    2.655143
     98          1           0        4.610575   -4.496205    0.454530
     99          1           0        6.291174   -3.513504   -4.419222
    100          1           0        6.008365   -5.205635   -3.895944
    101          1           0        7.534640   -4.351664   -3.603369
    102          1           0       -2.356519   -5.019284    2.084182
    103          1           0       -2.812244   -5.019833    0.366899
    104          1           0       -3.300983   -2.740979    0.180011
    105          1           0       -2.777045   -3.859895    3.860677
    106          1           0       -4.455816   -3.412370    4.053007
    107          1           0       -3.104706   -2.287339    4.369524
    108          1           0       -3.998595   -0.713989    1.187494
    109          1           0       -3.538236   -0.479127    2.774036
    110          1           0       -5.872924   -0.790198    3.582199
    111          1           0       -6.267290   -1.916304    2.242461
    112          1           0       -5.775590    1.082920    1.986890
    113          1           0       -7.252230    0.273750    2.309420
    114          1           0       -5.729702   -0.796081   -0.083387
    115          1           0       -5.379180    1.893150    0.107945
    116          1           0       -7.020230    2.063248   -0.439729
    117          1           0       -5.782628    1.154230   -1.476878
    118          1           0       -7.988131   -1.498167    0.159305
    119          1           0       -7.883197   -0.571001   -1.309779
    120          1           0       -8.793582    1.277313    0.943970
    121          1           0       -9.800223   -0.139891    0.892823
    122          1           0       -9.290117    1.102001   -1.735454
    123          1           0       -9.989961    2.162585   -0.601754
    124          1           0      -11.244496   -0.589038   -0.475029
    125          1           0      -10.817488    0.629651   -3.154942
    126          1           0      -12.493275    0.338471   -2.897415
    127          1           0      -11.389421   -1.017584   -2.708299
    128          1           0      -12.950088    1.891764   -1.225856
    129          1           0      -12.216017    2.038163    0.256123
    130          1           0      -13.348432    0.382550    1.364087
    131          1           0      -13.415559   -0.661624   -0.132226
    132          1           0      -15.496984    0.026249   -0.592267
    133          1           0      -14.903874    1.552718   -0.797057
    134          1           0      -15.148168    0.975431    2.129040
    135          1           0      -17.904656    0.394611    1.143934
    136          1           0      -17.037473   -0.196197    2.547914
    137          1           0      -16.720242   -0.900536    0.959715
    138          1           0      -17.356820    2.561093    0.785852
    139          1           0      -15.653083    3.214218    0.962417
    140          1           0      -16.702103    2.762953    2.380509
 ---------------------------------------------------------------------

 SCF Done:  E(RwB97XD) =  -3007.87015200     A.U. after   19 cycles

 Excitation energies and oscillator strengths:

 Excited State   1:      Singlet-A      1.7216 eV  720.18 nm  f=0.3582  <S**2>=0.000
     245 -> 248       -0.19165
     246 -> 247        0.68154
     245 <- 248       -0.11759
 This state for optimization and/or second-order correction.
 Total Energy, E(TD-HF/TD-DFT) =  -3007.80688546
 Copying the excited state density for this state as the 1-particle RhoCI density.

 Excited State   2:      Singlet-A      2.2483 eV  551.46 nm  f=0.1179  <S**2>=0.000
     245 -> 247        0.63631
     246 -> 248        0.29541

 Excited State   3:      Singlet-A      3.4806 eV  356.22 nm  f=0.0100  <S**2>=0.000
     242 -> 247        0.30620
     243 -> 247       -0.30287
     244 -> 247        0.50954
     246 -> 248       -0.14572

 Excited State   4:      Singlet-A      3.6150 eV  342.97 nm  f=0.2089  <S**2>=0.000
     242 -> 247       -0.20276
     243 -> 247        0.26455
     244 -> 247        0.40920
     245 -> 247       -0.14612
     246 -> 248        0.40411

 Excited State   5:      Singlet-A      3.6855 eV  336.41 nm  f=0.0004  <S**2>=0.000
     242 -> 247        0.40322
     242 -> 249        0.18242
     242 -> 250        0.18586
     243 -> 247        0.39767
     243 -> 249        0.16571
     243 -> 250        0.17602

 The electronic state is 1-A.
 Alpha  occ. eigenvalues --  -46.95216 -19.30219 -19.29138 -19.24901 -19.24262
 Alpha  occ. eigenvalues --  -19.24107 -19.23323 -14.46957 -14.46285 -14.44113
 Alpha  occ. eigenvalues --  -14.43306 -10.43223 -10.42893 -10.39822 -10.38291
 Alpha  occ. eigenvalues --  -10.35926 -10.35578 -10.35544 -10.35130 -10.34640
 Alpha  occ. eigenvalues --  -10.34521 -10.34476 -10.34131 -10.32904 -10.32824
 Alpha  occ. eigenvalues --  -10.32698 -10.32463 -10.32399 -10.32357 -10.32350
 Alpha  occ. eigenvalues --  -10.32221 -10.32202 -10.32062 -10.31979 -10.31466
 Alpha  occ. eigenvalues --  -10.31453 -10.30693 -10.30597 -10.30559 -10.30554
 Alpha  occ. eigenvalues --  -10.30450 -10.30352 -10.30224 -10.30116 -10.30105
 Alpha  occ. eigenvalues --  -10.30080 -10.30048 -10.30041 -10.29971 -10.29852
 Alpha  occ. eigenvalues --  -10.29830 -10.29778 -10.29539 -10.29432 -10.29297
 Alpha  occ. eigenvalues --  -10.28938 -10.28839 -10.28805 -10.28783 -10.28761
 Alpha  occ. eigenvalues --  -10.28689 -10.28408 -10.28279 -10.28275 -10.28134
 Alpha  occ. eigenvalues --  -10.28002  -3.21204  -1.94776  -1.94331  -1.94169
 Alpha  occ. eigenvalues --   -1.17577  -1.17386  -1.14631  -1.14279  -1.09090
 Alpha  occ. eigenvalues --   -1.08903  -1.07263  -1.06424  -1.05992  -1.05058
 Alpha  occ. eigenvalues --   -0.95199  -0.91868  -0.90768  -0.90649  -0.90436
 Alpha  occ. eigenvalues --   -0.89952  -0.89867  -0.89555  -0.88786  -0.88448
 Alpha  occ. eigenvalues --   -0.87833  -0.87124  -0.86062  -0.85627  -0.85219
 Alpha  occ. eigenvalues --   -0.84157  -0.83812  -0.83183  -0.82426  -0.82115
 Alpha  occ. eigenvalues --   -0.80967  -0.80095  -0.79881  -0.79335  -0.78616
 Alpha  occ. eigenvalues --   -0.77715  -0.77463  -0.76680  -0.76093  -0.75546
 Alpha  occ. eigenvalues --   -0.75265  -0.74786  -0.73918  -0.72559  -0.70799
 Alpha  occ. eigenvalues --   -0.70449  -0.70156  -0.69125  -0.68800  -0.67817
 Alpha  occ. eigenvalues --   -0.67535  -0.67348  -0.66949  -0.66415  -0.66082
 Alpha  occ. eigenvalues --   -0.65368  -0.65215  -0.64946  -0.63388  -0.62083
 Alpha  occ. eigenvalues --   -0.61839  -0.61505  -0.61399  -0.60492  -0.60306
 Alpha  occ. eigenvalues --   -0.59151  -0.58853  -0.58450  -0.57883  -0.57591
 Alpha  occ. eigenvalues --   -0.57492  -0.56311  -0.55935  -0.55725  -0.55622
 Alpha  occ. eigenvalues --   -0.55108  -0.54991  -0.54881  -0.54556  -0.54281
 Alpha  occ. eigenvalues --   -0.54169  -0.54057  -0.53886  -0.53689  -0.53545
 Alpha  occ. eigenvalues --   -0.53299  -0.53195  -0.52993  -0.52745  -0.52506
 Alpha  occ. eigenvalues --   -0.52437  -0.51888  -0.51805  -0.51746  -0.51470
 Alpha  occ. eigenvalues --   -0.51335  -0.51161  -0.50914  -0.50827  -0.50812
 Alpha  occ. eigenvalues --   -0.50785  -0.50445  -0.50076  -0.49625  -0.49404
 Alpha  occ. eigenvalues --   -0.49218  -0.48941  -0.48892  -0.48799  -0.48677
 Alpha  occ. eigenvalues --   -0.48512  -0.48091  -0.47977  -0.47827  -0.47743
 Alpha  occ. eigenvalues --   -0.47549  -0.47352  -0.47309  -0.47019  -0.46826
 Alpha  occ. eigenvalues --   -0.46688  -0.46595  -0.46485  -0.46214  -0.46205
 Alpha  occ. eigenvalues --   -0.45968  -0.45779  -0.45649  -0.45542  -0.45305
 Alpha  occ. eigenvalues --   -0.45109  -0.44760  -0.44484  -0.44201  -0.44155
 Alpha  occ. eigenvalues --   -0.44083  -0.43399  -0.43240  -0.43134  -0.42737
 Alpha  occ. eigenvalues --   -0.42654  -0.42522  -0.42443  -0.42028  -0.41850
 Alpha  occ. eigenvalues --   -0.41633  -0.41576  -0.41285  -0.41260  -0.40594
 Alpha  occ. eigenvalues --   -0.40533  -0.40158  -0.39839  -0.39730  -0.39466
 Alpha  occ. eigenvalues --   -0.39350  -0.38668  -0.38519  -0.38486  -0.38151
 Alpha  occ. eigenvalues --   -0.37535  -0.37412  -0.37039  -0.36376  -0.36133
 Alpha  occ. eigenvalues --   -0.35569  -0.35339  -0.35317  -0.33605  -0.33054
 Alpha  occ. eigenvalues --   -0.32920  -0.32590  -0.32426  -0.32115  -0.25949
 Alpha  occ. eigenvalues --   -0.23110
 Alpha virt. eigenvalues --   -0.06798   0.00459   0.03149   0.04916   0.05115
 Alpha virt. eigenvalues --    0.06094   0.07059   0.07633   0.08584   0.09718
 Alpha virt. eigenvalues --    0.10505   0.11622   0.11913   0.12570   0.12701

 Mulliken charges:
               1
     1  Mg   0.974076
     2  C   -0.039176
     3  C   -0.075334
     4  C   -0.082145
     5  C   -0.086907
     6  N   -0.321016
     7  C    0.024333
     8  C   -0.110583
     9  C   -0.077687
    10  C    0.034778
    11  C    0.024425
    12  C    0.052703
    13  C   -0.027582
    14  C    0.211089
    15  O   -0.259910
    16  O   -0.377064
    17  N   -0.419561
    18  C    0.143348
    19  C   -0.154264
    20  C   -0.068770
    21  C    0.171424
    22  C    0.075682
    23  C    0.006510
    24  O   -0.207031
    25  C    0.012967
    26  N   -0.364594
    27  C    0.041483
    28  C   -0.071843
    29  C   -0.064836
    30  C    0.067995
    31  C   -0.004801
    32  C   -0.028414
    33  C   -0.045049
    34  N   -0.464895
    35  C    0.106495
    36  C   -0.204794
    37  C   -0.061458
    38  C    0.156350
    39  C    0.066414
    40  C    0.144038
    41  O   -0.148875
    42  C   -0.069291
    43  C    0.272322
    44  O   -0.245047
    45  O   -0.391236
    46  C    0.140577
    47  C    0.247992
    48  C   -0.110849
    49  C   -0.180715
    50  C    0.015130
    51  C   -0.001398
    52  C   -0.001062
    53  C   -0.007353
    54  C   -0.194947
    55  C   -0.008658
    56  C    0.007795
    57  C   -0.073575
    58  C    0.018058
    59  C   -0.181011
    60  C    0.005966
    61  C    0.001041
    62  C   -0.049133
    63  C   -0.007723
    64  C   -0.202275
    65  C   -0.015536
    66  C   -0.010358
    67  H    0.004524
    68  H   -0.046491
    69  H   -0.015271
    70  H    0.039571
    71  H    0.030955
    72  H    0.051860
    73  H    0.035321
    74  H    0.022992
    75  H    0.041326
    76  H    0.045736
    77  H    0.063500
    78  H    0.058910
    79  H    0.047696
    80  H    0.057277
    81  H    0.037928
    82  H    0.061548
    83  H    0.053282
    84  H    0.060076
    85  H    0.047801
    86  H    0.045367
    87  H    0.037414
    88  H    0.038987
    89  H    0.040726
    90  H    0.041653
    91  H    0.031185
    92  H    0.044392
    93  H    0.031398
    94  H    0.038428
    95  H    0.059692
    96  H    0.025452
    97  H    0.049550
    98  H    0.078738
    99  H    0.048318
   100  H    0.069493
   101  H    0.056014
   102  H    0.041416
   103  H    0.051325
   104  H    0.031696
   105  H    0.027934
   106  H    0.057207
   107  H    0.039449
   108  H    0.012652
   109  H    0.037199
   110  H    0.029045
   111  H    0.029931
   112  H    0.006263
   113  H    0.022220
   114  H    0.027598
   115  H    0.021338
   116  H    0.041406
   117  H    0.039411
   118  H    0.013277
   119  H    0.024265
   120  H    0.026970
   121  H    0.023175
   122  H    0.009703
   123  H    0.013710
   124  H    0.034550
   125  H    0.029077
   126  H    0.021587
   127  H    0.032353
   128  H    0.017870
   129  H    0.014409
   130  H    0.034371
   131  H    0.030191
   132  H    0.007933
   133  H    0.004776
   134  H    0.024600
   135  H    0.024551
   136  H    0.027661
   137  H    0.028986
   138  H    0.029652
   139  H    0.037918
   140  H    0.030740
 Sum of Mulliken charges =  -0.00000

 Dipole moment (field-independent basis, Debye):
    X=             -0.0887    Y=              5.5683    Z=              2.1958  Tot=              5.9863
 Quadrupole moment (field-independent basis, Debye-Ang):
   XX=           -381.0746   YY=           -444.7708   ZZ=           -384.4837
   XY=             45.1141   XZ=            -10.7513   YZ=             19.3035

 Normal termination of Gaussian 16 at Sat Apr 30 03:31:20 2022.
