 Gaussian 16, Revision A.03,
 Gaussian 16:  ES64L-G16RevA.03 25-Dec-2016

 --------------------
 #p ZINDO=(nstates=5)
 --------------------

 ----------------------------
 step_551_chromophore_2 ZINDO
 ----------------------------
 Symbolic Z-matrix:
 Charge =  0 Multiplicity = 1

                         Standard orientation:
 ---------------------------------------------------------------------
 Center     Atomic      Atomic             Coordinates (Angstroms)
 Number     Number       Type             X           Y           Z
 ---------------------------------------------------------------------
      1         12           0        4.992257    1.075646   -0.537705
      2          6           0        4.889304   -2.381298   -0.197937
      3          6           0        2.269728    0.868087   -2.739837
      4          6           0        4.524816    4.402267   -0.265804
      5          6           0        7.169979    1.205198    2.199133
      6          7           0        3.617297   -0.581986   -1.268734
      7          6           0        3.745390   -1.894812   -0.874267
      8          6           0        2.640198   -2.710173   -1.402275
      9          6           0        2.067455   -1.781421   -2.543786
     10          6           0        2.660892   -0.412508   -2.182975
     11          6           0        2.274729   -2.309212   -3.984075
     12          6           0        1.611040   -3.135239   -0.263877
     13          6           0        1.243360   -4.680245   -0.227525
     14          6           0       -0.216029   -5.101760   -0.087046
     15          8           0       -0.826157   -5.754513   -0.922821
     16          8           0       -0.850368   -4.377646    0.893757
     17          7           0        3.709303    2.506148   -1.483021
     18          6           0        2.728579    2.187726   -2.373755
     19          6           0        2.085343    3.381374   -2.835643
     20          6           0        2.728913    4.421427   -2.172879
     21          6           0        3.710139    3.836083   -1.295319
     22          6           0        0.869500    3.426337   -3.812670
     23          6           0        2.524893    5.902863   -2.445301
     24          8           0        1.790005    6.170119   -3.336970
     25          6           0        3.300970    7.025713   -1.816840
     26          7           0        5.657500    2.555554    0.850240
     27          6           0        5.328840    3.856258    0.707240
     28          6           0        6.037421    4.744874    1.787239
     29          6           0        6.982081    3.753593    2.559694
     30          6           0        6.571406    2.395473    1.849159
     31          6           0        6.870971    6.042022    1.359814
     32          6           0        6.773205    3.764331    4.144717
     33          6           0        7.974386    3.995785    5.062843
     34          7           0        6.001841   -0.240138    0.598438
     35          6           0        6.926478   -0.044894    1.595856
     36          6           0        7.445769   -1.304684    1.985767
     37          6           0        6.756616   -2.198307    1.219242
     38          6           0        5.852628   -1.543636    0.427087
     39          6           0        8.292892   -1.653051    3.071688
     40          6           0        6.495963   -3.694583    0.994780
     41          8           0        6.997820   -4.677544    1.434757
     42          6           0        5.317749   -3.810365   -0.011489
     43          6           0        5.676931   -4.442580   -1.289456
     44          8           0        5.721853   -5.657048   -1.418956
     45          8           0        5.848487   -3.622816   -2.407063
     46          6           0        6.450376   -4.245533   -3.627548
     47          6           0       -2.291407   -4.465679    1.146778
     48          6           0       -2.944997   -3.115022    1.139496
     49          6           0       -3.522815   -2.547292    2.227973
     50          6           0       -3.491230   -3.052579    3.696989
     51          6           0       -4.186213   -1.124972    2.180452
     52          6           0       -5.687806   -1.040631    2.537202
     53          6           0       -6.303924    0.149914    1.787446
     54          6           0       -6.398136   -0.005127    0.257315
     55          6           0       -6.153225    1.404224   -0.482656
     56          6           0       -7.886857   -0.482568   -0.223140
     57          6           0       -9.093070    0.447095    0.305252
     58          6           0       -9.911749    1.101810   -0.839716
     59          6           0      -11.286022    0.353822   -1.020281
     60          6           0      -11.504689    0.053304   -2.536537
     61          6           0      -12.464346    1.268458   -0.475173
     62          6           0      -13.488297    0.343454    0.283798
     63          6           0      -14.974967    0.792056   -0.019474
     64          6           0      -15.813561    1.085374    1.272431
     65          6           0      -16.937523    0.028628    1.486741
     66          6           0      -16.424374    2.547397    1.349106
     67          1           0        1.412052    0.791952   -3.410899
     68          1           0        4.525090    5.489509   -0.162516
     69          1           0        7.817383    1.076322    3.068855
     70          1           0        3.048957   -3.635941   -1.809062
     71          1           0        0.986245   -1.685503   -2.451705
     72          1           0        1.446865   -2.814690   -4.480918
     73          1           0        3.155685   -2.947797   -4.053622
     74          1           0        2.540267   -1.452721   -4.603719
     75          1           0        0.682956   -2.596575   -0.450141
     76          1           0        2.004009   -2.857635    0.713817
     77          1           0        1.793221   -5.081246    0.623913
     78          1           0        1.591461   -5.098830   -1.172145
     79          1           0        1.241321    3.342438   -4.833533
     80          1           0        0.307923    4.360342   -3.796253
     81          1           0        0.117475    2.654947   -3.642040
     82          1           0        4.366318    6.867337   -1.985623
     83          1           0        3.185260    6.941786   -0.736061
     84          1           0        2.890427    7.958352   -2.201766
     85          1           0        5.168442    5.045776    2.372763
     86          1           0        8.014485    3.813436    2.214895
     87          1           0        6.330939    6.926485    1.698546
     88          1           0        7.044895    6.063151    0.284471
     89          1           0        7.881456    6.192022    1.741042
     90          1           0        6.311638    2.815141    4.416673
     91          1           0        6.125023    4.595541    4.422846
     92          1           0        7.685471    4.834424    5.697585
     93          1           0        8.839755    4.171578    4.424411
     94          1           0        8.181241    3.082232    5.620210
     95          1           0        7.914039   -2.567951    3.528046
     96          1           0        8.458214   -0.935682    3.875046
     97          1           0        9.286045   -1.818677    2.655143
     98          1           0        4.610575   -4.496205    0.454530
     99          1           0        6.291174   -3.513504   -4.419222
    100          1           0        6.008365   -5.205635   -3.895944
    101          1           0        7.534640   -4.351664   -3.603369
    102          1           0       -2.356519   -5.019284    2.084182
    103          1           0       -2.812244   -5.019833    0.366899
    104          1           0       -3.300983   -2.740979    0.180011
    105          1           0       -2.777045   -3.859895    3.860677
    106          1           0       -4.455816   -3.412370    4.053007
    107          1           0       -3.104706   -2.287339    4.369524
    108          1           0       -3.998595   -0.713989    1.187494
    109          1           0       -3.538236   -0.479127    2.774036
    110          1           0       -5.872924   -0.790198    3.582199
    111          1           0       -6.267290   -1.916304    2.242461
    112          1           0       -5.775590    1.082920    1.986890
    113          1           0       -7.252230    0.273750    2.309420
    114          1           0       -5.729702   -0.796081   -0.083387
    115          1           0       -5.379180    1.893150    0.107945
    116          1           0       -7.020230    2.063248   -0.439729
    117          1           0       -5.782628    1.154230   -1.476878
    118          1           0       -7.988131   -1.498167    0.159305
    119          1           0       -7.883197   -0.571001   -1.309779
    120          1           0       -8.793582    1.277313    0.943970
    121          1           0       -9.800223   -0.139891    0.892823
    122          1           0       -9.290117    1.102001   -1.735454
    123          1           0       -9.989961    2.162585   -0.601754
    124          1           0      -11.244496   -0.589038   -0.475029
    125          1           0      -10.817488    0.629651   -3.154942
    126          1           0      -12.493275    0.338471   -2.897415
    127          1           0      -11.389421   -1.017584   -2.708299
    128          1           0      -12.950088    1.891764   -1.225856
    129          1           0      -12.216017    2.038163    0.256123
    130          1           0      -13.348432    0.382550    1.364087
    131          1           0      -13.415559   -0.661624   -0.132226
    132          1           0      -15.496984    0.026249   -0.592267
    133          1           0      -14.903874    1.552718   -0.797057
    134          1           0      -15.148168    0.975431    2.129040
    135          1           0      -17.904656    0.394611    1.143934
    136          1           0      -17.037473   -0.196197    2.547914
    137          1           0      -16.720242   -0.900536    0.959715
    138          1           0      -17.356820    2.561093    0.785852
    139          1           0      -15.653083    3.214218    0.962417
    140          1           0      -16.702103    2.762953    2.380509
 ---------------------------------------------------------------------

 SCF Done:  E(RZINDO/S) =  -474.176577697     A.U. after   20 cycles

 Excitation energies and oscillator strengths:

 Excited State   1:      Singlet-A      1.2987 eV  954.70 nm  f=0.5628  <S**2>=0.000
     175 ->178        -0.19277
     176 ->177         0.66340
 This state for optimization and/or second-order correction.
 Total Energy, E(CIS/TDA) =  -474.128852460
 Copying the excited state density for this state as the 1-particle RhoCI density.

 Excited State   2:      Singlet-A      1.9389 eV  639.46 nm  f=0.0446  <S**2>=0.000
     175 ->177         0.54693
     176 ->178         0.42235

 Excited State   3:      Singlet-A      2.9314 eV  422.95 nm  f=0.0019  <S**2>=0.000
     168 ->177        -0.24627
     168 ->179        -0.32177
     168 ->182         0.28106
     168 ->183        -0.14853
     168 ->186         0.21137
     168 ->187         0.12295
     168 ->194        -0.11603
     170 ->177         0.13621
     170 ->179         0.16153
     170 ->182        -0.14471
     170 ->186        -0.10533

 Excited State   4:      Singlet-A      3.0636 eV  404.71 nm  f=1.1264  <S**2>=0.000
     175 ->177        -0.37303
     176 ->178         0.51011
     176 ->179        -0.22758

 Excited State   5:      Singlet-A      3.1008 eV  399.85 nm  f=0.0045  <S**2>=0.000
     168 ->177         0.11996
     168 ->179        -0.15466
     168 ->182        -0.12830
     168 ->183         0.11151
     168 ->186         0.11454
     170 ->177         0.23608
     170 ->178         0.12438
     170 ->179        -0.29313
     170 ->182        -0.22280
     170 ->183         0.19840
     170 ->186         0.21278
     170 ->187        -0.12050

 The electronic state is 1-A.
 Alpha  occ. eigenvalues --   -1.88029  -1.82679  -1.79996  -1.72608  -1.71329
 Alpha  occ. eigenvalues --   -1.70953  -1.63175  -1.62872  -1.59963  -1.59073
 Alpha  occ. eigenvalues --   -1.53067  -1.49518  -1.48516  -1.46817  -1.45251
 Alpha  occ. eigenvalues --   -1.44604  -1.43942  -1.40487  -1.37691  -1.37489
 Alpha  occ. eigenvalues --   -1.36732  -1.34981  -1.31889  -1.30654  -1.28438
 Alpha  occ. eigenvalues --   -1.27421  -1.25113  -1.23371  -1.20868  -1.18308
 Alpha  occ. eigenvalues --   -1.16629  -1.14469  -1.14381  -1.13593  -1.12805
 Alpha  occ. eigenvalues --   -1.12512  -1.10272  -1.09757  -1.07279  -1.05596
 Alpha  occ. eigenvalues --   -1.02449  -1.01292  -0.98325  -0.98080  -0.97692
 Alpha  occ. eigenvalues --   -0.95373  -0.94975  -0.94438  -0.93504  -0.92753
 Alpha  occ. eigenvalues --   -0.91134  -0.90888  -0.89289  -0.88650  -0.86139
 Alpha  occ. eigenvalues --   -0.85040  -0.84167  -0.83878  -0.82775  -0.81552
 Alpha  occ. eigenvalues --   -0.79617  -0.79161  -0.77863  -0.76898  -0.76274
 Alpha  occ. eigenvalues --   -0.75543  -0.74249  -0.73504  -0.73206  -0.72895
 Alpha  occ. eigenvalues --   -0.72721  -0.72446  -0.72045  -0.71353  -0.70759
 Alpha  occ. eigenvalues --   -0.70047  -0.69992  -0.69180  -0.68474  -0.68385
 Alpha  occ. eigenvalues --   -0.67595  -0.67173  -0.66772  -0.65885  -0.65489
 Alpha  occ. eigenvalues --   -0.64947  -0.64847  -0.64251  -0.63995  -0.63600
 Alpha  occ. eigenvalues --   -0.63223  -0.62794  -0.62752  -0.62267  -0.62034
 Alpha  occ. eigenvalues --   -0.61639  -0.61603  -0.61475  -0.60776  -0.60418
 Alpha  occ. eigenvalues --   -0.59911  -0.59307  -0.58988  -0.58607  -0.57978
 Alpha  occ. eigenvalues --   -0.57654  -0.57268  -0.56888  -0.56800  -0.56481
 Alpha  occ. eigenvalues --   -0.56211  -0.55988  -0.55592  -0.55355  -0.55299
 Alpha  occ. eigenvalues --   -0.54846  -0.54380  -0.53914  -0.53112  -0.52861
 Alpha  occ. eigenvalues --   -0.52757  -0.52547  -0.52215  -0.51917  -0.51600
 Alpha  occ. eigenvalues --   -0.51315  -0.51226  -0.50922  -0.50528  -0.50477
 Alpha  occ. eigenvalues --   -0.50152  -0.49844  -0.49639  -0.49518  -0.49052
 Alpha  occ. eigenvalues --   -0.48868  -0.48505  -0.48462  -0.48251  -0.48041
 Alpha  occ. eigenvalues --   -0.47842  -0.47813  -0.47514  -0.47441  -0.47058
 Alpha  occ. eigenvalues --   -0.46739  -0.46644  -0.46434  -0.45985  -0.45914
 Alpha  occ. eigenvalues --   -0.45840  -0.45499  -0.45192  -0.44779  -0.44259
 Alpha  occ. eigenvalues --   -0.44167  -0.43852  -0.43491  -0.42316  -0.42211
 Alpha  occ. eigenvalues --   -0.42027  -0.41531  -0.41357  -0.39380  -0.38994
 Alpha  occ. eigenvalues --   -0.38213  -0.37147  -0.35099  -0.35058  -0.34780
 Alpha  occ. eigenvalues --   -0.33999  -0.33408  -0.32923  -0.32587  -0.26787
 Alpha  occ. eigenvalues --   -0.22103
 Alpha virt. eigenvalues --   -0.08488  -0.02171   0.00066   0.01045   0.01159
 Alpha virt. eigenvalues --    0.01547   0.02770   0.02888   0.03983   0.04502
 Alpha virt. eigenvalues --    0.06039   0.06999   0.07194   0.07395   0.07879

 Mulliken charges:
               1
     1  Mg   0.424290
     2  C   -0.038214
     3  C   -0.080587
     4  C   -0.100306
     5  C   -0.074489
     6  N   -0.268181
     7  C    0.099420
     8  C    0.005519
     9  C    0.013247
    10  C    0.143199
    11  C   -0.049104
    12  C   -0.024177
    13  C    0.001286
    14  C    0.467086
    15  O   -0.508721
    16  O   -0.282417
    17  N   -0.319660
    18  C    0.118554
    19  C    0.045174
    20  C   -0.037733
    21  C    0.144136
    22  C   -0.038463
    23  C    0.322258
    24  O   -0.510130
    25  C   -0.027371
    26  N   -0.276703
    27  C    0.152438
    28  C   -0.000118
    29  C   -0.011000
    30  C    0.101127
    31  C   -0.056600
    32  C   -0.034302
    33  C   -0.059114
    34  N   -0.315610
    35  C    0.079373
    36  C    0.026302
    37  C   -0.059661
    38  C    0.098017
    39  C   -0.033125
    40  C    0.326772
    41  O   -0.488771
    42  C    0.063853
    43  C    0.484504
    44  O   -0.513517
    45  O   -0.282972
    46  C    0.077236
    47  C    0.110913
    48  C   -0.087669
    49  C   -0.004204
    50  C   -0.046427
    51  C   -0.024940
    52  C   -0.026270
    53  C   -0.034459
    54  C   -0.022795
    55  C   -0.063729
    56  C   -0.043996
    57  C   -0.042233
    58  C   -0.042213
    59  C   -0.008738
    60  C   -0.059777
    61  C   -0.040956
    62  C   -0.046616
    63  C   -0.046883
    64  C   -0.015454
    65  C   -0.058027
    66  C   -0.060020
    67  H    0.033309
    68  H    0.014761
    69  H    0.028581
    70  H    0.032665
    71  H    0.025712
    72  H    0.031529
    73  H    0.022476
    74  H    0.014349
    75  H    0.028791
    76  H    0.029489
    77  H    0.042664
    78  H    0.041330
    79  H    0.033790
    80  H    0.038613
    81  H    0.024280
    82  H    0.041512
    83  H    0.030312
    84  H    0.045304
    85  H    0.034716
    86  H    0.040886
    87  H    0.017180
    88  H    0.021413
    89  H    0.024795
    90  H    0.025398
    91  H    0.018535
    92  H    0.027492
    93  H    0.021794
    94  H    0.021840
    95  H    0.031413
    96  H    0.018144
    97  H    0.031292
    98  H    0.066975
    99  H    0.025174
   100  H    0.054065
   101  H    0.044063
   102  H    0.041341
   103  H    0.049848
   104  H    0.038655
   105  H    0.015992
   106  H    0.034439
   107  H    0.023289
   108  H    0.016524
   109  H    0.025873
   110  H    0.020301
   111  H    0.028514
   112  H    0.015216
   113  H    0.012979
   114  H    0.029326
   115  H    0.012545
   116  H    0.032534
   117  H    0.023883
   118  H    0.011059
   119  H    0.022336
   120  H    0.020830
   121  H    0.018315
   122  H    0.017659
   123  H    0.016805
   124  H    0.033730
   125  H    0.021177
   126  H    0.015840
   127  H    0.017630
   128  H    0.026562
   129  H    0.014088
   130  H    0.029711
   131  H    0.021439
   132  H    0.011692
   133  H    0.021225
   134  H    0.019021
   135  H    0.018900
   136  H    0.014564
   137  H    0.018007
   138  H    0.023077
   139  H    0.023245
   140  H    0.018932
 Sum of Mulliken charges =  -0.00000

 Dipole moment (field-independent basis, Debye):
    X=             -0.7849    Y=              7.5283    Z=              2.9676  Tot=              8.1300
 N-N= 4.305932300071D+03 E-N= 0.000000000000D+00  KE=-9.285551280036D+03
 Leave Link  601 at Sat Apr 30 03:46:17 2022, MaxMem=  6710886400 cpu:               0.8 elap:               0.1
 (Enter /sw/apps/gaussian-16.0/g16/l9999.exe)
 1\1\GINC-BP1-COMPUTE070\SP\RZINDO CIS\STO-3G\C55H74Mg1N4O6\OF15641\30-
 Apr-2022\0\\#p ZINDO=(nstates=5)\\step_551_chromophore_2 ZINDO\\0,1\Mg
 ,0,3.167,-0.814,44.373\C,0,5.999,1.132,43.854\C,0,1.303,1.545,42.566\C
 ,0,0.623,-3.012,44.137\C,0,5.242,-3.406,45.48\N,0,3.641,1.071,43.192\C
 ,0,4.915,1.576,43.06\C,0,4.931,2.721,42.136\C,0,3.402,3.111,42.075\C,0
 ,2.719,1.852,42.627\C,0,3.047,4.474,42.717\C,0,5.617,2.36,40.745\C,0,6
 .726,3.385,40.252\C,0,6.719,3.859,38.802\O,0,6.574,5.025,38.461\O,0,6.

 Normal termination of Gaussian 16 at Sat Apr 30 03:46:17 2022.
