 Gaussian 16, Revision A.03,
 Gaussian 16:  ES64L-G16RevA.03 25-Dec-2016

 ------------------------------
 #p blyp/Def2SVP td=(nstates=5)
 ------------------------------

 ---------------------------------------------------
 step_1201_chromophore_10 TDDFT with blyp functional
 ---------------------------------------------------
 Symbolic Z-matrix:
 Charge =  0 Multiplicity = 1

                         Standard orientation:
 ---------------------------------------------------------------------
 Center     Atomic      Atomic             Coordinates (Angstroms)
 Number     Number       Type             X           Y           Z
 ---------------------------------------------------------------------
      1         12           0        5.881719    0.785529    0.157247
      2          6           0        4.170755   -2.113753    0.275513
      3          6           0        3.510612    1.957879   -2.142231
      4          6           0        7.778851    3.524319   -0.311451
      5          6           0        8.587798   -0.709220    1.837977
      6          7           0        4.071937   -0.048305   -0.822930
      7          6           0        3.420923   -1.215406   -0.448065
      8          6           0        2.094743   -1.413771   -1.204908
      9          6           0        2.058733   -0.223975   -2.192797
     10          6           0        3.329043    0.601333   -1.748703
     11          6           0        2.049373   -0.733775   -3.631408
     12          6           0        0.904093   -1.433454   -0.147543
     13          6           0        0.125752   -2.759267    0.031638
     14          6           0       -1.326590   -2.774566    0.658016
     15          8           0       -1.462785   -3.091461    1.807025
     16          8           0       -2.288414   -2.482242   -0.361941
     17          7           0        5.522076    2.585004   -0.933918
     18          6           0        4.498073    2.866937   -1.803367
     19          6           0        4.706495    4.215673   -2.379804
     20          6           0        5.807286    4.750551   -1.576756
     21          6           0        6.483631    3.620789   -0.931200
     22          6           0        3.980582    4.944546   -3.535078
     23          6           0        6.348793    6.157897   -1.553988
     24          8           0        7.458617    6.474333   -1.058777
     25          6           0        5.587609    7.253938   -2.180200
     26          7           0        7.941728    1.284899    0.643495
     27          6           0        8.449586    2.467689    0.323058
     28          6           0        9.841964    2.640535    0.948053
     29          6           0        9.983044    1.449465    1.953735
     30          6           0        8.765598    0.602910    1.488879
     31          6           0       10.982247    2.722947   -0.050470
     32          6           0       10.033280    1.891941    3.461957
     33          6           0        8.842974    2.724700    4.100150
     34          7           0        6.384776   -1.028020    0.993729
     35          6           0        7.443113   -1.553595    1.637990
     36          6           0        7.152938   -2.853430    2.102360
     37          6           0        5.928885   -3.126455    1.601040
     38          6           0        5.457492   -2.000818    0.881599
     39          6           0        8.030520   -3.654300    2.952138
     40          6           0        4.836131   -4.124173    1.534676
     41          8           0        4.781794   -5.249866    2.014950
     42          6           0        3.731163   -3.512553    0.704438
     43          6           0        3.435552   -4.545269   -0.371665
     44          8           0        3.979190   -4.685082   -1.468440
     45          8           0        2.245024   -5.193237   -0.030199
     46          6           0        1.634303   -5.736597   -1.221373
     47          6           0       -3.520575   -3.031464    0.123638
     48          6           0       -4.578079   -2.912102   -0.893572
     49          6           0       -5.577851   -3.744619   -1.164481
     50          6           0       -5.943977   -5.127698   -0.543970
     51          6           0       -6.547740   -3.361959   -2.315433
     52          6           0       -8.074438   -3.465934   -2.065689
     53          6           0       -8.777391   -2.079131   -2.220533
     54          6           0       -9.897107   -1.839311   -1.169281
     55          6           0      -10.994701   -2.964484   -1.352869
     56          6           0      -10.610427   -0.443625   -1.314819
     57          6           0      -11.139925    0.057356    0.040833
     58          6           0      -10.816144    1.558911    0.254322
     59          6           0      -11.944318    2.386410   -0.220818
     60          6           0      -11.585734    3.649072   -1.026629
     61          6           0      -12.709829    2.871696    1.023045
     62          6           0      -14.226505    2.844236    0.802166
     63          6           0      -15.020975    2.501926    2.075322
     64          6           0      -15.475269    3.899724    2.744554
     65          6           0      -14.742682    4.174584    4.079025
     66          6           0      -16.970534    4.052049    2.840218
     67          1           0        2.732938    2.297494   -2.829945
     68          1           0        8.435760    4.378193   -0.485957
     69          1           0        9.364518   -1.211880    2.417647
     70          1           0        2.181750   -2.405171   -1.648907
     71          1           0        1.121426    0.318445   -2.071124
     72          1           0        2.210937   -1.810037   -3.701813
     73          1           0        2.776383   -0.204361   -4.246358
     74          1           0        1.143874   -0.448980   -4.166988
     75          1           0        0.155680   -0.644398   -0.227095
     76          1           0        1.327875   -1.263567    0.842443
     77          1           0        0.717493   -3.362780    0.719642
     78          1           0        0.132908   -3.191638   -0.968523
     79          1           0        3.336980    5.753908   -3.192640
     80          1           0        3.305835    4.374363   -4.172813
     81          1           0        4.632747    5.539781   -4.174597
     82          1           0        6.055870    8.220281   -1.992895
     83          1           0        4.631934    7.203837   -1.657819
     84          1           0        5.587146    7.187960   -3.268772
     85          1           0        9.791098    3.576122    1.505788
     86          1           0       10.865326    0.857490    1.709004
     87          1           0       10.751750    2.110680   -0.922408
     88          1           0       11.839260    2.428059    0.555061
     89          1           0       11.215518    3.759455   -0.293242
     90          1           0       10.929408    2.508869    3.409611
     91          1           0       10.191063    1.042892    4.128073
     92          1           0        9.236019    3.731744    4.237991
     93          1           0        8.547832    2.314500    5.065311
     94          1           0        7.981879    2.726707    3.430947
     95          1           0        8.779306   -3.023198    3.431103
     96          1           0        8.481995   -4.524436    2.476468
     97          1           0        7.396466   -3.950306    3.788254
     98          1           0        2.857786   -3.591471    1.351268
     99          1           0        1.750092   -5.236067   -2.183181
    100          1           0        0.608065   -6.059416   -1.052177
    101          1           0        2.127671   -6.682087   -1.447032
    102          1           0       -3.839812   -2.432918    0.976206
    103          1           0       -3.333798   -4.057592    0.442537
    104          1           0       -4.529888   -2.015253   -1.511579
    105          1           0       -5.932673   -5.908550   -1.304439
    106          1           0       -6.949718   -5.011716   -0.139618
    107          1           0       -5.290236   -5.462282    0.261778
    108          1           0       -6.252161   -4.031083   -3.123547
    109          1           0       -6.334068   -2.366870   -2.704581
    110          1           0       -8.316947   -3.788590   -1.053359
    111          1           0       -8.501600   -4.136211   -2.811854
    112          1           0       -9.145522   -1.875236   -3.225833
    113          1           0       -8.040290   -1.282542   -2.126596
    114          1           0       -9.278285   -1.826877   -0.272164
    115          1           0      -10.699211   -3.989861   -1.128813
    116          1           0      -11.344548   -2.909135   -2.383082
    117          1           0      -11.761076   -2.648273   -0.644766
    118          1           0      -11.433694   -0.409871   -2.029674
    119          1           0       -9.880805    0.250482   -1.731191
    120          1           0      -10.678995   -0.460412    0.882299
    121          1           0      -12.221980   -0.066361   -0.015338
    122          1           0       -9.931342    1.928473   -0.263828
    123          1           0      -10.512845    1.759267    1.281517
    124          1           0      -12.632280    1.977168   -0.960816
    125          1           0      -11.838999    3.545891   -2.081604
    126          1           0      -10.513618    3.846277   -1.017507
    127          1           0      -12.074085    4.594428   -0.789020
    128          1           0      -12.306047    3.787587    1.455098
    129          1           0      -12.514505    2.167236    1.831510
    130          1           0      -14.595321    1.997802    0.221988
    131          1           0      -14.405519    3.822149    0.354947
    132          1           0      -14.375540    1.967764    2.772523
    133          1           0      -15.813207    1.771957    1.912899
    134          1           0      -15.181293    4.774193    2.163176
    135          1           0      -13.784840    4.624544    3.820481
    136          1           0      -14.603623    3.236452    4.616438
    137          1           0      -15.245600    4.871020    4.751411
    138          1           0      -17.313507    4.758456    3.595515
    139          1           0      -17.459634    3.086468    2.973467
    140          1           0      -17.133991    4.418209    1.827122
 ---------------------------------------------------------------------

 SCF Done:  E(RB-LYP) =  -3007.34182027     A.U. after   21 cycles

 Excitation energies and oscillator strengths:

 Excited State   1:      Singlet-A      1.7589 eV  704.88 nm  f=0.0221  <S**2>=0.000
     244 -> 247        0.66469
     245 -> 247        0.18246
     246 -> 247        0.14034
 This state for optimization and/or second-order correction.
 Total Energy, E(TD-HF/TD-DFT) =  -3007.27718029
 Copying the excited state density for this state as the 1-particle RhoCI density.

 Excited State   2:      Singlet-A      1.8252 eV  679.28 nm  f=0.2720  <S**2>=0.000
     244 -> 247       -0.10806
     245 -> 247       -0.12556
     245 -> 248       -0.18717
     246 -> 247        0.66534
     246 <- 247       -0.13751

 Excited State   3:      Singlet-A      1.8797 eV  659.58 nm  f=0.0023  <S**2>=0.000
     243 -> 247        0.70385

 Excited State   4:      Singlet-A      1.9694 eV  629.56 nm  f=0.0894  <S**2>=0.000
     244 -> 247       -0.20269
     245 -> 247        0.62050
     246 -> 248        0.20685

 Excited State   5:      Singlet-A      2.3810 eV  520.72 nm  f=0.0004  <S**2>=0.000
     241 -> 247        0.69590
     242 -> 247        0.12437

 The electronic state is 1-A.
 Alpha  occ. eigenvalues --  -46.27785 -18.82547 -18.82345 -18.78733 -18.77617
 Alpha  occ. eigenvalues --  -18.75429 -18.75165 -14.03701 -14.02786 -14.01313
 Alpha  occ. eigenvalues --  -14.00505 -10.04847 -10.04519  -9.99498  -9.99358
 Alpha  occ. eigenvalues --   -9.97264  -9.97190  -9.97172  -9.96770  -9.96668
 Alpha  occ. eigenvalues --   -9.96345  -9.96212  -9.95917  -9.95601  -9.94970
 Alpha  occ. eigenvalues --   -9.94774  -9.94670  -9.94557  -9.94142  -9.94030
 Alpha  occ. eigenvalues --   -9.93915  -9.93833  -9.93516  -9.93499  -9.93276
 Alpha  occ. eigenvalues --   -9.93259  -9.93181  -9.93107  -9.92931  -9.92766
 Alpha  occ. eigenvalues --   -9.92490  -9.92488  -9.92381  -9.92377  -9.92355
 Alpha  occ. eigenvalues --   -9.92295  -9.92137  -9.92019  -9.91985  -9.91882
 Alpha  occ. eigenvalues --   -9.91794  -9.91480  -9.91443  -9.91388  -9.91376
 Alpha  occ. eigenvalues --   -9.91285  -9.91251  -9.91148  -9.90972  -9.90834
 Alpha  occ. eigenvalues --   -9.90701  -9.90476  -9.90463  -9.90366  -9.90201
 Alpha  occ. eigenvalues --   -9.90162  -2.92286  -1.72712  -1.72203  -1.71963
 Alpha  occ. eigenvalues --   -0.98106  -0.97960  -0.92151  -0.91152  -0.89916
 Alpha  occ. eigenvalues --   -0.89747  -0.87333  -0.86328  -0.85910  -0.84193
 Alpha  occ. eigenvalues --   -0.75792  -0.73886  -0.73177  -0.72776  -0.72039
 Alpha  occ. eigenvalues --   -0.71795  -0.71567  -0.71087  -0.70921  -0.70509
 Alpha  occ. eigenvalues --   -0.69874  -0.69085  -0.68196  -0.67520  -0.67098
 Alpha  occ. eigenvalues --   -0.66522  -0.65887  -0.65359  -0.65021  -0.64807
 Alpha  occ. eigenvalues --   -0.63722  -0.62674  -0.62447  -0.61800  -0.60902
 Alpha  occ. eigenvalues --   -0.60377  -0.60108  -0.59933  -0.59790  -0.58747
 Alpha  occ. eigenvalues --   -0.58334  -0.57931  -0.56732  -0.55570  -0.55361
 Alpha  occ. eigenvalues --   -0.54017  -0.53612  -0.52915  -0.51818  -0.51790
 Alpha  occ. eigenvalues --   -0.51088  -0.50992  -0.50808  -0.50467  -0.50135
 Alpha  occ. eigenvalues --   -0.50032  -0.49337  -0.48959  -0.48654  -0.46634
 Alpha  occ. eigenvalues --   -0.46466  -0.46264  -0.45837  -0.45343  -0.44617
 Alpha  occ. eigenvalues --   -0.43955  -0.43448  -0.43292  -0.42942  -0.42378
 Alpha  occ. eigenvalues --   -0.41957  -0.41810  -0.41732  -0.41450  -0.41373
 Alpha  occ. eigenvalues --   -0.41220  -0.40926  -0.40444  -0.40232  -0.40086
 Alpha  occ. eigenvalues --   -0.40003  -0.39853  -0.39741  -0.39413  -0.39086
 Alpha  occ. eigenvalues --   -0.39071  -0.38898  -0.38783  -0.38525  -0.38252
 Alpha  occ. eigenvalues --   -0.38113  -0.37907  -0.37681  -0.37463  -0.37195
 Alpha  occ. eigenvalues --   -0.37149  -0.36832  -0.36807  -0.36650  -0.36451
 Alpha  occ. eigenvalues --   -0.36246  -0.36051  -0.35822  -0.35790  -0.35664
 Alpha  occ. eigenvalues --   -0.35375  -0.35284  -0.35240  -0.34849  -0.34710
 Alpha  occ. eigenvalues --   -0.34606  -0.34480  -0.34418  -0.34271  -0.33988
 Alpha  occ. eigenvalues --   -0.33749  -0.33558  -0.33163  -0.33095  -0.32994
 Alpha  occ. eigenvalues --   -0.32949  -0.32710  -0.32689  -0.32681  -0.32455
 Alpha  occ. eigenvalues --   -0.32411  -0.32139  -0.32041  -0.31924  -0.31828
 Alpha  occ. eigenvalues --   -0.31658  -0.31567  -0.31349  -0.31098  -0.31006
 Alpha  occ. eigenvalues --   -0.30668  -0.30327  -0.30161  -0.29994  -0.29985
 Alpha  occ. eigenvalues --   -0.29637  -0.29498  -0.29269  -0.29000  -0.28801
 Alpha  occ. eigenvalues --   -0.28563  -0.28460  -0.28278  -0.28018  -0.27654
 Alpha  occ. eigenvalues --   -0.27365  -0.27234  -0.26866  -0.26789  -0.26592
 Alpha  occ. eigenvalues --   -0.26494  -0.26258  -0.25763  -0.25675  -0.25475
 Alpha  occ. eigenvalues --   -0.25222  -0.24704  -0.24207  -0.23906  -0.23431
 Alpha  occ. eigenvalues --   -0.23043  -0.22720  -0.22383  -0.22032  -0.20883
 Alpha  occ. eigenvalues --   -0.20529  -0.20247  -0.18599  -0.18126  -0.17285
 Alpha  occ. eigenvalues --   -0.16186
 Alpha virt. eigenvalues --   -0.11776  -0.07061  -0.06527  -0.04793  -0.04062
 Alpha virt. eigenvalues --   -0.03769  -0.02679  -0.01710  -0.00939  -0.00067
 Alpha virt. eigenvalues --    0.01400   0.01571   0.02455   0.02851   0.02903

 Mulliken charges:
               1
     1  Mg   0.685755
     2  C    0.112725
     3  C   -0.070979
     4  C   -0.026970
     5  C   -0.065862
     6  N   -0.220325
     7  C   -0.110764
     8  C    0.028208
     9  C    0.014986
    10  C    0.037580
    11  C    0.123431
    12  C    0.098814
    13  C    0.080456
    14  C    0.094909
    15  O   -0.147796
    16  O   -0.298390
    17  N   -0.302533
    18  C    0.169314
    19  C   -0.117654
    20  C    0.022872
    21  C    0.102391
    22  C    0.169944
    23  C   -0.081157
    24  O   -0.196271
    25  C    0.148794
    26  N   -0.188259
    27  C    0.025057
    28  C   -0.035615
    29  C    0.052146
    30  C    0.023499
    31  C    0.160094
    32  C    0.068298
    33  C    0.054974
    34  N   -0.248330
    35  C    0.054158
    36  C   -0.188799
    37  C    0.124249
    38  C    0.061642
    39  C    0.184746
    40  C   -0.083052
    41  O   -0.129130
    42  C    0.043866
    43  C    0.117424
    44  O   -0.185409
    45  O   -0.268526
    46  C    0.229676
    47  C    0.331165
    48  C   -0.103852
    49  C   -0.133861
    50  C    0.147427
    51  C    0.119557
    52  C    0.082824
    53  C    0.046096
    54  C   -0.070425
    55  C    0.112178
    56  C    0.089452
    57  C    0.092007
    58  C    0.159033
    59  C   -0.079024
    60  C    0.087618
    61  C    0.090106
    62  C    0.082159
    63  C    0.092080
    64  C   -0.087783
    65  C    0.088105
    66  C    0.111143
    67  H   -0.068489
    68  H   -0.037891
    69  H   -0.072969
    70  H    0.003850
    71  H   -0.020072
    72  H    0.005245
    73  H   -0.018650
    74  H   -0.016757
    75  H   -0.018137
    76  H   -0.018952
    77  H    0.016254
    78  H   -0.010373
    79  H   -0.011993
    80  H   -0.007489
    81  H   -0.005693
    82  H   -0.015612
    83  H    0.008532
    84  H    0.010148
    85  H   -0.024576
    86  H   -0.034195
    87  H    0.007629
    88  H   -0.018130
    89  H   -0.005882
    90  H   -0.015433
    91  H   -0.015711
    92  H    0.001262
    93  H   -0.001251
    94  H    0.010048
    95  H   -0.029427
    96  H    0.018585
    97  H   -0.000006
    98  H    0.009996
    99  H    0.011722
   100  H    0.006870
   101  H   -0.008297
   102  H   -0.004583
   103  H   -0.010065
   104  H   -0.041550
   105  H   -0.000150
   106  H   -0.002343
   107  H   -0.015275
   108  H   -0.024858
   109  H   -0.034622
   110  H   -0.007977
   111  H   -0.024856
   112  H   -0.041487
   113  H   -0.039793
   114  H   -0.030021
   115  H   -0.009680
   116  H   -0.012434
   117  H   -0.017953
   118  H   -0.035364
   119  H   -0.042325
   120  H   -0.029688
   121  H   -0.015397
   122  H   -0.054410
   123  H   -0.042255
   124  H   -0.030876
   125  H   -0.031533
   126  H   -0.031066
   127  H   -0.021225
   128  H   -0.028851
   129  H   -0.055600
   130  H   -0.034351
   131  H   -0.022281
   132  H   -0.036167
   133  H   -0.032086
   134  H   -0.036645
   135  H   -0.019554
   136  H   -0.017450
   137  H   -0.025335
   138  H   -0.017944
   139  H   -0.016867
   140  H   -0.019427
 Sum of Mulliken charges =  -0.00000

 Dipole moment (field-independent basis, Debye):
    X=             -2.8443    Y=              2.8930    Z=             -2.3575  Tot=              4.6922
 Quadrupole moment (field-independent basis, Debye-Ang):
   XX=           -394.0806   YY=           -432.1301   ZZ=           -399.6450
   XY=             19.0457   XZ=             21.7566   YZ=              6.5092

 Normal termination of Gaussian 16 at Wed Apr 27 13:23:00 2022.
