 Gaussian 16, Revision A.03,
 Gaussian 16:  ES64L-G16RevA.03 25-Dec-2016

 -----------------------------------
 #p cam-b3lyp/Def2SVP td=(nstates=5)
 -----------------------------------

 --------------------------------------------------------
 step_1201_chromophore_10 TDDFT with cam-b3lyp functional
 --------------------------------------------------------
 Symbolic Z-matrix:
 Charge =  0 Multiplicity = 1

                         Standard orientation:
 ---------------------------------------------------------------------
 Center     Atomic      Atomic             Coordinates (Angstroms)
 Number     Number       Type             X           Y           Z
 ---------------------------------------------------------------------
      1         12           0        5.881719    0.785529    0.157247
      2          6           0        4.170755   -2.113753    0.275513
      3          6           0        3.510612    1.957879   -2.142231
      4          6           0        7.778851    3.524319   -0.311451
      5          6           0        8.587798   -0.709220    1.837977
      6          7           0        4.071937   -0.048305   -0.822930
      7          6           0        3.420923   -1.215406   -0.448065
      8          6           0        2.094743   -1.413771   -1.204908
      9          6           0        2.058733   -0.223975   -2.192797
     10          6           0        3.329043    0.601333   -1.748703
     11          6           0        2.049373   -0.733775   -3.631408
     12          6           0        0.904093   -1.433454   -0.147543
     13          6           0        0.125752   -2.759267    0.031638
     14          6           0       -1.326590   -2.774566    0.658016
     15          8           0       -1.462785   -3.091461    1.807025
     16          8           0       -2.288414   -2.482242   -0.361941
     17          7           0        5.522076    2.585004   -0.933918
     18          6           0        4.498073    2.866937   -1.803367
     19          6           0        4.706495    4.215673   -2.379804
     20          6           0        5.807286    4.750551   -1.576756
     21          6           0        6.483631    3.620789   -0.931200
     22          6           0        3.980582    4.944546   -3.535078
     23          6           0        6.348793    6.157897   -1.553988
     24          8           0        7.458617    6.474333   -1.058777
     25          6           0        5.587609    7.253938   -2.180200
     26          7           0        7.941728    1.284899    0.643495
     27          6           0        8.449586    2.467689    0.323058
     28          6           0        9.841964    2.640535    0.948053
     29          6           0        9.983044    1.449465    1.953735
     30          6           0        8.765598    0.602910    1.488879
     31          6           0       10.982247    2.722947   -0.050470
     32          6           0       10.033280    1.891941    3.461957
     33          6           0        8.842974    2.724700    4.100150
     34          7           0        6.384776   -1.028020    0.993729
     35          6           0        7.443113   -1.553595    1.637990
     36          6           0        7.152938   -2.853430    2.102360
     37          6           0        5.928885   -3.126455    1.601040
     38          6           0        5.457492   -2.000818    0.881599
     39          6           0        8.030520   -3.654300    2.952138
     40          6           0        4.836131   -4.124173    1.534676
     41          8           0        4.781794   -5.249866    2.014950
     42          6           0        3.731163   -3.512553    0.704438
     43          6           0        3.435552   -4.545269   -0.371665
     44          8           0        3.979190   -4.685082   -1.468440
     45          8           0        2.245024   -5.193237   -0.030199
     46          6           0        1.634303   -5.736597   -1.221373
     47          6           0       -3.520575   -3.031464    0.123638
     48          6           0       -4.578079   -2.912102   -0.893572
     49          6           0       -5.577851   -3.744619   -1.164481
     50          6           0       -5.943977   -5.127698   -0.543970
     51          6           0       -6.547740   -3.361959   -2.315433
     52          6           0       -8.074438   -3.465934   -2.065689
     53          6           0       -8.777391   -2.079131   -2.220533
     54          6           0       -9.897107   -1.839311   -1.169281
     55          6           0      -10.994701   -2.964484   -1.352869
     56          6           0      -10.610427   -0.443625   -1.314819
     57          6           0      -11.139925    0.057356    0.040833
     58          6           0      -10.816144    1.558911    0.254322
     59          6           0      -11.944318    2.386410   -0.220818
     60          6           0      -11.585734    3.649072   -1.026629
     61          6           0      -12.709829    2.871696    1.023045
     62          6           0      -14.226505    2.844236    0.802166
     63          6           0      -15.020975    2.501926    2.075322
     64          6           0      -15.475269    3.899724    2.744554
     65          6           0      -14.742682    4.174584    4.079025
     66          6           0      -16.970534    4.052049    2.840218
     67          1           0        2.732938    2.297494   -2.829945
     68          1           0        8.435760    4.378193   -0.485957
     69          1           0        9.364518   -1.211880    2.417647
     70          1           0        2.181750   -2.405171   -1.648907
     71          1           0        1.121426    0.318445   -2.071124
     72          1           0        2.210937   -1.810037   -3.701813
     73          1           0        2.776383   -0.204361   -4.246358
     74          1           0        1.143874   -0.448980   -4.166988
     75          1           0        0.155680   -0.644398   -0.227095
     76          1           0        1.327875   -1.263567    0.842443
     77          1           0        0.717493   -3.362780    0.719642
     78          1           0        0.132908   -3.191638   -0.968523
     79          1           0        3.336980    5.753908   -3.192640
     80          1           0        3.305835    4.374363   -4.172813
     81          1           0        4.632747    5.539781   -4.174597
     82          1           0        6.055870    8.220281   -1.992895
     83          1           0        4.631934    7.203837   -1.657819
     84          1           0        5.587146    7.187960   -3.268772
     85          1           0        9.791098    3.576122    1.505788
     86          1           0       10.865326    0.857490    1.709004
     87          1           0       10.751750    2.110680   -0.922408
     88          1           0       11.839260    2.428059    0.555061
     89          1           0       11.215518    3.759455   -0.293242
     90          1           0       10.929408    2.508869    3.409611
     91          1           0       10.191063    1.042892    4.128073
     92          1           0        9.236019    3.731744    4.237991
     93          1           0        8.547832    2.314500    5.065311
     94          1           0        7.981879    2.726707    3.430947
     95          1           0        8.779306   -3.023198    3.431103
     96          1           0        8.481995   -4.524436    2.476468
     97          1           0        7.396466   -3.950306    3.788254
     98          1           0        2.857786   -3.591471    1.351268
     99          1           0        1.750092   -5.236067   -2.183181
    100          1           0        0.608065   -6.059416   -1.052177
    101          1           0        2.127671   -6.682087   -1.447032
    102          1           0       -3.839812   -2.432918    0.976206
    103          1           0       -3.333798   -4.057592    0.442537
    104          1           0       -4.529888   -2.015253   -1.511579
    105          1           0       -5.932673   -5.908550   -1.304439
    106          1           0       -6.949718   -5.011716   -0.139618
    107          1           0       -5.290236   -5.462282    0.261778
    108          1           0       -6.252161   -4.031083   -3.123547
    109          1           0       -6.334068   -2.366870   -2.704581
    110          1           0       -8.316947   -3.788590   -1.053359
    111          1           0       -8.501600   -4.136211   -2.811854
    112          1           0       -9.145522   -1.875236   -3.225833
    113          1           0       -8.040290   -1.282542   -2.126596
    114          1           0       -9.278285   -1.826877   -0.272164
    115          1           0      -10.699211   -3.989861   -1.128813
    116          1           0      -11.344548   -2.909135   -2.383082
    117          1           0      -11.761076   -2.648273   -0.644766
    118          1           0      -11.433694   -0.409871   -2.029674
    119          1           0       -9.880805    0.250482   -1.731191
    120          1           0      -10.678995   -0.460412    0.882299
    121          1           0      -12.221980   -0.066361   -0.015338
    122          1           0       -9.931342    1.928473   -0.263828
    123          1           0      -10.512845    1.759267    1.281517
    124          1           0      -12.632280    1.977168   -0.960816
    125          1           0      -11.838999    3.545891   -2.081604
    126          1           0      -10.513618    3.846277   -1.017507
    127          1           0      -12.074085    4.594428   -0.789020
    128          1           0      -12.306047    3.787587    1.455098
    129          1           0      -12.514505    2.167236    1.831510
    130          1           0      -14.595321    1.997802    0.221988
    131          1           0      -14.405519    3.822149    0.354947
    132          1           0      -14.375540    1.967764    2.772523
    133          1           0      -15.813207    1.771957    1.912899
    134          1           0      -15.181293    4.774193    2.163176
    135          1           0      -13.784840    4.624544    3.820481
    136          1           0      -14.603623    3.236452    4.616438
    137          1           0      -15.245600    4.871020    4.751411
    138          1           0      -17.313507    4.758456    3.595515
    139          1           0      -17.459634    3.086468    2.973467
    140          1           0      -17.133991    4.418209    1.827122
 ---------------------------------------------------------------------

 SCF Done:  E(RCAM-B3LYP) =  -3007.13542774     A.U. after   17 cycles

 Excitation energies and oscillator strengths:

 Excited State   1:      Singlet-A      1.7657 eV  702.19 nm  f=0.3754  <S**2>=0.000
     245 -> 248       -0.18289
     246 -> 247        0.68411
     245 <- 248       -0.10438
 This state for optimization and/or second-order correction.
 Total Energy, E(TD-HF/TD-DFT) =  -3007.07054051
 Copying the excited state density for this state as the 1-particle RhoCI density.

 Excited State   2:      Singlet-A      2.1976 eV  564.17 nm  f=0.1194  <S**2>=0.000
     245 -> 247        0.64779
     246 -> 248        0.26311

 Excited State   3:      Singlet-A      3.1811 eV  389.76 nm  f=0.0025  <S**2>=0.000
     240 -> 249       -0.13231
     243 -> 247        0.22691
     244 -> 247        0.60424
     246 -> 248       -0.12682

 Excited State   4:      Singlet-A      3.3937 eV  365.34 nm  f=0.0298  <S**2>=0.000
     239 -> 247        0.17871
     239 -> 249        0.13756
     240 -> 247        0.46390
     240 -> 249        0.23786
     243 -> 247       -0.14554
     244 -> 247        0.21616
     246 -> 248       -0.19744

 Excited State   5:      Singlet-A      3.5573 eV  348.54 nm  f=0.2050  <S**2>=0.000
     243 -> 247        0.46414
     244 -> 247       -0.23600
     245 -> 247        0.14954
     246 -> 248       -0.41020

 The electronic state is 1-A.
 Alpha  occ. eigenvalues --  -46.89335 -19.25384 -19.25219 -19.21814 -19.20659
 Alpha  occ. eigenvalues --  -19.18769 -19.18388 -14.42722 -14.41517 -14.39912
 Alpha  occ. eigenvalues --  -14.38688 -10.40257 -10.39963 -10.35108 -10.34397
 Alpha  occ. eigenvalues --  -10.32064 -10.31744 -10.31228 -10.31210 -10.31061
 Alpha  occ. eigenvalues --  -10.31024 -10.30903 -10.30890 -10.29893 -10.29053
 Alpha  occ. eigenvalues --  -10.28808 -10.28462 -10.28403 -10.28386 -10.28365
 Alpha  occ. eigenvalues --  -10.28352 -10.28140 -10.27649 -10.27431 -10.27415
 Alpha  occ. eigenvalues --  -10.27400 -10.27089 -10.26932 -10.26895 -10.26633
 Alpha  occ. eigenvalues --  -10.26466 -10.26257 -10.26176 -10.26171 -10.26155
 Alpha  occ. eigenvalues --  -10.26045 -10.25810 -10.25781 -10.25762 -10.25702
 Alpha  occ. eigenvalues --  -10.25372 -10.25221 -10.25184 -10.25028 -10.25010
 Alpha  occ. eigenvalues --  -10.25004 -10.24931 -10.24787 -10.24676 -10.24457
 Alpha  occ. eigenvalues --  -10.24308 -10.24152 -10.24104 -10.23970 -10.23810
 Alpha  occ. eigenvalues --  -10.23717  -3.17734  -1.92640  -1.92217  -1.92002
 Alpha  occ. eigenvalues --   -1.16614  -1.16387  -1.10066  -1.09332  -1.08462
 Alpha  occ. eigenvalues --   -1.07753  -1.04786  -1.03928  -1.03544  -1.02007
 Alpha  occ. eigenvalues --   -0.92787  -0.90744  -0.90028  -0.89549  -0.88613
 Alpha  occ. eigenvalues --   -0.88491  -0.88284  -0.87583  -0.87517  -0.86949
 Alpha  occ. eigenvalues --   -0.86834  -0.85509  -0.84475  -0.83589  -0.83239
 Alpha  occ. eigenvalues --   -0.82576  -0.82273  -0.81359  -0.80846  -0.80642
 Alpha  occ. eigenvalues --   -0.79430  -0.78711  -0.78015  -0.77192  -0.76183
 Alpha  occ. eigenvalues --   -0.75703  -0.75383  -0.75324  -0.75089  -0.73949
 Alpha  occ. eigenvalues --   -0.73361  -0.72965  -0.71612  -0.70432  -0.69934
 Alpha  occ. eigenvalues --   -0.68675  -0.68160  -0.67464  -0.66118  -0.66071
 Alpha  occ. eigenvalues --   -0.65140  -0.64991  -0.64909  -0.64415  -0.64129
 Alpha  occ. eigenvalues --   -0.64008  -0.63275  -0.62931  -0.62297  -0.60402
 Alpha  occ. eigenvalues --   -0.60150  -0.59711  -0.59395  -0.58582  -0.58190
 Alpha  occ. eigenvalues --   -0.57240  -0.56694  -0.56505  -0.56266  -0.55599
 Alpha  occ. eigenvalues --   -0.55258  -0.54919  -0.54774  -0.54455  -0.54222
 Alpha  occ. eigenvalues --   -0.54138  -0.53605  -0.53393  -0.53046  -0.52896
 Alpha  occ. eigenvalues --   -0.52606  -0.52449  -0.52210  -0.52079  -0.51980
 Alpha  occ. eigenvalues --   -0.51539  -0.51386  -0.51287  -0.50997  -0.50655
 Alpha  occ. eigenvalues --   -0.50593  -0.50244  -0.50204  -0.49943  -0.49611
 Alpha  occ. eigenvalues --   -0.49421  -0.49351  -0.48988  -0.48804  -0.48665
 Alpha  occ. eigenvalues --   -0.48588  -0.48359  -0.48249  -0.48162  -0.47786
 Alpha  occ. eigenvalues --   -0.47686  -0.47248  -0.47070  -0.46782  -0.46657
 Alpha  occ. eigenvalues --   -0.46591  -0.46407  -0.46242  -0.46175  -0.45734
 Alpha  occ. eigenvalues --   -0.45546  -0.45249  -0.44958  -0.44843  -0.44525
 Alpha  occ. eigenvalues --   -0.44471  -0.44414  -0.44321  -0.44260  -0.44037
 Alpha  occ. eigenvalues --   -0.43901  -0.43868  -0.43748  -0.43539  -0.43484
 Alpha  occ. eigenvalues --   -0.43309  -0.43171  -0.43148  -0.42497  -0.42305
 Alpha  occ. eigenvalues --   -0.42165  -0.41888  -0.41594  -0.41308  -0.41170
 Alpha  occ. eigenvalues --   -0.41119  -0.40911  -0.40377  -0.40104  -0.39850
 Alpha  occ. eigenvalues --   -0.39779  -0.39344  -0.39242  -0.38943  -0.38613
 Alpha  occ. eigenvalues --   -0.38183  -0.38134  -0.37907  -0.37653  -0.37493
 Alpha  occ. eigenvalues --   -0.37268  -0.37081  -0.36977  -0.36758  -0.36329
 Alpha  occ. eigenvalues --   -0.36085  -0.35936  -0.34892  -0.34767  -0.34638
 Alpha  occ. eigenvalues --   -0.34283  -0.32963  -0.32706  -0.31721  -0.31021
 Alpha  occ. eigenvalues --   -0.30533  -0.30262  -0.29914  -0.29626  -0.24094
 Alpha  occ. eigenvalues --   -0.21572
 Alpha virt. eigenvalues --   -0.08844  -0.01833  -0.00264   0.02149   0.02482
 Alpha virt. eigenvalues --    0.03741   0.04145   0.05558   0.06552   0.06648
 Alpha virt. eigenvalues --    0.07569   0.08514   0.08971   0.09161   0.09261

 Mulliken charges:
               1
     1  Mg   0.816908
     2  C    0.089366
     3  C   -0.086756
     4  C   -0.050233
     5  C   -0.065780
     6  N   -0.286818
     7  C   -0.069544
     8  C   -0.025559
     9  C   -0.037669
    10  C    0.059235
    11  C    0.066111
    12  C    0.054278
    13  C    0.020072
    14  C    0.174421
    15  O   -0.186688
    16  O   -0.360207
    17  N   -0.391561
    18  C    0.184591
    19  C   -0.120318
    20  C   -0.041849
    21  C    0.132353
    22  C    0.108850
    23  C   -0.001143
    24  O   -0.234122
    25  C    0.060584
    26  N   -0.259509
    27  C    0.051308
    28  C   -0.094867
    29  C   -0.000961
    30  C    0.031852
    31  C    0.101453
    32  C    0.021383
    33  C   -0.005614
    34  N   -0.336883
    35  C    0.054445
    36  C   -0.195436
    37  C    0.047732
    38  C    0.087857
    39  C    0.134778
    40  C    0.021949
    41  O   -0.169514
    42  C   -0.037948
    43  C    0.205703
    44  O   -0.222218
    45  O   -0.330879
    46  C    0.180018
    47  C    0.289492
    48  C   -0.124722
    49  C   -0.157740
    50  C    0.090235
    51  C    0.064841
    52  C    0.019350
    53  C    0.004390
    54  C   -0.130493
    55  C    0.054880
    56  C    0.039939
    57  C    0.034978
    58  C    0.095683
    59  C   -0.138105
    60  C    0.034268
    61  C    0.039814
    62  C    0.025400
    63  C    0.035511
    64  C   -0.147363
    65  C    0.034371
    66  C    0.053685
    67  H   -0.032902
    68  H    0.001385
    69  H   -0.038004
    70  H    0.032180
    71  H    0.016008
    72  H    0.030544
    73  H    0.007965
    74  H    0.009187
    75  H    0.011341
    76  H    0.013001
    77  H    0.044236
    78  H    0.018240
    79  H    0.018099
    80  H    0.023384
    81  H    0.022494
    82  H    0.023334
    83  H    0.035955
    84  H    0.038144
    85  H    0.010955
    86  H    0.002785
    87  H    0.032361
    88  H    0.006833
    89  H    0.018870
    90  H    0.009489
    91  H    0.011589
    92  H    0.022619
    93  H    0.023071
    94  H    0.028883
    95  H   -0.005601
    96  H    0.042663
    97  H    0.024818
    98  H    0.052794
    99  H    0.035227
   100  H    0.031064
   101  H    0.018581
   102  H    0.025813
   103  H    0.017272
   104  H   -0.005136
   105  H    0.024615
   106  H    0.021314
   107  H    0.010034
   108  H    0.005038
   109  H   -0.005186
   110  H    0.015483
   111  H    0.005323
   112  H   -0.013445
   113  H   -0.011884
   114  H    0.000069
   115  H    0.014599
   116  H    0.010877
   117  H    0.005360
   118  H   -0.006778
   119  H   -0.013340
   120  H    0.000078
   121  H    0.009992
   122  H   -0.023589
   123  H   -0.009972
   124  H    0.001433
   125  H   -0.006791
   126  H   -0.006713
   127  H    0.003123
   128  H   -0.001022
   129  H   -0.026857
   130  H   -0.004522
   131  H    0.003887
   132  H   -0.006813
   133  H   -0.002155
   134  H   -0.006503
   135  H    0.002578
   136  H    0.004976
   137  H   -0.000393
   138  H    0.006550
   139  H    0.005600
   140  H    0.003912
 Sum of Mulliken charges =  -0.00000

 Dipole moment (field-independent basis, Debye):
    X=             -3.2267    Y=              4.2582    Z=             -3.1649  Tot=              6.2097
 Quadrupole moment (field-independent basis, Debye-Ang):
   XX=           -397.6852   YY=           -427.0949   ZZ=           -398.1422
   XY=             25.6248   XZ=             18.7696   YZ=              4.3092

 Normal termination of Gaussian 16 at Wed Apr 27 12:31:36 2022.
