 Gaussian 16, Revision A.03,
 Gaussian 16:  ES64L-G16RevA.03 25-Dec-2016

 ---------------------------------
 #p PBE1PBE/Def2SVP td=(nstates=5)
 ---------------------------------

 ------------------------------------------------------
 step_1201_chromophore_10 TDDFT with PBE1PBE functional
 ------------------------------------------------------
 Symbolic Z-matrix:
 Charge =  0 Multiplicity = 1

                         Standard orientation:
 ---------------------------------------------------------------------
 Center     Atomic      Atomic             Coordinates (Angstroms)
 Number     Number       Type             X           Y           Z
 ---------------------------------------------------------------------
      1         12           0        5.881719    0.785529    0.157247
      2          6           0        4.170755   -2.113753    0.275513
      3          6           0        3.510612    1.957879   -2.142231
      4          6           0        7.778851    3.524319   -0.311451
      5          6           0        8.587798   -0.709220    1.837977
      6          7           0        4.071937   -0.048305   -0.822930
      7          6           0        3.420923   -1.215406   -0.448065
      8          6           0        2.094743   -1.413771   -1.204908
      9          6           0        2.058733   -0.223975   -2.192797
     10          6           0        3.329043    0.601333   -1.748703
     11          6           0        2.049373   -0.733775   -3.631408
     12          6           0        0.904093   -1.433454   -0.147543
     13          6           0        0.125752   -2.759267    0.031638
     14          6           0       -1.326590   -2.774566    0.658016
     15          8           0       -1.462785   -3.091461    1.807025
     16          8           0       -2.288414   -2.482242   -0.361941
     17          7           0        5.522076    2.585004   -0.933918
     18          6           0        4.498073    2.866937   -1.803367
     19          6           0        4.706495    4.215673   -2.379804
     20          6           0        5.807286    4.750551   -1.576756
     21          6           0        6.483631    3.620789   -0.931200
     22          6           0        3.980582    4.944546   -3.535078
     23          6           0        6.348793    6.157897   -1.553988
     24          8           0        7.458617    6.474333   -1.058777
     25          6           0        5.587609    7.253938   -2.180200
     26          7           0        7.941728    1.284899    0.643495
     27          6           0        8.449586    2.467689    0.323058
     28          6           0        9.841964    2.640535    0.948053
     29          6           0        9.983044    1.449465    1.953735
     30          6           0        8.765598    0.602910    1.488879
     31          6           0       10.982247    2.722947   -0.050470
     32          6           0       10.033280    1.891941    3.461957
     33          6           0        8.842974    2.724700    4.100150
     34          7           0        6.384776   -1.028020    0.993729
     35          6           0        7.443113   -1.553595    1.637990
     36          6           0        7.152938   -2.853430    2.102360
     37          6           0        5.928885   -3.126455    1.601040
     38          6           0        5.457492   -2.000818    0.881599
     39          6           0        8.030520   -3.654300    2.952138
     40          6           0        4.836131   -4.124173    1.534676
     41          8           0        4.781794   -5.249866    2.014950
     42          6           0        3.731163   -3.512553    0.704438
     43          6           0        3.435552   -4.545269   -0.371665
     44          8           0        3.979190   -4.685082   -1.468440
     45          8           0        2.245024   -5.193237   -0.030199
     46          6           0        1.634303   -5.736597   -1.221373
     47          6           0       -3.520575   -3.031464    0.123638
     48          6           0       -4.578079   -2.912102   -0.893572
     49          6           0       -5.577851   -3.744619   -1.164481
     50          6           0       -5.943977   -5.127698   -0.543970
     51          6           0       -6.547740   -3.361959   -2.315433
     52          6           0       -8.074438   -3.465934   -2.065689
     53          6           0       -8.777391   -2.079131   -2.220533
     54          6           0       -9.897107   -1.839311   -1.169281
     55          6           0      -10.994701   -2.964484   -1.352869
     56          6           0      -10.610427   -0.443625   -1.314819
     57          6           0      -11.139925    0.057356    0.040833
     58          6           0      -10.816144    1.558911    0.254322
     59          6           0      -11.944318    2.386410   -0.220818
     60          6           0      -11.585734    3.649072   -1.026629
     61          6           0      -12.709829    2.871696    1.023045
     62          6           0      -14.226505    2.844236    0.802166
     63          6           0      -15.020975    2.501926    2.075322
     64          6           0      -15.475269    3.899724    2.744554
     65          6           0      -14.742682    4.174584    4.079025
     66          6           0      -16.970534    4.052049    2.840218
     67          1           0        2.732938    2.297494   -2.829945
     68          1           0        8.435760    4.378193   -0.485957
     69          1           0        9.364518   -1.211880    2.417647
     70          1           0        2.181750   -2.405171   -1.648907
     71          1           0        1.121426    0.318445   -2.071124
     72          1           0        2.210937   -1.810037   -3.701813
     73          1           0        2.776383   -0.204361   -4.246358
     74          1           0        1.143874   -0.448980   -4.166988
     75          1           0        0.155680   -0.644398   -0.227095
     76          1           0        1.327875   -1.263567    0.842443
     77          1           0        0.717493   -3.362780    0.719642
     78          1           0        0.132908   -3.191638   -0.968523
     79          1           0        3.336980    5.753908   -3.192640
     80          1           0        3.305835    4.374363   -4.172813
     81          1           0        4.632747    5.539781   -4.174597
     82          1           0        6.055870    8.220281   -1.992895
     83          1           0        4.631934    7.203837   -1.657819
     84          1           0        5.587146    7.187960   -3.268772
     85          1           0        9.791098    3.576122    1.505788
     86          1           0       10.865326    0.857490    1.709004
     87          1           0       10.751750    2.110680   -0.922408
     88          1           0       11.839260    2.428059    0.555061
     89          1           0       11.215518    3.759455   -0.293242
     90          1           0       10.929408    2.508869    3.409611
     91          1           0       10.191063    1.042892    4.128073
     92          1           0        9.236019    3.731744    4.237991
     93          1           0        8.547832    2.314500    5.065311
     94          1           0        7.981879    2.726707    3.430947
     95          1           0        8.779306   -3.023198    3.431103
     96          1           0        8.481995   -4.524436    2.476468
     97          1           0        7.396466   -3.950306    3.788254
     98          1           0        2.857786   -3.591471    1.351268
     99          1           0        1.750092   -5.236067   -2.183181
    100          1           0        0.608065   -6.059416   -1.052177
    101          1           0        2.127671   -6.682087   -1.447032
    102          1           0       -3.839812   -2.432918    0.976206
    103          1           0       -3.333798   -4.057592    0.442537
    104          1           0       -4.529888   -2.015253   -1.511579
    105          1           0       -5.932673   -5.908550   -1.304439
    106          1           0       -6.949718   -5.011716   -0.139618
    107          1           0       -5.290236   -5.462282    0.261778
    108          1           0       -6.252161   -4.031083   -3.123547
    109          1           0       -6.334068   -2.366870   -2.704581
    110          1           0       -8.316947   -3.788590   -1.053359
    111          1           0       -8.501600   -4.136211   -2.811854
    112          1           0       -9.145522   -1.875236   -3.225833
    113          1           0       -8.040290   -1.282542   -2.126596
    114          1           0       -9.278285   -1.826877   -0.272164
    115          1           0      -10.699211   -3.989861   -1.128813
    116          1           0      -11.344548   -2.909135   -2.383082
    117          1           0      -11.761076   -2.648273   -0.644766
    118          1           0      -11.433694   -0.409871   -2.029674
    119          1           0       -9.880805    0.250482   -1.731191
    120          1           0      -10.678995   -0.460412    0.882299
    121          1           0      -12.221980   -0.066361   -0.015338
    122          1           0       -9.931342    1.928473   -0.263828
    123          1           0      -10.512845    1.759267    1.281517
    124          1           0      -12.632280    1.977168   -0.960816
    125          1           0      -11.838999    3.545891   -2.081604
    126          1           0      -10.513618    3.846277   -1.017507
    127          1           0      -12.074085    4.594428   -0.789020
    128          1           0      -12.306047    3.787587    1.455098
    129          1           0      -12.514505    2.167236    1.831510
    130          1           0      -14.595321    1.997802    0.221988
    131          1           0      -14.405519    3.822149    0.354947
    132          1           0      -14.375540    1.967764    2.772523
    133          1           0      -15.813207    1.771957    1.912899
    134          1           0      -15.181293    4.774193    2.163176
    135          1           0      -13.784840    4.624544    3.820481
    136          1           0      -14.603623    3.236452    4.616438
    137          1           0      -15.245600    4.871020    4.751411
    138          1           0      -17.313507    4.758456    3.595515
    139          1           0      -17.459634    3.086468    2.973467
    140          1           0      -17.133991    4.418209    1.827122
 ---------------------------------------------------------------------

 SCF Done:  E(RPBE1PBE) =  -3005.32380875     A.U. after   16 cycles

 Excitation energies and oscillator strengths:

 Excited State   1:      Singlet-A      1.8854 eV  657.61 nm  f=0.3624  <S**2>=0.000
     245 -> 248       -0.17860
     246 -> 247        0.69004
 This state for optimization and/or second-order correction.
 Total Energy, E(TD-HF/TD-DFT) =  -3005.25452244
 Copying the excited state density for this state as the 1-particle RhoCI density.

 Excited State   2:      Singlet-A      2.1892 eV  566.35 nm  f=0.1157  <S**2>=0.000
     245 -> 247        0.65883
     246 -> 248        0.23597

 Excited State   3:      Singlet-A      2.7885 eV  444.62 nm  f=0.0053  <S**2>=0.000
     240 -> 247        0.13601
     241 -> 247        0.15530
     244 -> 247        0.64306

 Excited State   4:      Singlet-A      3.0119 eV  411.65 nm  f=0.0001  <S**2>=0.000
     240 -> 247       -0.13942
     243 -> 247        0.64910
     244 -> 247        0.11277

 Excited State   5:      Singlet-A      3.0404 eV  407.78 nm  f=0.0005  <S**2>=0.000
     240 -> 247        0.16260
     241 -> 247        0.60532
     242 -> 247        0.10463
     243 -> 247        0.12017
     244 -> 247       -0.19994
     246 -> 248       -0.11018

 The electronic state is 1-A.
 Alpha  occ. eigenvalues --  -46.92736 -19.26126 -19.25968 -19.22121 -19.20982
 Alpha  occ. eigenvalues --  -19.18833 -19.18744 -14.42176 -14.41056 -14.39501
 Alpha  occ. eigenvalues --  -14.38489 -10.37390 -10.37105 -10.31973 -10.31761
 Alpha  occ. eigenvalues --  -10.29544 -10.29141 -10.28841 -10.28617 -10.28529
 Alpha  occ. eigenvalues --  -10.28405 -10.28372 -10.28299 -10.27872 -10.26908
 Alpha  occ. eigenvalues --  -10.26520 -10.26456 -10.26414 -10.26221 -10.25888
 Alpha  occ. eigenvalues --  -10.25834 -10.25579 -10.25568 -10.25123 -10.25085
 Alpha  occ. eigenvalues --  -10.24898 -10.24865 -10.24623 -10.24488 -10.24252
 Alpha  occ. eigenvalues --  -10.24078 -10.23983 -10.23971 -10.23875 -10.23567
 Alpha  occ. eigenvalues --  -10.23359 -10.23280 -10.23271 -10.23222 -10.23216
 Alpha  occ. eigenvalues --  -10.22900 -10.22890 -10.22847 -10.22597 -10.22582
 Alpha  occ. eigenvalues --  -10.22502 -10.22478 -10.22404 -10.22259 -10.22171
 Alpha  occ. eigenvalues --  -10.22003 -10.21880 -10.21666 -10.21372 -10.21177
 Alpha  occ. eigenvalues --  -10.21070  -3.14721  -1.87567  -1.87124  -1.86910
 Alpha  occ. eigenvalues --   -1.11461  -1.11229  -1.05012  -1.04269  -1.02912
 Alpha  occ. eigenvalues --   -1.02657  -0.99647  -0.98587  -0.98197  -0.96444
 Alpha  occ. eigenvalues --   -0.87280  -0.84844  -0.84177  -0.83778  -0.82917
 Alpha  occ. eigenvalues --   -0.82602  -0.82568  -0.81994  -0.81633  -0.81334
 Alpha  occ. eigenvalues --   -0.80903  -0.79717  -0.78647  -0.77964  -0.77480
 Alpha  occ. eigenvalues --   -0.76764  -0.76300  -0.75625  -0.75109  -0.74999
 Alpha  occ. eigenvalues --   -0.73623  -0.72796  -0.72331  -0.71552  -0.70601
 Alpha  occ. eigenvalues --   -0.69906  -0.69715  -0.69392  -0.69209  -0.68121
 Alpha  occ. eigenvalues --   -0.67826  -0.67282  -0.66053  -0.64727  -0.64318
 Alpha  occ. eigenvalues --   -0.63097  -0.62448  -0.61874  -0.60471  -0.60356
 Alpha  occ. eigenvalues --   -0.59689  -0.59532  -0.59170  -0.58932  -0.58539
 Alpha  occ. eigenvalues --   -0.58261  -0.57424  -0.57090  -0.56970  -0.54768
 Alpha  occ. eigenvalues --   -0.54639  -0.54280  -0.53961  -0.53273  -0.52680
 Alpha  occ. eigenvalues --   -0.51892  -0.51168  -0.51145  -0.50702  -0.50210
 Alpha  occ. eigenvalues --   -0.49781  -0.49513  -0.49297  -0.49047  -0.48744
 Alpha  occ. eigenvalues --   -0.48577  -0.48037  -0.47725  -0.47492  -0.47453
 Alpha  occ. eigenvalues --   -0.47114  -0.46955  -0.46823  -0.46563  -0.46489
 Alpha  occ. eigenvalues --   -0.46117  -0.45976  -0.45779  -0.45557  -0.45396
 Alpha  occ. eigenvalues --   -0.45180  -0.44819  -0.44702  -0.44522  -0.44115
 Alpha  occ. eigenvalues --   -0.44004  -0.43878  -0.43635  -0.43426  -0.43260
 Alpha  occ. eigenvalues --   -0.43200  -0.42889  -0.42801  -0.42707  -0.42442
 Alpha  occ. eigenvalues --   -0.42302  -0.41949  -0.41697  -0.41487  -0.41286
 Alpha  occ. eigenvalues --   -0.41232  -0.40957  -0.40927  -0.40780  -0.40505
 Alpha  occ. eigenvalues --   -0.40383  -0.39992  -0.39728  -0.39654  -0.39356
 Alpha  occ. eigenvalues --   -0.39225  -0.39184  -0.39130  -0.38949  -0.38858
 Alpha  occ. eigenvalues --   -0.38733  -0.38581  -0.38560  -0.38316  -0.38181
 Alpha  occ. eigenvalues --   -0.38133  -0.37931  -0.37914  -0.37256  -0.37137
 Alpha  occ. eigenvalues --   -0.37069  -0.36787  -0.36514  -0.35979  -0.35954
 Alpha  occ. eigenvalues --   -0.35893  -0.35822  -0.35117  -0.35036  -0.34676
 Alpha  occ. eigenvalues --   -0.34580  -0.34321  -0.34068  -0.33724  -0.33556
 Alpha  occ. eigenvalues --   -0.32978  -0.32937  -0.32880  -0.32505  -0.32311
 Alpha  occ. eigenvalues --   -0.32073  -0.32058  -0.31976  -0.31758  -0.31227
 Alpha  occ. eigenvalues --   -0.31055  -0.30728  -0.29893  -0.29724  -0.29597
 Alpha  occ. eigenvalues --   -0.29474  -0.28570  -0.27657  -0.27252  -0.26003
 Alpha  occ. eigenvalues --   -0.25677  -0.25549  -0.25435  -0.24824  -0.20991
 Alpha  occ. eigenvalues --   -0.19159
 Alpha virt. eigenvalues --   -0.11355  -0.05370  -0.04358  -0.02201  -0.00915
 Alpha virt. eigenvalues --   -0.00719  -0.00371   0.01119   0.02154   0.02887
 Alpha virt. eigenvalues --    0.04029   0.04649   0.05300   0.05831   0.05888

 Mulliken charges:
               1
     1  Mg   0.962610
     2  C    0.076465
     3  C   -0.076012
     4  C   -0.040866
     5  C   -0.059383
     6  N   -0.386549
     7  C    0.004494
     8  C   -0.110144
     9  C   -0.112292
    10  C    0.097333
    11  C    0.013687
    12  C    0.015392
    13  C   -0.064790
    14  C    0.236750
    15  O   -0.217287
    16  O   -0.386819
    17  N   -0.497721
    18  C    0.199895
    19  C   -0.148011
    20  C   -0.088902
    21  C    0.159731
    22  C    0.051008
    23  C    0.046896
    24  O   -0.271964
    25  C   -0.016182
    26  N   -0.365504
    27  C    0.086810
    28  C   -0.173340
    29  C   -0.074802
    30  C    0.071136
    31  C    0.042573
    32  C   -0.039720
    33  C   -0.079891
    34  N   -0.467579
    35  C    0.086253
    36  C   -0.226268
    37  C   -0.006365
    38  C    0.139456
    39  C    0.085523
    40  C    0.128907
    41  O   -0.215041
    42  C   -0.142866
    43  C    0.289689
    44  O   -0.256167
    45  O   -0.360744
    46  C    0.120804
    47  C    0.246863
    48  C   -0.140686
    49  C   -0.199182
    50  C    0.027955
    51  C    0.006244
    52  C   -0.051209
    53  C   -0.039874
    54  C   -0.224590
    55  C   -0.005998
    56  C   -0.005982
    57  C   -0.033186
    58  C    0.038119
    59  C   -0.223762
    60  C   -0.017208
    61  C   -0.011483
    62  C   -0.041432
    63  C   -0.016090
    64  C   -0.238837
    65  C   -0.025950
    66  C   -0.007135
    67  H   -0.000276
    68  H    0.032884
    69  H   -0.004705
    70  H    0.074238
    71  H    0.050935
    72  H    0.055543
    73  H    0.036069
    74  H    0.036209
    75  H    0.043467
    76  H    0.046538
    77  H    0.080147
    78  H    0.052564
    79  H    0.044072
    80  H    0.048546
    81  H    0.048859
    82  H    0.050304
    83  H    0.062661
    84  H    0.063594
    85  H    0.048689
    86  H    0.039533
    87  H    0.059726
    88  H    0.034981
    89  H    0.046815
    90  H    0.043935
    91  H    0.043509
    92  H    0.049824
    93  H    0.050526
    94  H    0.059959
    95  H    0.022568
    96  H    0.070840
    97  H    0.054537
    98  H    0.091555
    99  H    0.057169
   100  H    0.054104
   101  H    0.043039
   102  H    0.054740
   103  H    0.044375
   104  H    0.025036
   105  H    0.051605
   106  H    0.049384
   107  H    0.037615
   108  H    0.039345
   109  H    0.025338
   110  H    0.048813
   111  H    0.038421
   112  H    0.019107
   113  H    0.020867
   114  H    0.037344
   115  H    0.041286
   116  H    0.038475
   117  H    0.035800
   118  H    0.024580
   119  H    0.018936
   120  H    0.032110
   121  H    0.043029
   122  H    0.008527
   123  H    0.021934
   124  H    0.037417
   125  H    0.020676
   126  H    0.020439
   127  H    0.029551
   128  H    0.030698
   129  H    0.007321
   130  H    0.027713
   131  H    0.036852
   132  H    0.024532
   133  H    0.027914
   134  H    0.030744
   135  H    0.031109
   136  H    0.032362
   137  H    0.026855
   138  H    0.033544
   139  H    0.033190
   140  H    0.032678
 Sum of Mulliken charges =  -0.00000

 Dipole moment (field-independent basis, Debye):
    X=             -3.0705    Y=              3.6564    Z=             -2.7917  Tot=              5.5309
 Quadrupole moment (field-independent basis, Debye-Ang):
   XX=           -390.8691   YY=           -425.4974   ZZ=           -394.9496
   XY=             22.5259   XZ=             22.6335   YZ=              4.6879

 Normal termination of Gaussian 16 at Wed Apr 27 12:46:31 2022.
