 Gaussian 16, Revision A.03,
 Gaussian 16:  ES64L-G16RevA.03 25-Dec-2016

 --------------------------------
 #p wB97XD/Def2SVP td=(nstates=5)
 --------------------------------

 -----------------------------------------------------
 step_1201_chromophore_10 TDDFT with wB97XD functional
 -----------------------------------------------------
 Symbolic Z-matrix:
 Charge =  0 Multiplicity = 1

                         Standard orientation:
 ---------------------------------------------------------------------
 Center     Atomic      Atomic             Coordinates (Angstroms)
 Number     Number       Type             X           Y           Z
 ---------------------------------------------------------------------
      1         12           0        5.881719    0.785529    0.157247
      2          6           0        4.170755   -2.113753    0.275513
      3          6           0        3.510612    1.957879   -2.142231
      4          6           0        7.778851    3.524319   -0.311451
      5          6           0        8.587798   -0.709220    1.837977
      6          7           0        4.071937   -0.048305   -0.822930
      7          6           0        3.420923   -1.215406   -0.448065
      8          6           0        2.094743   -1.413771   -1.204908
      9          6           0        2.058733   -0.223975   -2.192797
     10          6           0        3.329043    0.601333   -1.748703
     11          6           0        2.049373   -0.733775   -3.631408
     12          6           0        0.904093   -1.433454   -0.147543
     13          6           0        0.125752   -2.759267    0.031638
     14          6           0       -1.326590   -2.774566    0.658016
     15          8           0       -1.462785   -3.091461    1.807025
     16          8           0       -2.288414   -2.482242   -0.361941
     17          7           0        5.522076    2.585004   -0.933918
     18          6           0        4.498073    2.866937   -1.803367
     19          6           0        4.706495    4.215673   -2.379804
     20          6           0        5.807286    4.750551   -1.576756
     21          6           0        6.483631    3.620789   -0.931200
     22          6           0        3.980582    4.944546   -3.535078
     23          6           0        6.348793    6.157897   -1.553988
     24          8           0        7.458617    6.474333   -1.058777
     25          6           0        5.587609    7.253938   -2.180200
     26          7           0        7.941728    1.284899    0.643495
     27          6           0        8.449586    2.467689    0.323058
     28          6           0        9.841964    2.640535    0.948053
     29          6           0        9.983044    1.449465    1.953735
     30          6           0        8.765598    0.602910    1.488879
     31          6           0       10.982247    2.722947   -0.050470
     32          6           0       10.033280    1.891941    3.461957
     33          6           0        8.842974    2.724700    4.100150
     34          7           0        6.384776   -1.028020    0.993729
     35          6           0        7.443113   -1.553595    1.637990
     36          6           0        7.152938   -2.853430    2.102360
     37          6           0        5.928885   -3.126455    1.601040
     38          6           0        5.457492   -2.000818    0.881599
     39          6           0        8.030520   -3.654300    2.952138
     40          6           0        4.836131   -4.124173    1.534676
     41          8           0        4.781794   -5.249866    2.014950
     42          6           0        3.731163   -3.512553    0.704438
     43          6           0        3.435552   -4.545269   -0.371665
     44          8           0        3.979190   -4.685082   -1.468440
     45          8           0        2.245024   -5.193237   -0.030199
     46          6           0        1.634303   -5.736597   -1.221373
     47          6           0       -3.520575   -3.031464    0.123638
     48          6           0       -4.578079   -2.912102   -0.893572
     49          6           0       -5.577851   -3.744619   -1.164481
     50          6           0       -5.943977   -5.127698   -0.543970
     51          6           0       -6.547740   -3.361959   -2.315433
     52          6           0       -8.074438   -3.465934   -2.065689
     53          6           0       -8.777391   -2.079131   -2.220533
     54          6           0       -9.897107   -1.839311   -1.169281
     55          6           0      -10.994701   -2.964484   -1.352869
     56          6           0      -10.610427   -0.443625   -1.314819
     57          6           0      -11.139925    0.057356    0.040833
     58          6           0      -10.816144    1.558911    0.254322
     59          6           0      -11.944318    2.386410   -0.220818
     60          6           0      -11.585734    3.649072   -1.026629
     61          6           0      -12.709829    2.871696    1.023045
     62          6           0      -14.226505    2.844236    0.802166
     63          6           0      -15.020975    2.501926    2.075322
     64          6           0      -15.475269    3.899724    2.744554
     65          6           0      -14.742682    4.174584    4.079025
     66          6           0      -16.970534    4.052049    2.840218
     67          1           0        2.732938    2.297494   -2.829945
     68          1           0        8.435760    4.378193   -0.485957
     69          1           0        9.364518   -1.211880    2.417647
     70          1           0        2.181750   -2.405171   -1.648907
     71          1           0        1.121426    0.318445   -2.071124
     72          1           0        2.210937   -1.810037   -3.701813
     73          1           0        2.776383   -0.204361   -4.246358
     74          1           0        1.143874   -0.448980   -4.166988
     75          1           0        0.155680   -0.644398   -0.227095
     76          1           0        1.327875   -1.263567    0.842443
     77          1           0        0.717493   -3.362780    0.719642
     78          1           0        0.132908   -3.191638   -0.968523
     79          1           0        3.336980    5.753908   -3.192640
     80          1           0        3.305835    4.374363   -4.172813
     81          1           0        4.632747    5.539781   -4.174597
     82          1           0        6.055870    8.220281   -1.992895
     83          1           0        4.631934    7.203837   -1.657819
     84          1           0        5.587146    7.187960   -3.268772
     85          1           0        9.791098    3.576122    1.505788
     86          1           0       10.865326    0.857490    1.709004
     87          1           0       10.751750    2.110680   -0.922408
     88          1           0       11.839260    2.428059    0.555061
     89          1           0       11.215518    3.759455   -0.293242
     90          1           0       10.929408    2.508869    3.409611
     91          1           0       10.191063    1.042892    4.128073
     92          1           0        9.236019    3.731744    4.237991
     93          1           0        8.547832    2.314500    5.065311
     94          1           0        7.981879    2.726707    3.430947
     95          1           0        8.779306   -3.023198    3.431103
     96          1           0        8.481995   -4.524436    2.476468
     97          1           0        7.396466   -3.950306    3.788254
     98          1           0        2.857786   -3.591471    1.351268
     99          1           0        1.750092   -5.236067   -2.183181
    100          1           0        0.608065   -6.059416   -1.052177
    101          1           0        2.127671   -6.682087   -1.447032
    102          1           0       -3.839812   -2.432918    0.976206
    103          1           0       -3.333798   -4.057592    0.442537
    104          1           0       -4.529888   -2.015253   -1.511579
    105          1           0       -5.932673   -5.908550   -1.304439
    106          1           0       -6.949718   -5.011716   -0.139618
    107          1           0       -5.290236   -5.462282    0.261778
    108          1           0       -6.252161   -4.031083   -3.123547
    109          1           0       -6.334068   -2.366870   -2.704581
    110          1           0       -8.316947   -3.788590   -1.053359
    111          1           0       -8.501600   -4.136211   -2.811854
    112          1           0       -9.145522   -1.875236   -3.225833
    113          1           0       -8.040290   -1.282542   -2.126596
    114          1           0       -9.278285   -1.826877   -0.272164
    115          1           0      -10.699211   -3.989861   -1.128813
    116          1           0      -11.344548   -2.909135   -2.383082
    117          1           0      -11.761076   -2.648273   -0.644766
    118          1           0      -11.433694   -0.409871   -2.029674
    119          1           0       -9.880805    0.250482   -1.731191
    120          1           0      -10.678995   -0.460412    0.882299
    121          1           0      -12.221980   -0.066361   -0.015338
    122          1           0       -9.931342    1.928473   -0.263828
    123          1           0      -10.512845    1.759267    1.281517
    124          1           0      -12.632280    1.977168   -0.960816
    125          1           0      -11.838999    3.545891   -2.081604
    126          1           0      -10.513618    3.846277   -1.017507
    127          1           0      -12.074085    4.594428   -0.789020
    128          1           0      -12.306047    3.787587    1.455098
    129          1           0      -12.514505    2.167236    1.831510
    130          1           0      -14.595321    1.997802    0.221988
    131          1           0      -14.405519    3.822149    0.354947
    132          1           0      -14.375540    1.967764    2.772523
    133          1           0      -15.813207    1.771957    1.912899
    134          1           0      -15.181293    4.774193    2.163176
    135          1           0      -13.784840    4.624544    3.820481
    136          1           0      -14.603623    3.236452    4.616438
    137          1           0      -15.245600    4.871020    4.751411
    138          1           0      -17.313507    4.758456    3.595515
    139          1           0      -17.459634    3.086468    2.973467
    140          1           0      -17.133991    4.418209    1.827122
 ---------------------------------------------------------------------

 SCF Done:  E(RwB97XD) =  -3007.83298325     A.U. after   19 cycles

 Excitation energies and oscillator strengths:

 Excited State   1:      Singlet-A      1.7286 eV  717.26 nm  f=0.3736  <S**2>=0.000
     245 -> 248       -0.18675
     246 -> 247        0.68185
     245 <- 248       -0.11193
 This state for optimization and/or second-order correction.
 Total Energy, E(TD-HF/TD-DFT) =  -3007.76945905
 Copying the excited state density for this state as the 1-particle RhoCI density.

 Excited State   2:      Singlet-A      2.1448 eV  578.06 nm  f=0.1162  <S**2>=0.000
     245 -> 247        0.64500
     246 -> 248        0.26470

 Excited State   3:      Singlet-A      3.1743 eV  390.59 nm  f=0.0023  <S**2>=0.000
     240 -> 249        0.13807
     243 -> 247       -0.34213
     243 -> 249       -0.10925
     244 -> 247        0.54143
     246 -> 248        0.13497

 Excited State   4:      Singlet-A      3.3916 eV  365.57 nm  f=0.0330  <S**2>=0.000
     239 -> 247        0.13239
     239 -> 249        0.11952
     240 -> 247        0.48519
     240 -> 249        0.25653
     244 -> 247       -0.20130
     246 -> 248       -0.21030

 Excited State   5:      Singlet-A      3.5956 eV  344.82 nm  f=0.3186  <S**2>=0.000
     243 -> 247       -0.34380
     244 -> 247       -0.32441
     245 -> 247       -0.18419
     246 -> 248        0.46128

 The electronic state is 1-A.
 Alpha  occ. eigenvalues --  -46.95661 -19.30594 -19.30507 -19.26763 -19.25586
 Alpha  occ. eigenvalues --  -19.23877 -19.23372 -14.47336 -14.46083 -14.44569
 Alpha  occ. eigenvalues --  -14.43218 -10.44135 -10.43823 -10.39133 -10.38348
 Alpha  occ. eigenvalues --  -10.36160 -10.35918 -10.35348 -10.35330 -10.35108
 Alpha  occ. eigenvalues --  -10.34966 -10.34875 -10.34825 -10.33845 -10.33130
 Alpha  occ. eigenvalues --  -10.32871 -10.32665 -10.32484 -10.32426 -10.32277
 Alpha  occ. eigenvalues --  -10.32259 -10.32165 -10.31690 -10.31491 -10.31463
 Alpha  occ. eigenvalues --  -10.31378 -10.31120 -10.30887 -10.30823 -10.30729
 Alpha  occ. eigenvalues --  -10.30324 -10.30252 -10.30136 -10.30072 -10.30038
 Alpha  occ. eigenvalues --  -10.29998 -10.29730 -10.29663 -10.29636 -10.29614
 Alpha  occ. eigenvalues --  -10.29303 -10.29164 -10.28971 -10.28947 -10.28937
 Alpha  occ. eigenvalues --  -10.28864 -10.28850 -10.28756 -10.28620 -10.28368
 Alpha  occ. eigenvalues --  -10.28230 -10.28102 -10.28030 -10.27793 -10.27612
 Alpha  occ. eigenvalues --  -10.27508  -3.21520  -1.95113  -1.94668  -1.94454
 Alpha  occ. eigenvalues --   -1.18806  -1.18531  -1.12317  -1.11498  -1.10733
 Alpha  occ. eigenvalues --   -1.09932  -1.06755  -1.05924  -1.05556  -1.04119
 Alpha  occ. eigenvalues --   -0.94724  -0.92498  -0.91848  -0.91406  -0.90470
 Alpha  occ. eigenvalues --   -0.90272  -0.90236  -0.89505  -0.89295  -0.88938
 Alpha  occ. eigenvalues --   -0.88730  -0.87396  -0.86312  -0.85501  -0.85118
 Alpha  occ. eigenvalues --   -0.84417  -0.84234  -0.83260  -0.82724  -0.82606
 Alpha  occ. eigenvalues --   -0.81283  -0.80727  -0.79903  -0.79091  -0.78099
 Alpha  occ. eigenvalues --   -0.77562  -0.77316  -0.77098  -0.76895  -0.75782
 Alpha  occ. eigenvalues --   -0.75313  -0.74887  -0.73590  -0.72366  -0.71833
 Alpha  occ. eigenvalues --   -0.70665  -0.70056  -0.69484  -0.68038  -0.67983
 Alpha  occ. eigenvalues --   -0.67127  -0.66896  -0.66824  -0.66370  -0.66025
 Alpha  occ. eigenvalues --   -0.65913  -0.65094  -0.64742  -0.64263  -0.62449
 Alpha  occ. eigenvalues --   -0.62095  -0.61659  -0.61381  -0.60563  -0.60113
 Alpha  occ. eigenvalues --   -0.59233  -0.58630  -0.58464  -0.58186  -0.57522
 Alpha  occ. eigenvalues --   -0.57291  -0.56864  -0.56681  -0.56388  -0.56124
 Alpha  occ. eigenvalues --   -0.56031  -0.55461  -0.55382  -0.54957  -0.54816
 Alpha  occ. eigenvalues --   -0.54484  -0.54312  -0.54125  -0.54047  -0.53837
 Alpha  occ. eigenvalues --   -0.53425  -0.53295  -0.53162  -0.52885  -0.52596
 Alpha  occ. eigenvalues --   -0.52526  -0.52204  -0.52065  -0.51842  -0.51617
 Alpha  occ. eigenvalues --   -0.51316  -0.51248  -0.50905  -0.50732  -0.50552
 Alpha  occ. eigenvalues --   -0.50516  -0.50359  -0.50145  -0.50069  -0.49708
 Alpha  occ. eigenvalues --   -0.49577  -0.49177  -0.48945  -0.48740  -0.48611
 Alpha  occ. eigenvalues --   -0.48512  -0.48219  -0.48169  -0.48034  -0.47662
 Alpha  occ. eigenvalues --   -0.47464  -0.47165  -0.46892  -0.46742  -0.46422
 Alpha  occ. eigenvalues --   -0.46375  -0.46299  -0.46235  -0.46122  -0.45935
 Alpha  occ. eigenvalues --   -0.45780  -0.45746  -0.45671  -0.45494  -0.45403
 Alpha  occ. eigenvalues --   -0.45212  -0.45064  -0.45039  -0.44375  -0.44242
 Alpha  occ. eigenvalues --   -0.44090  -0.43852  -0.43513  -0.43385  -0.43043
 Alpha  occ. eigenvalues --   -0.42988  -0.42838  -0.42230  -0.42022  -0.41715
 Alpha  occ. eigenvalues --   -0.41662  -0.41221  -0.41100  -0.40782  -0.40509
 Alpha  occ. eigenvalues --   -0.40020  -0.39956  -0.39842  -0.39567  -0.39369
 Alpha  occ. eigenvalues --   -0.39107  -0.39103  -0.39004  -0.38710  -0.38189
 Alpha  occ. eigenvalues --   -0.38033  -0.37754  -0.36847  -0.36716  -0.36487
 Alpha  occ. eigenvalues --   -0.36252  -0.35202  -0.34529  -0.33898  -0.33083
 Alpha  occ. eigenvalues --   -0.32449  -0.32293  -0.32010  -0.31805  -0.26034
 Alpha  occ. eigenvalues --   -0.23396
 Alpha virt. eigenvalues --   -0.07172   0.00093   0.01779   0.04399   0.05449
 Alpha virt. eigenvalues --    0.05975   0.06296   0.07874   0.08890   0.09297
 Alpha virt. eigenvalues --    0.10329   0.11594   0.11933   0.12598   0.12664

 Mulliken charges:
               1
     1  Mg   0.952994
     2  C    0.077148
     3  C   -0.096800
     4  C   -0.060657
     5  C   -0.071525
     6  N   -0.353614
     7  C   -0.029690
     8  C   -0.072434
     9  C   -0.088955
    10  C    0.083124
    11  C    0.021635
    12  C    0.022494
    13  C   -0.037108
    14  C    0.229790
    15  O   -0.216815
    16  O   -0.388292
    17  N   -0.471508
    18  C    0.200974
    19  C   -0.138508
    20  C   -0.081445
    21  C    0.156445
    22  C    0.062999
    23  C    0.044992
    24  O   -0.263864
    25  C   -0.003971
    26  N   -0.329306
    27  C    0.074013
    28  C   -0.146659
    29  C   -0.047358
    30  C    0.049941
    31  C    0.051467
    32  C   -0.025388
    33  C   -0.061417
    34  N   -0.427794
    35  C    0.070843
    36  C   -0.218595
    37  C    0.000186
    38  C    0.118551
    39  C    0.095584
    40  C    0.105042
    41  O   -0.207109
    42  C   -0.103631
    43  C    0.267433
    44  O   -0.250765
    45  O   -0.359378
    46  C    0.134381
    47  C    0.262037
    48  C   -0.146379
    49  C   -0.189256
    50  C    0.042083
    51  C    0.024992
    52  C   -0.030468
    53  C   -0.028512
    54  C   -0.189225
    55  C    0.006691
    56  C    0.004654
    57  C   -0.015154
    58  C    0.056695
    59  C   -0.195211
    60  C   -0.008791
    61  C    0.004415
    62  C   -0.022036
    63  C   -0.002500
    64  C   -0.210693
    65  C   -0.012324
    66  C    0.005561
    67  H   -0.005347
    68  H    0.028126
    69  H   -0.012155
    70  H    0.051198
    71  H    0.042778
    72  H    0.052303
    73  H    0.029474
    74  H    0.031447
    75  H    0.036263
    76  H    0.037474
    77  H    0.067170
    78  H    0.042522
    79  H    0.040030
    80  H    0.047419
    81  H    0.043916
    82  H    0.050606
    83  H    0.056804
    84  H    0.059267
    85  H    0.037590
    86  H    0.030224
    87  H    0.055120
    88  H    0.028395
    89  H    0.041717
    90  H    0.033441
    91  H    0.036851
    92  H    0.043672
    93  H    0.046100
    94  H    0.048777
    95  H    0.015054
    96  H    0.065517
    97  H    0.047717
    98  H    0.082461
    99  H    0.052400
   100  H    0.051152
   101  H    0.038826
   102  H    0.049254
   103  H    0.036876
   104  H    0.022637
   105  H    0.046664
   106  H    0.043145
   107  H    0.032698
   108  H    0.031377
   109  H    0.016035
   110  H    0.032075
   111  H    0.031714
   112  H    0.010634
   113  H    0.009780
   114  H    0.024806
   115  H    0.036314
   116  H    0.031303
   117  H    0.027835
   118  H    0.017056
   119  H    0.008439
   120  H    0.024594
   121  H    0.031994
   122  H   -0.001977
   123  H    0.014845
   124  H    0.024080
   125  H    0.015237
   126  H    0.013948
   127  H    0.023603
   128  H    0.022649
   129  H   -0.007699
   130  H    0.019757
   131  H    0.026284
   132  H    0.014025
   133  H    0.021904
   134  H    0.018342
   135  H    0.024217
   136  H    0.025403
   137  H    0.021387
   138  H    0.028468
   139  H    0.026591
   140  H    0.025371
 Sum of Mulliken charges =  -0.00000

 Dipole moment (field-independent basis, Debye):
    X=             -3.3291    Y=              4.5237    Z=             -3.2975  Tot=              6.5131
 Quadrupole moment (field-independent basis, Debye-Ang):
   XX=           -393.9171   YY=           -422.5356   ZZ=           -394.4857
   XY=             27.2360   XZ=             19.2051   YZ=              3.7979

 Normal termination of Gaussian 16 at Wed Apr 27 13:11:46 2022.
