 Gaussian 16, Revision A.03,
 Gaussian 16:  ES64L-G16RevA.03 25-Dec-2016

 --------------------
 #p ZINDO=(nstates=5)
 --------------------

 ------------------------------
 step_1201_chromophore_10 ZINDO
 ------------------------------
 Symbolic Z-matrix:
 Charge =  0 Multiplicity = 1

                         Standard orientation:
 ---------------------------------------------------------------------
 Center     Atomic      Atomic             Coordinates (Angstroms)
 Number     Number       Type             X           Y           Z
 ---------------------------------------------------------------------
      1         12           0        5.881719    0.785529    0.157247
      2          6           0        4.170755   -2.113753    0.275513
      3          6           0        3.510612    1.957879   -2.142231
      4          6           0        7.778851    3.524319   -0.311451
      5          6           0        8.587798   -0.709220    1.837977
      6          7           0        4.071937   -0.048305   -0.822930
      7          6           0        3.420923   -1.215406   -0.448065
      8          6           0        2.094743   -1.413771   -1.204908
      9          6           0        2.058733   -0.223975   -2.192797
     10          6           0        3.329043    0.601333   -1.748703
     11          6           0        2.049373   -0.733775   -3.631408
     12          6           0        0.904093   -1.433454   -0.147543
     13          6           0        0.125752   -2.759267    0.031638
     14          6           0       -1.326590   -2.774566    0.658016
     15          8           0       -1.462785   -3.091461    1.807025
     16          8           0       -2.288414   -2.482242   -0.361941
     17          7           0        5.522076    2.585004   -0.933918
     18          6           0        4.498073    2.866937   -1.803367
     19          6           0        4.706495    4.215673   -2.379804
     20          6           0        5.807286    4.750551   -1.576756
     21          6           0        6.483631    3.620789   -0.931200
     22          6           0        3.980582    4.944546   -3.535078
     23          6           0        6.348793    6.157897   -1.553988
     24          8           0        7.458617    6.474333   -1.058777
     25          6           0        5.587609    7.253938   -2.180200
     26          7           0        7.941728    1.284899    0.643495
     27          6           0        8.449586    2.467689    0.323058
     28          6           0        9.841964    2.640535    0.948053
     29          6           0        9.983044    1.449465    1.953735
     30          6           0        8.765598    0.602910    1.488879
     31          6           0       10.982247    2.722947   -0.050470
     32          6           0       10.033280    1.891941    3.461957
     33          6           0        8.842974    2.724700    4.100150
     34          7           0        6.384776   -1.028020    0.993729
     35          6           0        7.443113   -1.553595    1.637990
     36          6           0        7.152938   -2.853430    2.102360
     37          6           0        5.928885   -3.126455    1.601040
     38          6           0        5.457492   -2.000818    0.881599
     39          6           0        8.030520   -3.654300    2.952138
     40          6           0        4.836131   -4.124173    1.534676
     41          8           0        4.781794   -5.249866    2.014950
     42          6           0        3.731163   -3.512553    0.704438
     43          6           0        3.435552   -4.545269   -0.371665
     44          8           0        3.979190   -4.685082   -1.468440
     45          8           0        2.245024   -5.193237   -0.030199
     46          6           0        1.634303   -5.736597   -1.221373
     47          6           0       -3.520575   -3.031464    0.123638
     48          6           0       -4.578079   -2.912102   -0.893572
     49          6           0       -5.577851   -3.744619   -1.164481
     50          6           0       -5.943977   -5.127698   -0.543970
     51          6           0       -6.547740   -3.361959   -2.315433
     52          6           0       -8.074438   -3.465934   -2.065689
     53          6           0       -8.777391   -2.079131   -2.220533
     54          6           0       -9.897107   -1.839311   -1.169281
     55          6           0      -10.994701   -2.964484   -1.352869
     56          6           0      -10.610427   -0.443625   -1.314819
     57          6           0      -11.139925    0.057356    0.040833
     58          6           0      -10.816144    1.558911    0.254322
     59          6           0      -11.944318    2.386410   -0.220818
     60          6           0      -11.585734    3.649072   -1.026629
     61          6           0      -12.709829    2.871696    1.023045
     62          6           0      -14.226505    2.844236    0.802166
     63          6           0      -15.020975    2.501926    2.075322
     64          6           0      -15.475269    3.899724    2.744554
     65          6           0      -14.742682    4.174584    4.079025
     66          6           0      -16.970534    4.052049    2.840218
     67          1           0        2.732938    2.297494   -2.829945
     68          1           0        8.435760    4.378193   -0.485957
     69          1           0        9.364518   -1.211880    2.417647
     70          1           0        2.181750   -2.405171   -1.648907
     71          1           0        1.121426    0.318445   -2.071124
     72          1           0        2.210937   -1.810037   -3.701813
     73          1           0        2.776383   -0.204361   -4.246358
     74          1           0        1.143874   -0.448980   -4.166988
     75          1           0        0.155680   -0.644398   -0.227095
     76          1           0        1.327875   -1.263567    0.842443
     77          1           0        0.717493   -3.362780    0.719642
     78          1           0        0.132908   -3.191638   -0.968523
     79          1           0        3.336980    5.753908   -3.192640
     80          1           0        3.305835    4.374363   -4.172813
     81          1           0        4.632747    5.539781   -4.174597
     82          1           0        6.055870    8.220281   -1.992895
     83          1           0        4.631934    7.203837   -1.657819
     84          1           0        5.587146    7.187960   -3.268772
     85          1           0        9.791098    3.576122    1.505788
     86          1           0       10.865326    0.857490    1.709004
     87          1           0       10.751750    2.110680   -0.922408
     88          1           0       11.839260    2.428059    0.555061
     89          1           0       11.215518    3.759455   -0.293242
     90          1           0       10.929408    2.508869    3.409611
     91          1           0       10.191063    1.042892    4.128073
     92          1           0        9.236019    3.731744    4.237991
     93          1           0        8.547832    2.314500    5.065311
     94          1           0        7.981879    2.726707    3.430947
     95          1           0        8.779306   -3.023198    3.431103
     96          1           0        8.481995   -4.524436    2.476468
     97          1           0        7.396466   -3.950306    3.788254
     98          1           0        2.857786   -3.591471    1.351268
     99          1           0        1.750092   -5.236067   -2.183181
    100          1           0        0.608065   -6.059416   -1.052177
    101          1           0        2.127671   -6.682087   -1.447032
    102          1           0       -3.839812   -2.432918    0.976206
    103          1           0       -3.333798   -4.057592    0.442537
    104          1           0       -4.529888   -2.015253   -1.511579
    105          1           0       -5.932673   -5.908550   -1.304439
    106          1           0       -6.949718   -5.011716   -0.139618
    107          1           0       -5.290236   -5.462282    0.261778
    108          1           0       -6.252161   -4.031083   -3.123547
    109          1           0       -6.334068   -2.366870   -2.704581
    110          1           0       -8.316947   -3.788590   -1.053359
    111          1           0       -8.501600   -4.136211   -2.811854
    112          1           0       -9.145522   -1.875236   -3.225833
    113          1           0       -8.040290   -1.282542   -2.126596
    114          1           0       -9.278285   -1.826877   -0.272164
    115          1           0      -10.699211   -3.989861   -1.128813
    116          1           0      -11.344548   -2.909135   -2.383082
    117          1           0      -11.761076   -2.648273   -0.644766
    118          1           0      -11.433694   -0.409871   -2.029674
    119          1           0       -9.880805    0.250482   -1.731191
    120          1           0      -10.678995   -0.460412    0.882299
    121          1           0      -12.221980   -0.066361   -0.015338
    122          1           0       -9.931342    1.928473   -0.263828
    123          1           0      -10.512845    1.759267    1.281517
    124          1           0      -12.632280    1.977168   -0.960816
    125          1           0      -11.838999    3.545891   -2.081604
    126          1           0      -10.513618    3.846277   -1.017507
    127          1           0      -12.074085    4.594428   -0.789020
    128          1           0      -12.306047    3.787587    1.455098
    129          1           0      -12.514505    2.167236    1.831510
    130          1           0      -14.595321    1.997802    0.221988
    131          1           0      -14.405519    3.822149    0.354947
    132          1           0      -14.375540    1.967764    2.772523
    133          1           0      -15.813207    1.771957    1.912899
    134          1           0      -15.181293    4.774193    2.163176
    135          1           0      -13.784840    4.624544    3.820481
    136          1           0      -14.603623    3.236452    4.616438
    137          1           0      -15.245600    4.871020    4.751411
    138          1           0      -17.313507    4.758456    3.595515
    139          1           0      -17.459634    3.086468    2.973467
    140          1           0      -17.133991    4.418209    1.827122
 ---------------------------------------------------------------------

 SCF Done:  E(RZINDO/S) =  -474.310594383     A.U. after   20 cycles

 Excitation energies and oscillator strengths:

 Excited State   1:      Singlet-A      1.3330 eV  930.12 nm  f=0.5544  <S**2>=0.000
     175 ->178        -0.17661
     176 ->177         0.66770
 This state for optimization and/or second-order correction.
 Total Energy, E(CIS/TDA) =  -474.261607898
 Copying the excited state density for this state as the 1-particle RhoCI density.

 Excited State   2:      Singlet-A      1.9335 eV  641.25 nm  f=0.0408  <S**2>=0.000
     175 ->177         0.54532
     176 ->178         0.41832

 Excited State   3:      Singlet-A      2.7991 eV  442.94 nm  f=0.0032  <S**2>=0.000
     167 ->179         0.12755
     168 ->177         0.28041
     168 ->179         0.39932
     168 ->180        -0.13491
     168 ->184         0.15316
     168 ->185         0.19084
     168 ->188        -0.10007
     171 ->177         0.20778
     171 ->179         0.11609

 Excited State   4:      Singlet-A      2.9805 eV  415.98 nm  f=0.8412  <S**2>=0.000
     171 ->177         0.19831
     175 ->177        -0.34746
     176 ->178         0.49380
     176 ->179        -0.17544
     176 ->180        -0.14589

 Excited State   5:      Singlet-A      3.0356 eV  408.43 nm  f=0.0094  <S**2>=0.000
     169 ->180         0.11450
     170 ->177         0.25636
     170 ->178         0.17811
     170 ->179        -0.21267
     170 ->180        -0.36131
     170 ->183         0.13876
     170 ->184         0.17218
     170 ->185        -0.20434
     170 ->187         0.11342
     170 ->188        -0.12770

 The electronic state is 1-A.
 Alpha  occ. eigenvalues --   -1.86174  -1.80729  -1.79055  -1.73760  -1.72900
 Alpha  occ. eigenvalues --   -1.70685  -1.67246  -1.60946  -1.59155  -1.58565
 Alpha  occ. eigenvalues --   -1.55762  -1.52559  -1.48887  -1.47476  -1.46104
 Alpha  occ. eigenvalues --   -1.44426  -1.43245  -1.39901  -1.39016  -1.37517
 Alpha  occ. eigenvalues --   -1.36014  -1.34820  -1.33267  -1.32352  -1.29822
 Alpha  occ. eigenvalues --   -1.26929  -1.24385  -1.21514  -1.20591  -1.18170
 Alpha  occ. eigenvalues --   -1.17624  -1.16260  -1.15216  -1.14270  -1.13076
 Alpha  occ. eigenvalues --   -1.12529  -1.11722  -1.09568  -1.05247  -1.04097
 Alpha  occ. eigenvalues --   -1.03639  -1.02129  -0.99362  -0.98271  -0.97133
 Alpha  occ. eigenvalues --   -0.95362  -0.94341  -0.93680  -0.92752  -0.91723
 Alpha  occ. eigenvalues --   -0.90216  -0.89745  -0.88974  -0.88689  -0.87972
 Alpha  occ. eigenvalues --   -0.85353  -0.85116  -0.83656  -0.82399  -0.80624
 Alpha  occ. eigenvalues --   -0.79907  -0.79078  -0.77286  -0.76718  -0.75867
 Alpha  occ. eigenvalues --   -0.75448  -0.74856  -0.74437  -0.74053  -0.73408
 Alpha  occ. eigenvalues --   -0.73231  -0.72908  -0.72411  -0.72104  -0.71431
 Alpha  occ. eigenvalues --   -0.70430  -0.69724  -0.69143  -0.68840  -0.67920
 Alpha  occ. eigenvalues --   -0.67799  -0.67587  -0.66687  -0.66234  -0.65302
 Alpha  occ. eigenvalues --   -0.65081  -0.64686  -0.64099  -0.63635  -0.63402
 Alpha  occ. eigenvalues --   -0.63293  -0.63180  -0.62639  -0.61985  -0.61590
 Alpha  occ. eigenvalues --   -0.61377  -0.61032  -0.60654  -0.60339  -0.60141
 Alpha  occ. eigenvalues --   -0.59850  -0.59475  -0.59257  -0.59115  -0.58837
 Alpha  occ. eigenvalues --   -0.57800  -0.57535  -0.56939  -0.56570  -0.56210
 Alpha  occ. eigenvalues --   -0.55990  -0.55703  -0.55275  -0.55213  -0.54902
 Alpha  occ. eigenvalues --   -0.54604  -0.54337  -0.53833  -0.53654  -0.53559
 Alpha  occ. eigenvalues --   -0.52846  -0.52389  -0.52126  -0.51615  -0.51442
 Alpha  occ. eigenvalues --   -0.51342  -0.51186  -0.50707  -0.50571  -0.50373
 Alpha  occ. eigenvalues --   -0.50192  -0.50002  -0.49661  -0.49128  -0.48710
 Alpha  occ. eigenvalues --   -0.48463  -0.48313  -0.47838  -0.47439  -0.47346
 Alpha  occ. eigenvalues --   -0.47008  -0.46685  -0.46584  -0.46524  -0.46483
 Alpha  occ. eigenvalues --   -0.46310  -0.45968  -0.45860  -0.45519  -0.45408
 Alpha  occ. eigenvalues --   -0.45120  -0.44564  -0.44458  -0.44245  -0.43891
 Alpha  occ. eigenvalues --   -0.43721  -0.43341  -0.43187  -0.42516  -0.42010
 Alpha  occ. eigenvalues --   -0.41904  -0.41323  -0.39638  -0.39421  -0.39189
 Alpha  occ. eigenvalues --   -0.38203  -0.36907  -0.36102  -0.34552  -0.34088
 Alpha  occ. eigenvalues --   -0.33302  -0.32895  -0.32850  -0.32152  -0.26914
 Alpha  occ. eigenvalues --   -0.22135
 Alpha virt. eigenvalues --   -0.08505  -0.02313  -0.01105   0.00893   0.01434
 Alpha virt. eigenvalues --    0.02018   0.02646   0.03017   0.04508   0.05182
 Alpha virt. eigenvalues --    0.05655   0.06472   0.07146   0.07362   0.07862

 Mulliken charges:
               1
     1  Mg   0.433252
     2  C   -0.016127
     3  C   -0.079018
     4  C   -0.081544
     5  C   -0.063899
     6  N   -0.274110
     7  C    0.079907
     8  C    0.008958
     9  C    0.012186
    10  C    0.155684
    11  C   -0.050379
    12  C   -0.030368
    13  C   -0.011187
    14  C    0.460858
    15  O   -0.477559
    16  O   -0.275717
    17  N   -0.353223
    18  C    0.147618
    19  C    0.029368
    20  C   -0.031421
    21  C    0.156935
    22  C   -0.039311
    23  C    0.326979
    24  O   -0.535203
    25  C   -0.028603
    26  N   -0.271230
    27  C    0.178452
    28  C    0.006878
    29  C   -0.001494
    30  C    0.095196
    31  C   -0.049190
    32  C   -0.031524
    33  C   -0.056202
    34  N   -0.307155
    35  C    0.075243
    36  C    0.027388
    37  C   -0.052606
    38  C    0.075094
    39  C   -0.039108
    40  C    0.331606
    41  O   -0.528261
    42  C    0.052096
    43  C    0.487430
    44  O   -0.520312
    45  O   -0.260608
    46  C    0.069459
    47  C    0.112928
    48  C   -0.076713
    49  C   -0.018711
    50  C   -0.044437
    51  C   -0.029683
    52  C   -0.032865
    53  C   -0.044544
    54  C   -0.021000
    55  C   -0.056339
    56  C   -0.035973
    57  C   -0.034713
    58  C   -0.025237
    59  C   -0.006284
    60  C   -0.065658
    61  C   -0.034945
    62  C   -0.040208
    63  C   -0.037961
    64  C   -0.016828
    65  C   -0.060541
    66  C   -0.058739
    67  H    0.018690
    68  H    0.041310
    69  H    0.018143
    70  H    0.044941
    71  H    0.033770
    72  H    0.033451
    73  H    0.016871
    74  H    0.015894
    75  H    0.026251
    76  H    0.019918
    77  H    0.040695
    78  H    0.033707
    79  H    0.028425
    80  H    0.030388
    81  H    0.033700
    82  H    0.034138
    83  H    0.037778
    84  H    0.045680
    85  H    0.028554
    86  H    0.028815
    87  H    0.035452
    88  H    0.019870
    89  H    0.022248
    90  H    0.016140
    91  H    0.022472
    92  H    0.021504
    93  H    0.024378
    94  H    0.027444
    95  H    0.015650
    96  H    0.040798
    97  H    0.027556
    98  H    0.060095
    99  H    0.048618
   100  H    0.027631
   101  H    0.032172
   102  H    0.048986
   103  H    0.048195
   104  H    0.030382
   105  H    0.029584
   106  H    0.030066
   107  H    0.021313
   108  H    0.019126
   109  H    0.020622
   110  H    0.028772
   111  H    0.021706
   112  H    0.014363
   113  H    0.007912
   114  H    0.030983
   115  H    0.022259
   116  H    0.025523
   117  H    0.014906
   118  H    0.020748
   119  H    0.013433
   120  H    0.021333
   121  H    0.024561
   122  H    0.011868
   123  H    0.016749
   124  H    0.029982
   125  H    0.005267
   126  H    0.011938
   127  H    0.017488
   128  H    0.026802
   129  H    0.002498
   130  H    0.020557
   131  H    0.027920
   132  H    0.018031
   133  H    0.023273
   134  H    0.017358
   135  H    0.013701
   136  H    0.017373
   137  H    0.017089
   138  H    0.023156
   139  H    0.018706
   140  H    0.015545
 Sum of Mulliken charges =   0.00000

 Dipole moment (field-independent basis, Debye):
    X=             -5.0634    Y=              7.6831    Z=             -5.6942  Tot=             10.8209
 N-N= 4.189417758642D+03 E-N= 0.000000000000D+00  KE=-9.052976981574D+03
 Leave Link  601 at Wed Apr 27 13:23:08 2022, MaxMem=  6710886400 cpu:               3.1 elap:               0.2
 (Enter /sw/apps/gaussian-16.0/g16/l9999.exe)
 1\1\GINC-BP1-COMPUTE216\SP\RZINDO CIS\STO-3G\C55H74Mg1N4O6\OF15641\27-
 Apr-2022\0\\#p ZINDO=(nstates=5)\\step_1201_chromophore_10 ZINDO\\0,1\
 Mg,0,40.43,8.454,29.657\C,0,42.205,9.54,32.306\C,0,38.38,6.701,31.895\
 C,0,38.896,7.015,27.031\C,0,42.943,9.589,27.471\N,0,40.369,8.158,31.85
 7\C,0,41.089,8.895,32.787\C,0,40.68,8.568,34.235\C,0,39.645,7.43,34.07
 2\C,0,39.484,7.364,32.503\C,0,40.145,6.161,34.757\C,0,40.109,9.891,34.
 913\C,0,40.918,10.505,36.081\C,0,40.238,11.489,37.116\O,0,40.414,12.67

 Normal termination of Gaussian 16 at Wed Apr 27 13:23:08 2022.
