 Gaussian 16, Revision A.03,
 Gaussian 16:  ES64L-G16RevA.03 25-Dec-2016

 ------------------------------
 #p blyp/Def2SVP td=(nstates=5)
 ------------------------------

 ---------------------------------------------------
 step_1351_chromophore_26 TDDFT with blyp functional
 ---------------------------------------------------
 Symbolic Z-matrix:
 Charge =  0 Multiplicity = 1

                         Standard orientation:
 ---------------------------------------------------------------------
 Center     Atomic      Atomic             Coordinates (Angstroms)
 Number     Number       Type             X           Y           Z
 ---------------------------------------------------------------------
      1         12           0       -4.030524    1.433845    0.570082
      2          6           0       -5.215844   -1.828966    0.074198
      3          6           0       -2.243822    0.206344    3.412366
      4          6           0       -2.367671    4.427448    0.896999
      5          6           0       -4.665136    2.245356   -2.725022
      6          7           0       -3.639204   -0.629120    1.476581
      7          6           0       -4.343522   -1.811438    1.135271
      8          6           0       -3.966253   -2.936031    2.025375
      9          6           0       -3.372124   -2.170983    3.313407
     10          6           0       -3.084009   -0.716431    2.727886
     11          6           0       -4.171810   -2.254185    4.640107
     12          6           0       -3.082386   -4.058909    1.415648
     13          6           0       -2.369863   -3.671843    0.010881
     14          6           0       -1.162735   -4.389139   -0.507268
     15          8           0       -1.235170   -5.185623   -1.458852
     16          8           0       -0.025412   -4.150693    0.234976
     17          7           0       -2.576007    2.243628    1.967426
     18          6           0       -1.942457    1.543616    3.006845
     19          6           0       -0.990488    2.474816    3.654125
     20          6           0       -1.094230    3.715187    2.958234
     21          6           0       -2.039203    3.465244    1.878689
     22          6           0       -0.258409    2.022072    4.883621
     23          6           0       -0.333073    4.926925    3.520061
     24          8           0        0.490402    4.851040    4.418900
     25          6           0       -0.699615    6.258828    3.049786
     26          7           0       -3.619294    3.073197   -0.741479
     27          6           0       -3.005814    4.272819   -0.333162
     28          6           0       -3.026777    5.335659   -1.403202
     29          6           0       -3.549340    4.532936   -2.715339
     30          6           0       -4.053840    3.220016   -2.013680
     31          6           0       -3.606132    6.710260   -1.115126
     32          6           0       -2.472935    4.332916   -3.876637
     33          6           0       -2.536948    5.323328   -4.954860
     34          7           0       -4.997595    0.583255   -0.916221
     35          6           0       -5.222762    1.045563   -2.249262
     36          6           0       -5.974858    0.031793   -2.930776
     37          6           0       -6.101453   -1.040071   -2.029882
     38          6           0       -5.404608   -0.705159   -0.835855
     39          6           0       -6.451600    0.173355   -4.334563
     40          6           0       -6.642267   -2.351656   -1.842547
     41          8           0       -7.291086   -3.041888   -2.603757
     42          6           0       -6.239761   -2.857714   -0.427955
     43          6           0       -7.431816   -3.065452    0.438887
     44          8           0       -7.597747   -4.149336    0.934024
     45          8           0       -8.203954   -1.918276    0.566759
     46          6           0       -9.281189   -2.174875    1.542959
     47          6           0        1.146882   -5.040072    0.006004
     48          6           0        2.407391   -4.200262   -0.306033
     49          6           0        2.580791   -3.611999   -1.532847
     50          6           0        1.637480   -3.544888   -2.691587
     51          6           0        4.010057   -3.161730   -1.942835
     52          6           0        4.309860   -1.673072   -2.478546
     53          6           0        5.786744   -1.328890   -2.411200
     54          6           0        6.087028   -0.050165   -1.636516
     55          6           0        5.589125    1.178173   -2.482095
     56          6           0        7.553952    0.013975   -1.176799
     57          6           0        7.778724   -0.469810    0.277422
     58          6           0        8.884552   -1.586799    0.532493
     59          6           0       10.163757   -1.197850    1.325137
     60          6           0       10.117245   -1.584776    2.869853
     61          6           0       11.507124   -1.652641    0.634829
     62          6           0       12.740805   -0.724266    0.994409
     63          6           0       13.324298   -0.115460   -0.286358
     64          6           0       12.800540    1.350578   -0.553004
     65          6           0       11.778600    1.298918   -1.695585
     66          6           0       13.774748    2.525905   -0.699866
     67          1           0       -1.759126   -0.057218    4.355251
     68          1           0       -1.873000    5.393036    1.021438
     69          1           0       -5.002538    2.381409   -3.754534
     70          1           0       -4.898933   -3.436973    2.284081
     71          1           0       -2.391245   -2.555341    3.594429
     72          1           0       -5.061626   -2.833257    4.389603
     73          1           0       -4.499636   -1.247905    4.902922
     74          1           0       -3.543627   -2.624963    5.449818
     75          1           0       -3.617417   -5.003270    1.316139
     76          1           0       -2.236008   -4.358740    2.033750
     77          1           0       -1.903739   -2.687409    0.066038
     78          1           0       -3.117484   -3.678541   -0.783005
     79          1           0        0.324870    1.142538    4.612118
     80          1           0       -1.017259    1.806092    5.636377
     81          1           0        0.521843    2.636932    5.331092
     82          1           0       -1.761924    6.312303    2.809055
     83          1           0       -0.068220    6.546942    2.209573
     84          1           0       -0.410858    7.008272    3.786814
     85          1           0       -1.976337    5.495058   -1.646188
     86          1           0       -4.364699    5.106885   -3.155139
     87          1           0       -2.924583    7.524007   -1.363632
     88          1           0       -4.050533    6.869683   -0.133168
     89          1           0       -4.393502    6.706552   -1.868365
     90          1           0       -2.511958    3.365876   -4.377552
     91          1           0       -1.494080    4.450974   -3.412617
     92          1           0       -1.903191    6.151454   -4.634451
     93          1           0       -3.549182    5.711749   -5.059937
     94          1           0       -2.191524    4.955625   -5.920787
     95          1           0       -6.720887   -0.759018   -4.830835
     96          1           0       -5.694778    0.612999   -4.983457
     97          1           0       -7.375853    0.748043   -4.399855
     98          1           0       -5.755257   -3.832006   -0.482733
     99          1           0       -9.951320   -1.317325    1.478776
    100          1           0       -8.818352   -2.198560    2.529756
    101          1           0       -9.721112   -3.150654    1.340939
    102          1           0        1.064247   -5.887659   -0.673370
    103          1           0        1.346655   -5.543928    0.951800
    104          1           0        3.195771   -4.229784    0.445891
    105          1           0        2.009451   -4.249892   -3.435825
    106          1           0        1.823198   -2.612352   -3.223773
    107          1           0        0.592134   -3.738788   -2.452694
    108          1           0        4.351903   -3.858927   -2.708276
    109          1           0        4.617067   -3.521067   -1.111518
    110          1           0        3.761159   -0.982575   -1.839071
    111          1           0        3.888984   -1.611143   -3.481641
    112          1           0        6.079942   -1.141117   -3.444411
    113          1           0        6.373782   -2.160828   -2.022275
    114          1           0        5.426432    0.118979   -0.785921
    115          1           0        5.313607    0.855832   -3.486401
    116          1           0        6.315046    1.985572   -2.579353
    117          1           0        4.713360    1.563902   -1.959972
    118          1           0        7.910397    1.028264   -1.360527
    119          1           0        8.134789   -0.637087   -1.829917
    120          1           0        6.769767   -0.801533    0.524470
    121          1           0        8.105312    0.301770    0.973894
    122          1           0        9.257798   -1.956598   -0.422186
    123          1           0        8.435967   -2.374371    1.137627
    124          1           0       10.064307   -0.113641    1.363837
    125          1           0       11.013572   -2.112880    3.191346
    126          1           0        9.189763   -2.082699    3.152093
    127          1           0       10.045740   -0.690229    3.488059
    128          1           0       11.331321   -1.622058   -0.440131
    129          1           0       11.787508   -2.637357    1.009062
    130          1           0       13.417336   -1.341588    1.585502
    131          1           0       12.562335    0.068401    1.720865
    132          1           0       13.223890   -0.843443   -1.090813
    133          1           0       14.357407    0.012573    0.037223
    134          1           0       12.197784    1.746976    0.263185
    135          1           0       11.094398    2.141482   -1.597945
    136          1           0       11.242564    0.350704   -1.729664
    137          1           0       12.290979    1.517523   -2.632826
    138          1           0       13.680315    3.064496   -1.643172
    139          1           0       14.828188    2.260745   -0.606444
    140          1           0       13.543894    3.265435    0.067498
 ---------------------------------------------------------------------

 SCF Done:  E(RB-LYP) =  -3007.36106310     A.U. after   22 cycles

 Excitation energies and oscillator strengths:

 Excited State   1:      Singlet-A      1.6929 eV  732.39 nm  f=0.0297  <S**2>=0.000
     244 -> 247        0.40108
     245 -> 247        0.50505
     246 -> 247       -0.27573
 This state for optimization and/or second-order correction.
 Total Energy, E(TD-HF/TD-DFT) =  -3007.29885102
 Copying the excited state density for this state as the 1-particle RhoCI density.

 Excited State   2:      Singlet-A      1.7902 eV  692.59 nm  f=0.2672  <S**2>=0.000
     244 -> 247        0.14553
     245 -> 247        0.23484
     245 -> 248       -0.15487
     246 -> 247        0.63738
     246 <- 247       -0.14680

 Excited State   3:      Singlet-A      1.9075 eV  649.99 nm  f=0.0008  <S**2>=0.000
     243 -> 247        0.68700
     244 -> 247        0.15587

 Excited State   4:      Singlet-A      2.0581 eV  602.42 nm  f=0.0002  <S**2>=0.000
     242 -> 247        0.70634

 Excited State   5:      Singlet-A      2.1182 eV  585.33 nm  f=0.0576  <S**2>=0.000
     243 -> 247       -0.14764
     244 -> 247        0.50503
     245 -> 247       -0.36472
     246 -> 248       -0.26906

 The electronic state is 1-A.
 Alpha  occ. eigenvalues --  -46.27390 -18.82830 -18.81955 -18.77490 -18.75815
 Alpha  occ. eigenvalues --  -18.75637 -18.75016 -14.03602 -14.03447 -14.01602
 Alpha  occ. eigenvalues --  -14.00911 -10.04133 -10.03536 -10.00009  -9.98878
 Alpha  occ. eigenvalues --   -9.97958  -9.97629  -9.97536  -9.97068  -9.96781
 Alpha  occ. eigenvalues --   -9.96399  -9.96380  -9.96079  -9.95392  -9.95057
 Alpha  occ. eigenvalues --   -9.94826  -9.94552  -9.94464  -9.94419  -9.94350
 Alpha  occ. eigenvalues --   -9.94202  -9.93957  -9.93821  -9.93542  -9.93435
 Alpha  occ. eigenvalues --   -9.93174  -9.93135  -9.93040  -9.92938  -9.92884
 Alpha  occ. eigenvalues --   -9.92824  -9.92739  -9.92467  -9.92129  -9.91928
 Alpha  occ. eigenvalues --   -9.91889  -9.91879  -9.91866  -9.91846  -9.91753
 Alpha  occ. eigenvalues --   -9.91715  -9.91696  -9.91603  -9.91315  -9.91261
 Alpha  occ. eigenvalues --   -9.91258  -9.91199  -9.91147  -9.90926  -9.90861
 Alpha  occ. eigenvalues --   -9.90819  -9.90800  -9.90783  -9.90751  -9.90739
 Alpha  occ. eigenvalues --   -9.90470  -2.92071  -1.72462  -1.71970  -1.71786
 Alpha  occ. eigenvalues --   -0.98253  -0.96299  -0.91892  -0.91286  -0.91164
 Alpha  occ. eigenvalues --   -0.88313  -0.86037  -0.85296  -0.85047  -0.84127
 Alpha  occ. eigenvalues --   -0.75289  -0.73158  -0.72711  -0.72278  -0.72204
 Alpha  occ. eigenvalues --   -0.72051  -0.71620  -0.70757  -0.70293  -0.70151
 Alpha  occ. eigenvalues --   -0.69639  -0.68966  -0.68559  -0.67820  -0.67278
 Alpha  occ. eigenvalues --   -0.66480  -0.66121  -0.65494  -0.64960  -0.64695
 Alpha  occ. eigenvalues --   -0.63586  -0.62728  -0.62301  -0.62049  -0.61029
 Alpha  occ. eigenvalues --   -0.60283  -0.60022  -0.59853  -0.59405  -0.58894
 Alpha  occ. eigenvalues --   -0.58389  -0.57468  -0.56820  -0.56147  -0.54185
 Alpha  occ. eigenvalues --   -0.53940  -0.53756  -0.52550  -0.52190  -0.51873
 Alpha  occ. eigenvalues --   -0.50942  -0.50707  -0.50589  -0.50465  -0.49390
 Alpha  occ. eigenvalues --   -0.49345  -0.49282  -0.49136  -0.48219  -0.46824
 Alpha  occ. eigenvalues --   -0.46249  -0.45582  -0.45239  -0.44979  -0.44511
 Alpha  occ. eigenvalues --   -0.44078  -0.43347  -0.43124  -0.42688  -0.42293
 Alpha  occ. eigenvalues --   -0.42104  -0.41936  -0.41346  -0.41253  -0.40892
 Alpha  occ. eigenvalues --   -0.40783  -0.40638  -0.40461  -0.40059  -0.40035
 Alpha  occ. eigenvalues --   -0.39777  -0.39717  -0.39571  -0.39288  -0.39139
 Alpha  occ. eigenvalues --   -0.38970  -0.38832  -0.38657  -0.38513  -0.38259
 Alpha  occ. eigenvalues --   -0.38183  -0.37992  -0.37939  -0.37379  -0.37189
 Alpha  occ. eigenvalues --   -0.36961  -0.36765  -0.36488  -0.36463  -0.36432
 Alpha  occ. eigenvalues --   -0.36182  -0.36057  -0.35839  -0.35710  -0.35625
 Alpha  occ. eigenvalues --   -0.35393  -0.35265  -0.35227  -0.34955  -0.34862
 Alpha  occ. eigenvalues --   -0.34737  -0.34443  -0.34142  -0.34117  -0.34096
 Alpha  occ. eigenvalues --   -0.33590  -0.33297  -0.33244  -0.33191  -0.32930
 Alpha  occ. eigenvalues --   -0.32753  -0.32490  -0.32392  -0.32141  -0.31993
 Alpha  occ. eigenvalues --   -0.31935  -0.31816  -0.31682  -0.31558  -0.31343
 Alpha  occ. eigenvalues --   -0.31228  -0.31046  -0.31003  -0.30964  -0.30835
 Alpha  occ. eigenvalues --   -0.30640  -0.30078  -0.29952  -0.29769  -0.29743
 Alpha  occ. eigenvalues --   -0.29644  -0.29485  -0.29340  -0.29029  -0.28752
 Alpha  occ. eigenvalues --   -0.28580  -0.28323  -0.28270  -0.28113  -0.28050
 Alpha  occ. eigenvalues --   -0.27680  -0.27139  -0.26546  -0.26500  -0.26444
 Alpha  occ. eigenvalues --   -0.26302  -0.26025  -0.25829  -0.25750  -0.25599
 Alpha  occ. eigenvalues --   -0.25198  -0.24737  -0.24465  -0.23759  -0.23684
 Alpha  occ. eigenvalues --   -0.23196  -0.22896  -0.22117  -0.20888  -0.20707
 Alpha  occ. eigenvalues --   -0.20487  -0.19489  -0.18878  -0.18568  -0.17512
 Alpha  occ. eigenvalues --   -0.16041
 Alpha virt. eigenvalues --   -0.11926  -0.07011  -0.06054  -0.04706  -0.03613
 Alpha virt. eigenvalues --   -0.02891  -0.02709  -0.02629  -0.02407  -0.00139
 Alpha virt. eigenvalues --    0.00671   0.01761   0.02149   0.02553   0.02933

 Mulliken charges:
               1
     1  Mg   0.710487
     2  C   -0.005420
     3  C   -0.047153
     4  C   -0.076685
     5  C   -0.057006
     6  N   -0.230148
     7  C   -0.093902
     8  C    0.083971
     9  C   -0.056087
    10  C    0.079474
    11  C    0.145102
    12  C    0.119733
    13  C    0.122196
    14  C    0.089957
    15  O   -0.219008
    16  O   -0.281808
    17  N   -0.251621
    18  C    0.072992
    19  C   -0.114027
    20  C   -0.008309
    21  C    0.122205
    22  C    0.168124
    23  C   -0.079114
    24  O   -0.152331
    25  C    0.154651
    26  N   -0.239217
    27  C    0.029354
    28  C    0.014785
    29  C   -0.008438
    30  C    0.089794
    31  C    0.163240
    32  C    0.096101
    33  C    0.071769
    34  N   -0.349908
    35  C    0.080268
    36  C   -0.148100
    37  C    0.125041
    38  C    0.083364
    39  C    0.153130
    40  C   -0.082062
    41  O   -0.121584
    42  C    0.131869
    43  C    0.096502
    44  O   -0.156632
    45  O   -0.286107
    46  C    0.229390
    47  C    0.309331
    48  C   -0.112029
    49  C   -0.115020
    50  C    0.180740
    51  C    0.057256
    52  C    0.085332
    53  C    0.136551
    54  C   -0.138033
    55  C    0.094856
    56  C    0.136110
    57  C    0.079916
    58  C    0.097144
    59  C   -0.091519
    60  C    0.097655
    61  C    0.101291
    62  C    0.043999
    63  C    0.135483
    64  C   -0.072049
    65  C    0.081408
    66  C    0.100637
    67  H   -0.054163
    68  H   -0.082541
    69  H   -0.063157
    70  H   -0.028933
    71  H   -0.021870
    72  H   -0.003572
    73  H   -0.015574
    74  H    0.003627
    75  H   -0.005078
    76  H   -0.023895
    77  H    0.007189
    78  H    0.001687
    79  H   -0.004232
    80  H    0.008019
    81  H    0.002282
    82  H    0.011920
    83  H    0.009926
    84  H   -0.013539
    85  H   -0.024639
    86  H   -0.029511
    87  H   -0.007156
    88  H   -0.000035
    89  H   -0.021997
    90  H   -0.015037
    91  H   -0.021668
    92  H   -0.017280
    93  H   -0.016836
    94  H   -0.003301
    95  H   -0.005610
    96  H   -0.003047
    97  H    0.000832
    98  H   -0.026643
    99  H    0.017079
   100  H    0.002664
   101  H    0.029252
   102  H    0.013284
   103  H   -0.029007
   104  H   -0.033433
   105  H   -0.013051
   106  H   -0.020571
   107  H    0.007683
   108  H   -0.020571
   109  H   -0.044400
   110  H   -0.020810
   111  H   -0.018979
   112  H   -0.033128
   113  H   -0.024619
   114  H   -0.027797
   115  H   -0.020835
   116  H   -0.017538
   117  H   -0.014285
   118  H   -0.040667
   119  H   -0.036626
   120  H   -0.028853
   121  H   -0.031460
   122  H   -0.039618
   123  H   -0.037985
   124  H   -0.036118
   125  H   -0.011900
   126  H   -0.022410
   127  H   -0.025042
   128  H   -0.023741
   129  H   -0.022479
   130  H   -0.042055
   131  H   -0.035005
   132  H   -0.017542
   133  H   -0.046823
   134  H   -0.031183
   135  H   -0.025174
   136  H   -0.006326
   137  H   -0.021380
   138  H   -0.025670
   139  H   -0.017772
   140  H   -0.019168
 Sum of Mulliken charges =  -0.00000

 Dipole moment (field-independent basis, Debye):
    X=              0.8725    Y=              5.5943    Z=              1.3166  Tot=              5.8130
 Quadrupole moment (field-independent basis, Debye-Ang):
   XX=           -406.1573   YY=           -411.4990   ZZ=           -402.6992
   XY=            -43.6283   XZ=            -26.2502   YZ=            -36.6782

 Normal termination of Gaussian 16 at Thu Apr 28 00:54:26 2022.
