 Gaussian 16, Revision A.03,
 Gaussian 16:  ES64L-G16RevA.03 25-Dec-2016

 -----------------------------------
 #p cam-b3lyp/Def2SVP td=(nstates=5)
 -----------------------------------

 --------------------------------------------------------
 step_1351_chromophore_26 TDDFT with cam-b3lyp functional
 --------------------------------------------------------
 Symbolic Z-matrix:
 Charge =  0 Multiplicity = 1

                         Standard orientation:
 ---------------------------------------------------------------------
 Center     Atomic      Atomic             Coordinates (Angstroms)
 Number     Number       Type             X           Y           Z
 ---------------------------------------------------------------------
      1         12           0       -4.030524    1.433845    0.570082
      2          6           0       -5.215844   -1.828966    0.074198
      3          6           0       -2.243822    0.206344    3.412366
      4          6           0       -2.367671    4.427448    0.896999
      5          6           0       -4.665136    2.245356   -2.725022
      6          7           0       -3.639204   -0.629120    1.476581
      7          6           0       -4.343522   -1.811438    1.135271
      8          6           0       -3.966253   -2.936031    2.025375
      9          6           0       -3.372124   -2.170983    3.313407
     10          6           0       -3.084009   -0.716431    2.727886
     11          6           0       -4.171810   -2.254185    4.640107
     12          6           0       -3.082386   -4.058909    1.415648
     13          6           0       -2.369863   -3.671843    0.010881
     14          6           0       -1.162735   -4.389139   -0.507268
     15          8           0       -1.235170   -5.185623   -1.458852
     16          8           0       -0.025412   -4.150693    0.234976
     17          7           0       -2.576007    2.243628    1.967426
     18          6           0       -1.942457    1.543616    3.006845
     19          6           0       -0.990488    2.474816    3.654125
     20          6           0       -1.094230    3.715187    2.958234
     21          6           0       -2.039203    3.465244    1.878689
     22          6           0       -0.258409    2.022072    4.883621
     23          6           0       -0.333073    4.926925    3.520061
     24          8           0        0.490402    4.851040    4.418900
     25          6           0       -0.699615    6.258828    3.049786
     26          7           0       -3.619294    3.073197   -0.741479
     27          6           0       -3.005814    4.272819   -0.333162
     28          6           0       -3.026777    5.335659   -1.403202
     29          6           0       -3.549340    4.532936   -2.715339
     30          6           0       -4.053840    3.220016   -2.013680
     31          6           0       -3.606132    6.710260   -1.115126
     32          6           0       -2.472935    4.332916   -3.876637
     33          6           0       -2.536948    5.323328   -4.954860
     34          7           0       -4.997595    0.583255   -0.916221
     35          6           0       -5.222762    1.045563   -2.249262
     36          6           0       -5.974858    0.031793   -2.930776
     37          6           0       -6.101453   -1.040071   -2.029882
     38          6           0       -5.404608   -0.705159   -0.835855
     39          6           0       -6.451600    0.173355   -4.334563
     40          6           0       -6.642267   -2.351656   -1.842547
     41          8           0       -7.291086   -3.041888   -2.603757
     42          6           0       -6.239761   -2.857714   -0.427955
     43          6           0       -7.431816   -3.065452    0.438887
     44          8           0       -7.597747   -4.149336    0.934024
     45          8           0       -8.203954   -1.918276    0.566759
     46          6           0       -9.281189   -2.174875    1.542959
     47          6           0        1.146882   -5.040072    0.006004
     48          6           0        2.407391   -4.200262   -0.306033
     49          6           0        2.580791   -3.611999   -1.532847
     50          6           0        1.637480   -3.544888   -2.691587
     51          6           0        4.010057   -3.161730   -1.942835
     52          6           0        4.309860   -1.673072   -2.478546
     53          6           0        5.786744   -1.328890   -2.411200
     54          6           0        6.087028   -0.050165   -1.636516
     55          6           0        5.589125    1.178173   -2.482095
     56          6           0        7.553952    0.013975   -1.176799
     57          6           0        7.778724   -0.469810    0.277422
     58          6           0        8.884552   -1.586799    0.532493
     59          6           0       10.163757   -1.197850    1.325137
     60          6           0       10.117245   -1.584776    2.869853
     61          6           0       11.507124   -1.652641    0.634829
     62          6           0       12.740805   -0.724266    0.994409
     63          6           0       13.324298   -0.115460   -0.286358
     64          6           0       12.800540    1.350578   -0.553004
     65          6           0       11.778600    1.298918   -1.695585
     66          6           0       13.774748    2.525905   -0.699866
     67          1           0       -1.759126   -0.057218    4.355251
     68          1           0       -1.873000    5.393036    1.021438
     69          1           0       -5.002538    2.381409   -3.754534
     70          1           0       -4.898933   -3.436973    2.284081
     71          1           0       -2.391245   -2.555341    3.594429
     72          1           0       -5.061626   -2.833257    4.389603
     73          1           0       -4.499636   -1.247905    4.902922
     74          1           0       -3.543627   -2.624963    5.449818
     75          1           0       -3.617417   -5.003270    1.316139
     76          1           0       -2.236008   -4.358740    2.033750
     77          1           0       -1.903739   -2.687409    0.066038
     78          1           0       -3.117484   -3.678541   -0.783005
     79          1           0        0.324870    1.142538    4.612118
     80          1           0       -1.017259    1.806092    5.636377
     81          1           0        0.521843    2.636932    5.331092
     82          1           0       -1.761924    6.312303    2.809055
     83          1           0       -0.068220    6.546942    2.209573
     84          1           0       -0.410858    7.008272    3.786814
     85          1           0       -1.976337    5.495058   -1.646188
     86          1           0       -4.364699    5.106885   -3.155139
     87          1           0       -2.924583    7.524007   -1.363632
     88          1           0       -4.050533    6.869683   -0.133168
     89          1           0       -4.393502    6.706552   -1.868365
     90          1           0       -2.511958    3.365876   -4.377552
     91          1           0       -1.494080    4.450974   -3.412617
     92          1           0       -1.903191    6.151454   -4.634451
     93          1           0       -3.549182    5.711749   -5.059937
     94          1           0       -2.191524    4.955625   -5.920787
     95          1           0       -6.720887   -0.759018   -4.830835
     96          1           0       -5.694778    0.612999   -4.983457
     97          1           0       -7.375853    0.748043   -4.399855
     98          1           0       -5.755257   -3.832006   -0.482733
     99          1           0       -9.951320   -1.317325    1.478776
    100          1           0       -8.818352   -2.198560    2.529756
    101          1           0       -9.721112   -3.150654    1.340939
    102          1           0        1.064247   -5.887659   -0.673370
    103          1           0        1.346655   -5.543928    0.951800
    104          1           0        3.195771   -4.229784    0.445891
    105          1           0        2.009451   -4.249892   -3.435825
    106          1           0        1.823198   -2.612352   -3.223773
    107          1           0        0.592134   -3.738788   -2.452694
    108          1           0        4.351903   -3.858927   -2.708276
    109          1           0        4.617067   -3.521067   -1.111518
    110          1           0        3.761159   -0.982575   -1.839071
    111          1           0        3.888984   -1.611143   -3.481641
    112          1           0        6.079942   -1.141117   -3.444411
    113          1           0        6.373782   -2.160828   -2.022275
    114          1           0        5.426432    0.118979   -0.785921
    115          1           0        5.313607    0.855832   -3.486401
    116          1           0        6.315046    1.985572   -2.579353
    117          1           0        4.713360    1.563902   -1.959972
    118          1           0        7.910397    1.028264   -1.360527
    119          1           0        8.134789   -0.637087   -1.829917
    120          1           0        6.769767   -0.801533    0.524470
    121          1           0        8.105312    0.301770    0.973894
    122          1           0        9.257798   -1.956598   -0.422186
    123          1           0        8.435967   -2.374371    1.137627
    124          1           0       10.064307   -0.113641    1.363837
    125          1           0       11.013572   -2.112880    3.191346
    126          1           0        9.189763   -2.082699    3.152093
    127          1           0       10.045740   -0.690229    3.488059
    128          1           0       11.331321   -1.622058   -0.440131
    129          1           0       11.787508   -2.637357    1.009062
    130          1           0       13.417336   -1.341588    1.585502
    131          1           0       12.562335    0.068401    1.720865
    132          1           0       13.223890   -0.843443   -1.090813
    133          1           0       14.357407    0.012573    0.037223
    134          1           0       12.197784    1.746976    0.263185
    135          1           0       11.094398    2.141482   -1.597945
    136          1           0       11.242564    0.350704   -1.729664
    137          1           0       12.290979    1.517523   -2.632826
    138          1           0       13.680315    3.064496   -1.643172
    139          1           0       14.828188    2.260745   -0.606444
    140          1           0       13.543894    3.265435    0.067498
 ---------------------------------------------------------------------

 SCF Done:  E(RCAM-B3LYP) =  -3007.14396988     A.U. after   19 cycles

 Excitation energies and oscillator strengths:

 Excited State   1:      Singlet-A      1.6811 eV  737.53 nm  f=0.3416  <S**2>=0.000
     245 -> 248        0.16127
     246 -> 247        0.69066
     245 <- 248        0.10414
 This state for optimization and/or second-order correction.
 Total Energy, E(TD-HF/TD-DFT) =  -3007.08219131
 Copying the excited state density for this state as the 1-particle RhoCI density.

 Excited State   2:      Singlet-A      2.2667 eV  546.98 nm  f=0.0992  <S**2>=0.000
     245 -> 247        0.63236
     246 -> 248       -0.30011

 Excited State   3:      Singlet-A      3.3133 eV  374.20 nm  f=0.0027  <S**2>=0.000
     241 -> 247        0.54034
     242 -> 247        0.15912
     243 -> 247       -0.39373

 Excited State   4:      Singlet-A      3.3741 eV  367.45 nm  f=0.0184  <S**2>=0.000
     241 -> 247        0.36391
     243 -> 247        0.52026
     246 -> 248        0.24563

 Excited State   5:      Singlet-A      3.5206 eV  352.16 nm  f=0.2377  <S**2>=0.000
     242 -> 247        0.48260
     242 -> 249        0.15305
     242 -> 251       -0.14946
     243 -> 247        0.20333
     245 -> 247       -0.19377
     246 -> 248       -0.32835

 The electronic state is 1-A.
 Alpha  occ. eigenvalues --  -46.88959 -19.25618 -19.24815 -19.20507 -19.19191
 Alpha  occ. eigenvalues --  -19.18730 -19.17725 -14.42620 -14.42260 -14.40368
 Alpha  occ. eigenvalues --  -14.39068 -10.39412 -10.38826 -10.35532 -10.33742
 Alpha  occ. eigenvalues --  -10.32559 -10.31928 -10.31841 -10.31742 -10.31413
 Alpha  occ. eigenvalues --  -10.31159 -10.31067 -10.30375 -10.29179 -10.29058
 Alpha  occ. eigenvalues --  -10.29002 -10.28788 -10.28646 -10.28568 -10.28558
 Alpha  occ. eigenvalues --  -10.28459 -10.28267 -10.28129 -10.27664 -10.27651
 Alpha  occ. eigenvalues --  -10.27240 -10.27235 -10.27089 -10.27001 -10.26917
 Alpha  occ. eigenvalues --  -10.26662 -10.26523 -10.26217 -10.26080 -10.26019
 Alpha  occ. eigenvalues --  -10.25670 -10.25652 -10.25614 -10.25504 -10.25466
 Alpha  occ. eigenvalues --  -10.25439 -10.25400 -10.25326 -10.25064 -10.24973
 Alpha  occ. eigenvalues --  -10.24866 -10.24841 -10.24781 -10.24616 -10.24541
 Alpha  occ. eigenvalues --  -10.24519 -10.24411 -10.24402 -10.24370 -10.24366
 Alpha  occ. eigenvalues --  -10.24074  -3.17543  -1.92407  -1.91997  -1.91852
 Alpha  occ. eigenvalues --   -1.16705  -1.14653  -1.10648  -1.09158  -1.09119
 Alpha  occ. eigenvalues --   -1.06102  -1.03900  -1.02958  -1.02630  -1.01497
 Alpha  occ. eigenvalues --   -0.92198  -0.90001  -0.89336  -0.89081  -0.88948
 Alpha  occ. eigenvalues --   -0.88754  -0.88318  -0.87451  -0.86866  -0.86752
 Alpha  occ. eigenvalues --   -0.86262  -0.85362  -0.84715  -0.84062  -0.83533
 Alpha  occ. eigenvalues --   -0.82788  -0.82211  -0.81529  -0.80616  -0.80503
 Alpha  occ. eigenvalues --   -0.79347  -0.78300  -0.78088  -0.77622  -0.76352
 Alpha  occ. eigenvalues --   -0.75604  -0.75380  -0.75159  -0.74731  -0.74167
 Alpha  occ. eigenvalues --   -0.73398  -0.72404  -0.71806  -0.70992  -0.68702
 Alpha  occ. eigenvalues --   -0.68558  -0.68248  -0.67226  -0.66562  -0.65942
 Alpha  occ. eigenvalues --   -0.65112  -0.64772  -0.64672  -0.64476  -0.63367
 Alpha  occ. eigenvalues --   -0.63106  -0.63042  -0.62946  -0.62127  -0.60634
 Alpha  occ. eigenvalues --   -0.59726  -0.59039  -0.58656  -0.58347  -0.57901
 Alpha  occ. eigenvalues --   -0.57444  -0.56716  -0.56471  -0.55875  -0.55368
 Alpha  occ. eigenvalues --   -0.55095  -0.54858  -0.54259  -0.53993  -0.53671
 Alpha  occ. eigenvalues --   -0.53511  -0.53482  -0.53298  -0.53036  -0.52836
 Alpha  occ. eigenvalues --   -0.52725  -0.52394  -0.52081  -0.51964  -0.51760
 Alpha  occ. eigenvalues --   -0.51559  -0.51299  -0.51176  -0.50969  -0.50803
 Alpha  occ. eigenvalues --   -0.50675  -0.50425  -0.50157  -0.49821  -0.49551
 Alpha  occ. eigenvalues --   -0.49385  -0.48923  -0.48805  -0.48736  -0.48551
 Alpha  occ. eigenvalues --   -0.48520  -0.48400  -0.48159  -0.47887  -0.47709
 Alpha  occ. eigenvalues --   -0.47545  -0.47383  -0.47317  -0.46985  -0.46881
 Alpha  occ. eigenvalues --   -0.46706  -0.46452  -0.46153  -0.45909  -0.45837
 Alpha  occ. eigenvalues --   -0.45254  -0.45068  -0.44984  -0.44884  -0.44704
 Alpha  occ. eigenvalues --   -0.44352  -0.44189  -0.43862  -0.43810  -0.43744
 Alpha  occ. eigenvalues --   -0.43574  -0.43443  -0.43314  -0.43151  -0.43046
 Alpha  occ. eigenvalues --   -0.42731  -0.42533  -0.42432  -0.42283  -0.42250
 Alpha  occ. eigenvalues --   -0.41985  -0.41787  -0.41408  -0.41246  -0.40912
 Alpha  occ. eigenvalues --   -0.40764  -0.40720  -0.40588  -0.40056  -0.39809
 Alpha  occ. eigenvalues --   -0.39629  -0.39390  -0.39343  -0.39039  -0.39015
 Alpha  occ. eigenvalues --   -0.38613  -0.38039  -0.37696  -0.37464  -0.37308
 Alpha  occ. eigenvalues --   -0.37175  -0.36986  -0.36690  -0.36629  -0.36316
 Alpha  occ. eigenvalues --   -0.35895  -0.35595  -0.35274  -0.34925  -0.34470
 Alpha  occ. eigenvalues --   -0.33604  -0.33014  -0.32877  -0.31779  -0.31553
 Alpha  occ. eigenvalues --   -0.30491  -0.29971  -0.29359  -0.29207  -0.24752
 Alpha  occ. eigenvalues --   -0.21336
 Alpha virt. eigenvalues --   -0.09068  -0.01847   0.00485   0.01410   0.02393
 Alpha virt. eigenvalues --    0.04447   0.04706   0.05077   0.05427   0.06865
 Alpha virt. eigenvalues --    0.07792   0.08066   0.08588   0.08678   0.09109

 Mulliken charges:
               1
     1  Mg   0.839248
     2  C   -0.031520
     3  C   -0.064514
     4  C   -0.101246
     5  C   -0.063117
     6  N   -0.294887
     7  C   -0.064731
     8  C    0.036992
     9  C   -0.104800
    10  C    0.099693
    11  C    0.085751
    12  C    0.068639
    13  C    0.053285
    14  C    0.171828
    15  O   -0.259980
    16  O   -0.345546
    17  N   -0.338802
    18  C    0.087533
    19  C   -0.118881
    20  C   -0.075343
    21  C    0.160714
    22  C    0.103545
    23  C    0.010434
    24  O   -0.192344
    25  C    0.057858
    26  N   -0.311194
    27  C    0.056887
    28  C   -0.043536
    29  C   -0.051665
    30  C    0.100057
    31  C    0.099252
    32  C    0.039450
    33  C    0.010274
    34  N   -0.440039
    35  C    0.084001
    36  C   -0.149172
    37  C    0.041624
    38  C    0.122929
    39  C    0.100004
    40  C    0.013016
    41  O   -0.164961
    42  C    0.057143
    43  C    0.188479
    44  O   -0.197420
    45  O   -0.346705
    46  C    0.184555
    47  C    0.273523
    48  C   -0.139129
    49  C   -0.128484
    50  C    0.115573
    51  C    0.003645
    52  C    0.030797
    53  C    0.079599
    54  C   -0.193708
    55  C    0.039390
    56  C    0.083512
    57  C    0.025340
    58  C    0.047829
    59  C   -0.142423
    60  C    0.039500
    61  C    0.049214
    62  C   -0.004911
    63  C    0.069299
    64  C   -0.132404
    65  C    0.032204
    66  C    0.040733
    67  H   -0.015228
    68  H   -0.045960
    69  H   -0.028818
    70  H    0.007016
    71  H    0.013523
    72  H    0.021309
    73  H    0.010396
    74  H    0.027677
    75  H    0.025612
    76  H    0.007755
    77  H    0.035486
    78  H    0.031991
    79  H    0.024175
    80  H    0.034890
    81  H    0.038319
    82  H    0.039839
    83  H    0.040833
    84  H    0.024756
    85  H    0.010732
    86  H    0.003191
    87  H    0.018208
    88  H    0.025417
    89  H    0.003489
    90  H    0.014925
    91  H    0.004620
    92  H    0.004527
    93  H    0.005676
    94  H    0.021978
    95  H    0.022389
    96  H    0.018507
    97  H    0.025722
    98  H    0.016132
    99  H    0.041979
   100  H    0.024688
   101  H    0.054206
   102  H    0.045748
   103  H    0.001000
   104  H    0.000010
   105  H    0.013273
   106  H    0.004427
   107  H    0.032836
   108  H    0.007648
   109  H   -0.014820
   110  H    0.006893
   111  H    0.007415
   112  H   -0.003428
   113  H    0.002666
   114  H    0.003301
   115  H    0.002652
   116  H    0.007218
   117  H    0.008911
   118  H   -0.011961
   119  H   -0.009302
   120  H    0.000149
   121  H   -0.003938
   122  H   -0.012616
   123  H   -0.008971
   124  H   -0.007836
   125  H    0.010730
   126  H    0.001940
   127  H   -0.000866
   128  H   -0.000526
   129  H    0.006092
   130  H   -0.011717
   131  H   -0.007028
   132  H    0.011279
   133  H   -0.015549
   134  H   -0.000253
   135  H   -0.001629
   136  H    0.010864
   137  H    0.002221
   138  H   -0.000517
   139  H    0.006981
   140  H    0.004861
 Sum of Mulliken charges =  -0.00000

 Dipole moment (field-independent basis, Debye):
    X=              1.5755    Y=              6.2893    Z=              2.3631  Tot=              6.9009
 Quadrupole moment (field-independent basis, Debye-Ang):
   XX=           -410.6927   YY=           -407.3413   ZZ=           -399.9693
   XY=            -45.0626   XZ=            -29.5606   YZ=            -36.9216

 Normal termination of Gaussian 16 at Wed Apr 27 23:49:31 2022.
