 Gaussian 16, Revision A.03,
 Gaussian 16:  ES64L-G16RevA.03 25-Dec-2016

 ---------------------------------
 #p PBE1PBE/Def2SVP td=(nstates=5)
 ---------------------------------

 ------------------------------------------------------
 step_1351_chromophore_26 TDDFT with PBE1PBE functional
 ------------------------------------------------------
 Symbolic Z-matrix:
 Charge =  0 Multiplicity = 1

                         Standard orientation:
 ---------------------------------------------------------------------
 Center     Atomic      Atomic             Coordinates (Angstroms)
 Number     Number       Type             X           Y           Z
 ---------------------------------------------------------------------
      1         12           0       -4.030524    1.433845    0.570082
      2          6           0       -5.215844   -1.828966    0.074198
      3          6           0       -2.243822    0.206344    3.412366
      4          6           0       -2.367671    4.427448    0.896999
      5          6           0       -4.665136    2.245356   -2.725022
      6          7           0       -3.639204   -0.629120    1.476581
      7          6           0       -4.343522   -1.811438    1.135271
      8          6           0       -3.966253   -2.936031    2.025375
      9          6           0       -3.372124   -2.170983    3.313407
     10          6           0       -3.084009   -0.716431    2.727886
     11          6           0       -4.171810   -2.254185    4.640107
     12          6           0       -3.082386   -4.058909    1.415648
     13          6           0       -2.369863   -3.671843    0.010881
     14          6           0       -1.162735   -4.389139   -0.507268
     15          8           0       -1.235170   -5.185623   -1.458852
     16          8           0       -0.025412   -4.150693    0.234976
     17          7           0       -2.576007    2.243628    1.967426
     18          6           0       -1.942457    1.543616    3.006845
     19          6           0       -0.990488    2.474816    3.654125
     20          6           0       -1.094230    3.715187    2.958234
     21          6           0       -2.039203    3.465244    1.878689
     22          6           0       -0.258409    2.022072    4.883621
     23          6           0       -0.333073    4.926925    3.520061
     24          8           0        0.490402    4.851040    4.418900
     25          6           0       -0.699615    6.258828    3.049786
     26          7           0       -3.619294    3.073197   -0.741479
     27          6           0       -3.005814    4.272819   -0.333162
     28          6           0       -3.026777    5.335659   -1.403202
     29          6           0       -3.549340    4.532936   -2.715339
     30          6           0       -4.053840    3.220016   -2.013680
     31          6           0       -3.606132    6.710260   -1.115126
     32          6           0       -2.472935    4.332916   -3.876637
     33          6           0       -2.536948    5.323328   -4.954860
     34          7           0       -4.997595    0.583255   -0.916221
     35          6           0       -5.222762    1.045563   -2.249262
     36          6           0       -5.974858    0.031793   -2.930776
     37          6           0       -6.101453   -1.040071   -2.029882
     38          6           0       -5.404608   -0.705159   -0.835855
     39          6           0       -6.451600    0.173355   -4.334563
     40          6           0       -6.642267   -2.351656   -1.842547
     41          8           0       -7.291086   -3.041888   -2.603757
     42          6           0       -6.239761   -2.857714   -0.427955
     43          6           0       -7.431816   -3.065452    0.438887
     44          8           0       -7.597747   -4.149336    0.934024
     45          8           0       -8.203954   -1.918276    0.566759
     46          6           0       -9.281189   -2.174875    1.542959
     47          6           0        1.146882   -5.040072    0.006004
     48          6           0        2.407391   -4.200262   -0.306033
     49          6           0        2.580791   -3.611999   -1.532847
     50          6           0        1.637480   -3.544888   -2.691587
     51          6           0        4.010057   -3.161730   -1.942835
     52          6           0        4.309860   -1.673072   -2.478546
     53          6           0        5.786744   -1.328890   -2.411200
     54          6           0        6.087028   -0.050165   -1.636516
     55          6           0        5.589125    1.178173   -2.482095
     56          6           0        7.553952    0.013975   -1.176799
     57          6           0        7.778724   -0.469810    0.277422
     58          6           0        8.884552   -1.586799    0.532493
     59          6           0       10.163757   -1.197850    1.325137
     60          6           0       10.117245   -1.584776    2.869853
     61          6           0       11.507124   -1.652641    0.634829
     62          6           0       12.740805   -0.724266    0.994409
     63          6           0       13.324298   -0.115460   -0.286358
     64          6           0       12.800540    1.350578   -0.553004
     65          6           0       11.778600    1.298918   -1.695585
     66          6           0       13.774748    2.525905   -0.699866
     67          1           0       -1.759126   -0.057218    4.355251
     68          1           0       -1.873000    5.393036    1.021438
     69          1           0       -5.002538    2.381409   -3.754534
     70          1           0       -4.898933   -3.436973    2.284081
     71          1           0       -2.391245   -2.555341    3.594429
     72          1           0       -5.061626   -2.833257    4.389603
     73          1           0       -4.499636   -1.247905    4.902922
     74          1           0       -3.543627   -2.624963    5.449818
     75          1           0       -3.617417   -5.003270    1.316139
     76          1           0       -2.236008   -4.358740    2.033750
     77          1           0       -1.903739   -2.687409    0.066038
     78          1           0       -3.117484   -3.678541   -0.783005
     79          1           0        0.324870    1.142538    4.612118
     80          1           0       -1.017259    1.806092    5.636377
     81          1           0        0.521843    2.636932    5.331092
     82          1           0       -1.761924    6.312303    2.809055
     83          1           0       -0.068220    6.546942    2.209573
     84          1           0       -0.410858    7.008272    3.786814
     85          1           0       -1.976337    5.495058   -1.646188
     86          1           0       -4.364699    5.106885   -3.155139
     87          1           0       -2.924583    7.524007   -1.363632
     88          1           0       -4.050533    6.869683   -0.133168
     89          1           0       -4.393502    6.706552   -1.868365
     90          1           0       -2.511958    3.365876   -4.377552
     91          1           0       -1.494080    4.450974   -3.412617
     92          1           0       -1.903191    6.151454   -4.634451
     93          1           0       -3.549182    5.711749   -5.059937
     94          1           0       -2.191524    4.955625   -5.920787
     95          1           0       -6.720887   -0.759018   -4.830835
     96          1           0       -5.694778    0.612999   -4.983457
     97          1           0       -7.375853    0.748043   -4.399855
     98          1           0       -5.755257   -3.832006   -0.482733
     99          1           0       -9.951320   -1.317325    1.478776
    100          1           0       -8.818352   -2.198560    2.529756
    101          1           0       -9.721112   -3.150654    1.340939
    102          1           0        1.064247   -5.887659   -0.673370
    103          1           0        1.346655   -5.543928    0.951800
    104          1           0        3.195771   -4.229784    0.445891
    105          1           0        2.009451   -4.249892   -3.435825
    106          1           0        1.823198   -2.612352   -3.223773
    107          1           0        0.592134   -3.738788   -2.452694
    108          1           0        4.351903   -3.858927   -2.708276
    109          1           0        4.617067   -3.521067   -1.111518
    110          1           0        3.761159   -0.982575   -1.839071
    111          1           0        3.888984   -1.611143   -3.481641
    112          1           0        6.079942   -1.141117   -3.444411
    113          1           0        6.373782   -2.160828   -2.022275
    114          1           0        5.426432    0.118979   -0.785921
    115          1           0        5.313607    0.855832   -3.486401
    116          1           0        6.315046    1.985572   -2.579353
    117          1           0        4.713360    1.563902   -1.959972
    118          1           0        7.910397    1.028264   -1.360527
    119          1           0        8.134789   -0.637087   -1.829917
    120          1           0        6.769767   -0.801533    0.524470
    121          1           0        8.105312    0.301770    0.973894
    122          1           0        9.257798   -1.956598   -0.422186
    123          1           0        8.435967   -2.374371    1.137627
    124          1           0       10.064307   -0.113641    1.363837
    125          1           0       11.013572   -2.112880    3.191346
    126          1           0        9.189763   -2.082699    3.152093
    127          1           0       10.045740   -0.690229    3.488059
    128          1           0       11.331321   -1.622058   -0.440131
    129          1           0       11.787508   -2.637357    1.009062
    130          1           0       13.417336   -1.341588    1.585502
    131          1           0       12.562335    0.068401    1.720865
    132          1           0       13.223890   -0.843443   -1.090813
    133          1           0       14.357407    0.012573    0.037223
    134          1           0       12.197784    1.746976    0.263185
    135          1           0       11.094398    2.141482   -1.597945
    136          1           0       11.242564    0.350704   -1.729664
    137          1           0       12.290979    1.517523   -2.632826
    138          1           0       13.680315    3.064496   -1.643172
    139          1           0       14.828188    2.260745   -0.606444
    140          1           0       13.543894    3.265435    0.067498
 ---------------------------------------------------------------------

 SCF Done:  E(RPBE1PBE) =  -3005.33197410     A.U. after   16 cycles

 Excitation energies and oscillator strengths:

 Excited State   1:      Singlet-A      1.8164 eV  682.57 nm  f=0.3292  <S**2>=0.000
     245 -> 248        0.15959
     246 -> 247        0.69706
     246 <- 247       -0.11465
 This state for optimization and/or second-order correction.
 Total Energy, E(TD-HF/TD-DFT) =  -3005.26522150
 Copying the excited state density for this state as the 1-particle RhoCI density.

 Excited State   2:      Singlet-A      2.2580 eV  549.09 nm  f=0.0965  <S**2>=0.000
     245 -> 247        0.64445
     246 -> 248       -0.27231

 Excited State   3:      Singlet-A      2.8468 eV  435.53 nm  f=0.0034  <S**2>=0.000
     243 -> 247        0.67564
     246 -> 248       -0.12145

 Excited State   4:      Singlet-A      3.0151 eV  411.22 nm  f=0.0001  <S**2>=0.000
     241 -> 247        0.67222
     242 -> 247       -0.11335
     246 -> 248        0.11797

 Excited State   5:      Singlet-A      3.0287 eV  409.36 nm  f=0.0091  <S**2>=0.000
     241 -> 247        0.10981
     242 -> 247        0.68088

 The electronic state is 1-A.
 Alpha  occ. eigenvalues --  -46.92356 -19.26330 -19.25475 -19.20837 -19.19162
 Alpha  occ. eigenvalues --  -19.19014 -19.18238 -14.42077 -14.41846 -14.39816
 Alpha  occ. eigenvalues --  -14.38932 -10.36517 -10.35845 -10.32407 -10.31122
 Alpha  occ. eigenvalues --  -10.29987 -10.29417 -10.29137 -10.29097 -10.28952
 Alpha  occ. eigenvalues --  -10.28660 -10.28429 -10.28344 -10.27200 -10.27022
 Alpha  occ. eigenvalues --  -10.26748 -10.26458 -10.26452 -10.26374 -10.26360
 Alpha  occ. eigenvalues --  -10.26245 -10.25778 -10.25725 -10.25415 -10.25309
 Alpha  occ. eigenvalues --  -10.25016 -10.24876 -10.24667 -10.24521 -10.24352
 Alpha  occ. eigenvalues --  -10.24209 -10.24025 -10.24005 -10.23240 -10.23216
 Alpha  occ. eigenvalues --  -10.23212 -10.23200 -10.23189 -10.23178 -10.23121
 Alpha  occ. eigenvalues --  -10.23119 -10.23017 -10.22851 -10.22636 -10.22493
 Alpha  occ. eigenvalues --  -10.22442 -10.22428 -10.22312 -10.22213 -10.22151
 Alpha  occ. eigenvalues --  -10.22074 -10.22069 -10.21791 -10.21766 -10.21763
 Alpha  occ. eigenvalues --  -10.21423  -3.14516  -1.87319  -1.86889  -1.86749
 Alpha  occ. eigenvalues --   -1.11537  -1.09425  -1.05135  -1.04169  -1.04048
 Alpha  occ. eigenvalues --   -1.00941  -0.98364  -0.97561  -0.97234  -0.96221
 Alpha  occ. eigenvalues --   -0.86669  -0.84074  -0.83630  -0.83315  -0.83085
 Alpha  occ. eigenvalues --   -0.82897  -0.82458  -0.81660  -0.80969  -0.80945
 Alpha  occ. eigenvalues --   -0.80623  -0.79549  -0.79033  -0.78287  -0.77647
 Alpha  occ. eigenvalues --   -0.76964  -0.76365  -0.75758  -0.74998  -0.74753
 Alpha  occ. eigenvalues --   -0.73501  -0.72583  -0.72242  -0.71945  -0.70719
 Alpha  occ. eigenvalues --   -0.69956  -0.69449  -0.69316  -0.68835  -0.68305
 Alpha  occ. eigenvalues --   -0.67835  -0.66770  -0.66192  -0.65278  -0.63067
 Alpha  occ. eigenvalues --   -0.62820  -0.62749  -0.61555  -0.60779  -0.60346
 Alpha  occ. eigenvalues --   -0.59507  -0.59247  -0.59117  -0.58941  -0.57614
 Alpha  occ. eigenvalues --   -0.57504  -0.57464  -0.57227  -0.56295  -0.55058
 Alpha  occ. eigenvalues --   -0.54354  -0.53608  -0.53146  -0.52906  -0.52467
 Alpha  occ. eigenvalues --   -0.51979  -0.51153  -0.50832  -0.50472  -0.50010
 Alpha  occ. eigenvalues --   -0.49503  -0.49349  -0.48896  -0.48334  -0.48229
 Alpha  occ. eigenvalues --   -0.48069  -0.47884  -0.47835  -0.47537  -0.47459
 Alpha  occ. eigenvalues --   -0.47211  -0.46798  -0.46547  -0.46493  -0.46285
 Alpha  occ. eigenvalues --   -0.46043  -0.45784  -0.45741  -0.45545  -0.45204
 Alpha  occ. eigenvalues --   -0.45151  -0.44913  -0.44892  -0.44331  -0.44115
 Alpha  occ. eigenvalues --   -0.43984  -0.43534  -0.43480  -0.43393  -0.43144
 Alpha  occ. eigenvalues --   -0.43091  -0.43022  -0.42781  -0.42493  -0.42386
 Alpha  occ. eigenvalues --   -0.42220  -0.41995  -0.41885  -0.41605  -0.41499
 Alpha  occ. eigenvalues --   -0.41311  -0.41051  -0.40822  -0.40692  -0.40513
 Alpha  occ. eigenvalues --   -0.40064  -0.39869  -0.39860  -0.39476  -0.39443
 Alpha  occ. eigenvalues --   -0.38958  -0.38937  -0.38835  -0.38585  -0.38432
 Alpha  occ. eigenvalues --   -0.38309  -0.38110  -0.38048  -0.38034  -0.37724
 Alpha  occ. eigenvalues --   -0.37509  -0.37305  -0.37271  -0.37150  -0.36983
 Alpha  occ. eigenvalues --   -0.36846  -0.36405  -0.36216  -0.36089  -0.35669
 Alpha  occ. eigenvalues --   -0.35665  -0.35585  -0.35389  -0.34943  -0.34664
 Alpha  occ. eigenvalues --   -0.34450  -0.34278  -0.34121  -0.33998  -0.33837
 Alpha  occ. eigenvalues --   -0.33376  -0.32890  -0.32653  -0.32465  -0.32089
 Alpha  occ. eigenvalues --   -0.32033  -0.32003  -0.31737  -0.31546  -0.31107
 Alpha  occ. eigenvalues --   -0.30775  -0.30526  -0.30126  -0.29905  -0.29621
 Alpha  occ. eigenvalues --   -0.28677  -0.28501  -0.27688  -0.27307  -0.26152
 Alpha  occ. eigenvalues --   -0.25707  -0.25418  -0.24960  -0.24507  -0.21550
 Alpha  occ. eigenvalues --   -0.18960
 Alpha virt. eigenvalues --   -0.11530  -0.05362  -0.03697  -0.02089  -0.01324
 Alpha virt. eigenvalues --    0.00156   0.00270   0.00444   0.00686   0.02864
 Alpha virt. eigenvalues --    0.03729   0.04459   0.04979   0.05480   0.05872

 Mulliken charges:
               1
     1  Mg   0.982564
     2  C   -0.041406
     3  C   -0.054091
     4  C   -0.087561
     5  C   -0.061433
     6  N   -0.390069
     7  C   -0.013390
     8  C   -0.021407
     9  C   -0.175828
    10  C    0.130270
    11  C    0.025727
    12  C    0.021239
    13  C   -0.028489
    14  C    0.235888
    15  O   -0.292129
    16  O   -0.372130
    17  N   -0.451125
    18  C    0.106911
    19  C   -0.146494
    20  C   -0.116991
    21  C    0.180137
    22  C    0.041566
    23  C    0.066230
    24  O   -0.231348
    25  C   -0.021974
    26  N   -0.410187
    27  C    0.088655
    28  C   -0.116038
    29  C   -0.119527
    30  C    0.135265
    31  C    0.037794
    32  C   -0.023560
    33  C   -0.060720
    34  N   -0.567300
    35  C    0.113650
    36  C   -0.168591
    37  C   -0.017018
    38  C    0.186168
    39  C    0.051214
    40  C    0.108680
    41  O   -0.209863
    42  C   -0.055617
    43  C    0.281965
    44  O   -0.232674
    45  O   -0.375483
    46  C    0.126856
    47  C    0.226968
    48  C   -0.156285
    49  C   -0.159675
    50  C    0.044828
    51  C   -0.056441
    52  C   -0.032294
    53  C    0.020273
    54  C   -0.281319
    55  C   -0.016073
    56  C    0.031376
    57  C   -0.041929
    58  C   -0.003297
    59  C   -0.222989
    60  C   -0.018279
    61  C   -0.011115
    62  C   -0.057776
    63  C   -0.001592
    64  C   -0.217740
    65  C   -0.031887
    66  C   -0.017454
    67  H    0.013818
    68  H   -0.010687
    69  H    0.003354
    70  H    0.047582
    71  H    0.050205
    72  H    0.047852
    73  H    0.039011
    74  H    0.053498
    75  H    0.055732
    76  H    0.040815
    77  H    0.069831
    78  H    0.066141
    79  H    0.051248
    80  H    0.061201
    81  H    0.064558
    82  H    0.064806
    83  H    0.067460
    84  H    0.052456
    85  H    0.049854
    86  H    0.039608
    87  H    0.045184
    88  H    0.052390
    89  H    0.031238
    90  H    0.046620
    91  H    0.038586
    92  H    0.033599
    93  H    0.032915
    94  H    0.049666
    95  H    0.051493
    96  H    0.045307
    97  H    0.055240
    98  H    0.055321
    99  H    0.063966
   100  H    0.048232
   101  H    0.075607
   102  H    0.071346
   103  H    0.029069
   104  H    0.028659
   105  H    0.041877
   106  H    0.033975
   107  H    0.065398
   108  H    0.041500
   109  H    0.017062
   110  H    0.040619
   111  H    0.037968
   112  H    0.030735
   113  H    0.035152
   114  H    0.041007
   115  H    0.029595
   116  H    0.034080
   117  H    0.036081
   118  H    0.020824
   119  H    0.022982
   120  H    0.033622
   121  H    0.028688
   122  H    0.019244
   123  H    0.023786
   124  H    0.032075
   125  H    0.037344
   126  H    0.028454
   127  H    0.026367
   128  H    0.029866
   129  H    0.039034
   130  H    0.020282
   131  H    0.023981
   132  H    0.042622
   133  H    0.019963
   134  H    0.037270
   135  H    0.026327
   136  H    0.041686
   137  H    0.030502
   138  H    0.026149
   139  H    0.033592
   140  H    0.031875
 Sum of Mulliken charges =  -0.00000

 Dipole moment (field-independent basis, Debye):
    X=              1.2163    Y=              6.1397    Z=              1.7696  Tot=              6.5044
 Quadrupole moment (field-independent basis, Debye-Ang):
   XX=           -405.1198   YY=           -404.2660   ZZ=           -396.1022
   XY=            -44.7634   XZ=            -27.0972   YZ=            -38.8896

 Normal termination of Gaussian 16 at Thu Apr 28 00:09:18 2022.
