 Gaussian 16, Revision A.03,
 Gaussian 16:  ES64L-G16RevA.03 25-Dec-2016

 --------------------------------
 #p wB97XD/Def2SVP td=(nstates=5)
 --------------------------------

 -----------------------------------------------------
 step_1351_chromophore_26 TDDFT with wB97XD functional
 -----------------------------------------------------
 Symbolic Z-matrix:
 Charge =  0 Multiplicity = 1

                         Standard orientation:
 ---------------------------------------------------------------------
 Center     Atomic      Atomic             Coordinates (Angstroms)
 Number     Number       Type             X           Y           Z
 ---------------------------------------------------------------------
      1         12           0       -4.030524    1.433845    0.570082
      2          6           0       -5.215844   -1.828966    0.074198
      3          6           0       -2.243822    0.206344    3.412366
      4          6           0       -2.367671    4.427448    0.896999
      5          6           0       -4.665136    2.245356   -2.725022
      6          7           0       -3.639204   -0.629120    1.476581
      7          6           0       -4.343522   -1.811438    1.135271
      8          6           0       -3.966253   -2.936031    2.025375
      9          6           0       -3.372124   -2.170983    3.313407
     10          6           0       -3.084009   -0.716431    2.727886
     11          6           0       -4.171810   -2.254185    4.640107
     12          6           0       -3.082386   -4.058909    1.415648
     13          6           0       -2.369863   -3.671843    0.010881
     14          6           0       -1.162735   -4.389139   -0.507268
     15          8           0       -1.235170   -5.185623   -1.458852
     16          8           0       -0.025412   -4.150693    0.234976
     17          7           0       -2.576007    2.243628    1.967426
     18          6           0       -1.942457    1.543616    3.006845
     19          6           0       -0.990488    2.474816    3.654125
     20          6           0       -1.094230    3.715187    2.958234
     21          6           0       -2.039203    3.465244    1.878689
     22          6           0       -0.258409    2.022072    4.883621
     23          6           0       -0.333073    4.926925    3.520061
     24          8           0        0.490402    4.851040    4.418900
     25          6           0       -0.699615    6.258828    3.049786
     26          7           0       -3.619294    3.073197   -0.741479
     27          6           0       -3.005814    4.272819   -0.333162
     28          6           0       -3.026777    5.335659   -1.403202
     29          6           0       -3.549340    4.532936   -2.715339
     30          6           0       -4.053840    3.220016   -2.013680
     31          6           0       -3.606132    6.710260   -1.115126
     32          6           0       -2.472935    4.332916   -3.876637
     33          6           0       -2.536948    5.323328   -4.954860
     34          7           0       -4.997595    0.583255   -0.916221
     35          6           0       -5.222762    1.045563   -2.249262
     36          6           0       -5.974858    0.031793   -2.930776
     37          6           0       -6.101453   -1.040071   -2.029882
     38          6           0       -5.404608   -0.705159   -0.835855
     39          6           0       -6.451600    0.173355   -4.334563
     40          6           0       -6.642267   -2.351656   -1.842547
     41          8           0       -7.291086   -3.041888   -2.603757
     42          6           0       -6.239761   -2.857714   -0.427955
     43          6           0       -7.431816   -3.065452    0.438887
     44          8           0       -7.597747   -4.149336    0.934024
     45          8           0       -8.203954   -1.918276    0.566759
     46          6           0       -9.281189   -2.174875    1.542959
     47          6           0        1.146882   -5.040072    0.006004
     48          6           0        2.407391   -4.200262   -0.306033
     49          6           0        2.580791   -3.611999   -1.532847
     50          6           0        1.637480   -3.544888   -2.691587
     51          6           0        4.010057   -3.161730   -1.942835
     52          6           0        4.309860   -1.673072   -2.478546
     53          6           0        5.786744   -1.328890   -2.411200
     54          6           0        6.087028   -0.050165   -1.636516
     55          6           0        5.589125    1.178173   -2.482095
     56          6           0        7.553952    0.013975   -1.176799
     57          6           0        7.778724   -0.469810    0.277422
     58          6           0        8.884552   -1.586799    0.532493
     59          6           0       10.163757   -1.197850    1.325137
     60          6           0       10.117245   -1.584776    2.869853
     61          6           0       11.507124   -1.652641    0.634829
     62          6           0       12.740805   -0.724266    0.994409
     63          6           0       13.324298   -0.115460   -0.286358
     64          6           0       12.800540    1.350578   -0.553004
     65          6           0       11.778600    1.298918   -1.695585
     66          6           0       13.774748    2.525905   -0.699866
     67          1           0       -1.759126   -0.057218    4.355251
     68          1           0       -1.873000    5.393036    1.021438
     69          1           0       -5.002538    2.381409   -3.754534
     70          1           0       -4.898933   -3.436973    2.284081
     71          1           0       -2.391245   -2.555341    3.594429
     72          1           0       -5.061626   -2.833257    4.389603
     73          1           0       -4.499636   -1.247905    4.902922
     74          1           0       -3.543627   -2.624963    5.449818
     75          1           0       -3.617417   -5.003270    1.316139
     76          1           0       -2.236008   -4.358740    2.033750
     77          1           0       -1.903739   -2.687409    0.066038
     78          1           0       -3.117484   -3.678541   -0.783005
     79          1           0        0.324870    1.142538    4.612118
     80          1           0       -1.017259    1.806092    5.636377
     81          1           0        0.521843    2.636932    5.331092
     82          1           0       -1.761924    6.312303    2.809055
     83          1           0       -0.068220    6.546942    2.209573
     84          1           0       -0.410858    7.008272    3.786814
     85          1           0       -1.976337    5.495058   -1.646188
     86          1           0       -4.364699    5.106885   -3.155139
     87          1           0       -2.924583    7.524007   -1.363632
     88          1           0       -4.050533    6.869683   -0.133168
     89          1           0       -4.393502    6.706552   -1.868365
     90          1           0       -2.511958    3.365876   -4.377552
     91          1           0       -1.494080    4.450974   -3.412617
     92          1           0       -1.903191    6.151454   -4.634451
     93          1           0       -3.549182    5.711749   -5.059937
     94          1           0       -2.191524    4.955625   -5.920787
     95          1           0       -6.720887   -0.759018   -4.830835
     96          1           0       -5.694778    0.612999   -4.983457
     97          1           0       -7.375853    0.748043   -4.399855
     98          1           0       -5.755257   -3.832006   -0.482733
     99          1           0       -9.951320   -1.317325    1.478776
    100          1           0       -8.818352   -2.198560    2.529756
    101          1           0       -9.721112   -3.150654    1.340939
    102          1           0        1.064247   -5.887659   -0.673370
    103          1           0        1.346655   -5.543928    0.951800
    104          1           0        3.195771   -4.229784    0.445891
    105          1           0        2.009451   -4.249892   -3.435825
    106          1           0        1.823198   -2.612352   -3.223773
    107          1           0        0.592134   -3.738788   -2.452694
    108          1           0        4.351903   -3.858927   -2.708276
    109          1           0        4.617067   -3.521067   -1.111518
    110          1           0        3.761159   -0.982575   -1.839071
    111          1           0        3.888984   -1.611143   -3.481641
    112          1           0        6.079942   -1.141117   -3.444411
    113          1           0        6.373782   -2.160828   -2.022275
    114          1           0        5.426432    0.118979   -0.785921
    115          1           0        5.313607    0.855832   -3.486401
    116          1           0        6.315046    1.985572   -2.579353
    117          1           0        4.713360    1.563902   -1.959972
    118          1           0        7.910397    1.028264   -1.360527
    119          1           0        8.134789   -0.637087   -1.829917
    120          1           0        6.769767   -0.801533    0.524470
    121          1           0        8.105312    0.301770    0.973894
    122          1           0        9.257798   -1.956598   -0.422186
    123          1           0        8.435967   -2.374371    1.137627
    124          1           0       10.064307   -0.113641    1.363837
    125          1           0       11.013572   -2.112880    3.191346
    126          1           0        9.189763   -2.082699    3.152093
    127          1           0       10.045740   -0.690229    3.488059
    128          1           0       11.331321   -1.622058   -0.440131
    129          1           0       11.787508   -2.637357    1.009062
    130          1           0       13.417336   -1.341588    1.585502
    131          1           0       12.562335    0.068401    1.720865
    132          1           0       13.223890   -0.843443   -1.090813
    133          1           0       14.357407    0.012573    0.037223
    134          1           0       12.197784    1.746976    0.263185
    135          1           0       11.094398    2.141482   -1.597945
    136          1           0       11.242564    0.350704   -1.729664
    137          1           0       12.290979    1.517523   -2.632826
    138          1           0       13.680315    3.064496   -1.643172
    139          1           0       14.828188    2.260745   -0.606444
    140          1           0       13.543894    3.265435    0.067498
 ---------------------------------------------------------------------

 SCF Done:  E(RwB97XD) =  -3007.84118226     A.U. after   19 cycles

 Excitation energies and oscillator strengths:

 Excited State   1:      Singlet-A      1.6445 eV  753.94 nm  f=0.3415  <S**2>=0.000
     245 -> 248        0.16446
     246 -> 247        0.68871
     245 <- 248        0.11133
 This state for optimization and/or second-order correction.
 Total Energy, E(TD-HF/TD-DFT) =  -3007.78074853
 Copying the excited state density for this state as the 1-particle RhoCI density.

 Excited State   2:      Singlet-A      2.2179 eV  559.02 nm  f=0.0976  <S**2>=0.000
     245 -> 247        0.62983
     246 -> 248       -0.30185

 Excited State   3:      Singlet-A      3.3295 eV  372.38 nm  f=0.0064  <S**2>=0.000
     241 -> 247        0.61701
     243 -> 247       -0.26136
     246 -> 248        0.13195

 Excited State   4:      Singlet-A      3.4145 eV  363.11 nm  f=0.0345  <S**2>=0.000
     241 -> 247        0.19694
     243 -> 247        0.58162
     243 -> 249        0.11422
     246 -> 248        0.26532

 Excited State   5:      Singlet-A      3.5840 eV  345.94 nm  f=0.4055  <S**2>=0.000
     242 -> 247        0.40776
     242 -> 249        0.14140
     242 -> 250       -0.12297
     243 -> 247        0.18923
     245 -> 247       -0.24345
     246 -> 248       -0.39678

 The electronic state is 1-A.
 Alpha  occ. eigenvalues --  -46.95288 -19.30811 -19.30028 -19.25418 -19.24274
 Alpha  occ. eigenvalues --  -19.23665 -19.22692 -14.47255 -14.46846 -14.45011
 Alpha  occ. eigenvalues --  -14.43616 -10.43231 -10.42626 -10.39542 -10.37672
 Alpha  occ. eigenvalues --  -10.36686 -10.36029 -10.35629 -10.35543 -10.35541
 Alpha  occ. eigenvalues --  -10.35356 -10.35056 -10.34288 -10.33437 -10.32966
 Alpha  occ. eigenvalues --  -10.32917 -10.32844 -10.32730 -10.32682 -10.32616
 Alpha  occ. eigenvalues --  -10.32503 -10.32395 -10.32098 -10.31843 -10.31661
 Alpha  occ. eigenvalues --  -10.31232 -10.31221 -10.31153 -10.30902 -10.30781
 Alpha  occ. eigenvalues --  -10.30537 -10.30406 -10.30151 -10.30022 -10.29986
 Alpha  occ. eigenvalues --  -10.29618 -10.29580 -10.29548 -10.29495 -10.29413
 Alpha  occ. eigenvalues --  -10.29298 -10.29235 -10.29171 -10.29016 -10.28887
 Alpha  occ. eigenvalues --  -10.28787 -10.28697 -10.28658 -10.28525 -10.28455
 Alpha  occ. eigenvalues --  -10.28450 -10.28302 -10.28241 -10.28200 -10.28193
 Alpha  occ. eigenvalues --  -10.27879  -3.21323  -1.94874  -1.94446  -1.94294
 Alpha  occ. eigenvalues --   -1.18835  -1.16806  -1.12915  -1.11316  -1.11302
 Alpha  occ. eigenvalues --   -1.08277  -1.05963  -1.04970  -1.04615  -1.03483
 Alpha  occ. eigenvalues --   -0.94120  -0.91759  -0.91218  -0.90989  -0.90737
 Alpha  occ. eigenvalues --   -0.90560  -0.90128  -0.89394  -0.88775  -0.88634
 Alpha  occ. eigenvalues --   -0.88154  -0.87232  -0.86577  -0.85950  -0.85364
 Alpha  occ. eigenvalues --   -0.84744  -0.84077  -0.83425  -0.82543  -0.82377
 Alpha  occ. eigenvalues --   -0.81172  -0.80174  -0.80098  -0.79511  -0.78257
 Alpha  occ. eigenvalues --   -0.77565  -0.77158  -0.76993  -0.76543  -0.75996
 Alpha  occ. eigenvalues --   -0.75333  -0.74330  -0.73801  -0.72900  -0.70632
 Alpha  occ. eigenvalues --   -0.70426  -0.70205  -0.69269  -0.68426  -0.67828
 Alpha  occ. eigenvalues --   -0.67106  -0.66722  -0.66611  -0.66457  -0.65168
 Alpha  occ. eigenvalues --   -0.64997  -0.64908  -0.64906  -0.63954  -0.62682
 Alpha  occ. eigenvalues --   -0.61663  -0.61028  -0.60558  -0.60286  -0.59884
 Alpha  occ. eigenvalues --   -0.59364  -0.58700  -0.58361  -0.57794  -0.57308
 Alpha  occ. eigenvalues --   -0.56987  -0.56733  -0.56184  -0.55830  -0.55587
 Alpha  occ. eigenvalues --   -0.55388  -0.55350  -0.55227  -0.54959  -0.54784
 Alpha  occ. eigenvalues --   -0.54663  -0.54277  -0.53946  -0.53925  -0.53687
 Alpha  occ. eigenvalues --   -0.53426  -0.53153  -0.53124  -0.52886  -0.52767
 Alpha  occ. eigenvalues --   -0.52537  -0.52297  -0.52037  -0.51792  -0.51423
 Alpha  occ. eigenvalues --   -0.51265  -0.50845  -0.50703  -0.50675  -0.50456
 Alpha  occ. eigenvalues --   -0.50392  -0.50299  -0.50049  -0.49777  -0.49640
 Alpha  occ. eigenvalues --   -0.49522  -0.49323  -0.49182  -0.48932  -0.48766
 Alpha  occ. eigenvalues --   -0.48588  -0.48395  -0.48056  -0.47788  -0.47731
 Alpha  occ. eigenvalues --   -0.47187  -0.46987  -0.46879  -0.46717  -0.46618
 Alpha  occ. eigenvalues --   -0.46190  -0.46104  -0.45740  -0.45718  -0.45667
 Alpha  occ. eigenvalues --   -0.45473  -0.45289  -0.45274  -0.45023  -0.44915
 Alpha  occ. eigenvalues --   -0.44670  -0.44426  -0.44330  -0.44224  -0.44123
 Alpha  occ. eigenvalues --   -0.43923  -0.43778  -0.43325  -0.43144  -0.42767
 Alpha  occ. eigenvalues --   -0.42651  -0.42619  -0.42458  -0.41942  -0.41702
 Alpha  occ. eigenvalues --   -0.41514  -0.41288  -0.41201  -0.40955  -0.40885
 Alpha  occ. eigenvalues --   -0.40459  -0.39918  -0.39653  -0.39416  -0.39151
 Alpha  occ. eigenvalues --   -0.39040  -0.39017  -0.38652  -0.38490  -0.38159
 Alpha  occ. eigenvalues --   -0.37796  -0.37494  -0.37112  -0.36858  -0.36444
 Alpha  occ. eigenvalues --   -0.35442  -0.35264  -0.34765  -0.33960  -0.33557
 Alpha  occ. eigenvalues --   -0.32730  -0.31925  -0.31403  -0.31214  -0.26682
 Alpha  occ. eigenvalues --   -0.23155
 Alpha virt. eigenvalues --   -0.07384   0.00075   0.02565   0.04513   0.04600
 Alpha virt. eigenvalues --    0.06845   0.06948   0.07304   0.07607   0.09478
 Alpha virt. eigenvalues --    0.10555   0.10912   0.11639   0.12185   0.12463

 Mulliken charges:
               1
     1  Mg   0.972765
     2  C   -0.046537
     3  C   -0.073617
     4  C   -0.109039
     5  C   -0.070998
     6  N   -0.357598
     7  C   -0.034044
     8  C   -0.003139
     9  C   -0.151295
    10  C    0.119070
    11  C    0.036840
    12  C    0.026479
    13  C   -0.004490
    14  C    0.224964
    15  O   -0.288643
    16  O   -0.372486
    17  N   -0.420395
    18  C    0.105415
    19  C   -0.135259
    20  C   -0.115202
    21  C    0.185408
    22  C    0.053628
    23  C    0.062538
    24  O   -0.224621
    25  C   -0.010902
    26  N   -0.380559
    27  C    0.081053
    28  C   -0.091632
    29  C   -0.091929
    30  C    0.118488
    31  C    0.048731
    32  C   -0.008307
    33  C   -0.045015
    34  N   -0.531417
    35  C    0.099609
    36  C   -0.165307
    37  C   -0.009949
    38  C    0.161017
    39  C    0.057880
    40  C    0.089776
    41  O   -0.203167
    42  C   -0.010475
    43  C    0.258345
    44  O   -0.229611
    45  O   -0.376190
    46  C    0.142673
    47  C    0.241405
    48  C   -0.163126
    49  C   -0.153354
    50  C    0.064257
    51  C   -0.035375
    52  C   -0.017321
    53  C    0.038506
    54  C   -0.248633
    55  C   -0.005562
    56  C    0.045100
    57  C   -0.021243
    58  C    0.012227
    59  C   -0.192198
    60  C   -0.007453
    61  C    0.009152
    62  C   -0.046057
    63  C    0.020084
    64  C   -0.192496
    65  C   -0.013714
    66  C   -0.007163
    67  H    0.010525
    68  H   -0.022090
    69  H   -0.003969
    70  H    0.035293
    71  H    0.040295
    72  H    0.042870
    73  H    0.032104
    74  H    0.049636
    75  H    0.051255
    76  H    0.033084
    77  H    0.058675
    78  H    0.057899
    79  H    0.046806
    80  H    0.057056
    81  H    0.063916
    82  H    0.059723
    83  H    0.064889
    84  H    0.052106
    85  H    0.036627
    86  H    0.025344
    87  H    0.040883
    88  H    0.047454
    89  H    0.024399
    90  H    0.039638
    91  H    0.028384
    92  H    0.025841
    93  H    0.025793
    94  H    0.045102
    95  H    0.047029
    96  H    0.038481
    97  H    0.048754
    98  H    0.047606
    99  H    0.061262
   100  H    0.042787
   101  H    0.071055
   102  H    0.067194
   103  H    0.025250
   104  H    0.026508
   105  H    0.035801
   106  H    0.026736
   107  H    0.056796
   108  H    0.032260
   109  H    0.007377
   110  H    0.029965
   111  H    0.030406
   112  H    0.020884
   113  H    0.024542
   114  H    0.026225
   115  H    0.022525
   116  H    0.028612
   117  H    0.030536
   118  H    0.012901
   119  H    0.011626
   120  H    0.023426
   121  H    0.019648
   122  H    0.007658
   123  H    0.014905
   124  H    0.013079
   125  H    0.031382
   126  H    0.022438
   127  H    0.020716
   128  H    0.015787
   129  H    0.031296
   130  H    0.013896
   131  H    0.014295
   132  H    0.034993
   133  H    0.010675
   134  H    0.024219
   135  H    0.020405
   136  H    0.030429
   137  H    0.023247
   138  H    0.020240
   139  H    0.028090
   140  H    0.026626
 Sum of Mulliken charges =  -0.00000

 Dipole moment (field-independent basis, Debye):
    X=              1.7060    Y=              6.4883    Z=              2.5802  Tot=              7.1879
 Quadrupole moment (field-independent basis, Debye-Ang):
   XX=           -408.1040   YY=           -403.0498   ZZ=           -395.3085
   XY=            -45.2474   XZ=            -29.9109   YZ=            -37.3793

 Normal termination of Gaussian 16 at Thu Apr 28 00:40:31 2022.
