 Gaussian 16, Revision A.03,
 Gaussian 16:  ES64L-G16RevA.03 25-Dec-2016

 --------------------
 #p ZINDO=(nstates=5)
 --------------------

 ------------------------------
 step_1351_chromophore_26 ZINDO
 ------------------------------
 Symbolic Z-matrix:
 Charge =  0 Multiplicity = 1

                         Standard orientation:
 ---------------------------------------------------------------------
 Center     Atomic      Atomic             Coordinates (Angstroms)
 Number     Number       Type             X           Y           Z
 ---------------------------------------------------------------------
      1         12           0       -4.030524    1.433845    0.570082
      2          6           0       -5.215844   -1.828966    0.074198
      3          6           0       -2.243822    0.206344    3.412366
      4          6           0       -2.367671    4.427448    0.896999
      5          6           0       -4.665136    2.245356   -2.725022
      6          7           0       -3.639204   -0.629120    1.476581
      7          6           0       -4.343522   -1.811438    1.135271
      8          6           0       -3.966253   -2.936031    2.025375
      9          6           0       -3.372124   -2.170983    3.313407
     10          6           0       -3.084009   -0.716431    2.727886
     11          6           0       -4.171810   -2.254185    4.640107
     12          6           0       -3.082386   -4.058909    1.415648
     13          6           0       -2.369863   -3.671843    0.010881
     14          6           0       -1.162735   -4.389139   -0.507268
     15          8           0       -1.235170   -5.185623   -1.458852
     16          8           0       -0.025412   -4.150693    0.234976
     17          7           0       -2.576007    2.243628    1.967426
     18          6           0       -1.942457    1.543616    3.006845
     19          6           0       -0.990488    2.474816    3.654125
     20          6           0       -1.094230    3.715187    2.958234
     21          6           0       -2.039203    3.465244    1.878689
     22          6           0       -0.258409    2.022072    4.883621
     23          6           0       -0.333073    4.926925    3.520061
     24          8           0        0.490402    4.851040    4.418900
     25          6           0       -0.699615    6.258828    3.049786
     26          7           0       -3.619294    3.073197   -0.741479
     27          6           0       -3.005814    4.272819   -0.333162
     28          6           0       -3.026777    5.335659   -1.403202
     29          6           0       -3.549340    4.532936   -2.715339
     30          6           0       -4.053840    3.220016   -2.013680
     31          6           0       -3.606132    6.710260   -1.115126
     32          6           0       -2.472935    4.332916   -3.876637
     33          6           0       -2.536948    5.323328   -4.954860
     34          7           0       -4.997595    0.583255   -0.916221
     35          6           0       -5.222762    1.045563   -2.249262
     36          6           0       -5.974858    0.031793   -2.930776
     37          6           0       -6.101453   -1.040071   -2.029882
     38          6           0       -5.404608   -0.705159   -0.835855
     39          6           0       -6.451600    0.173355   -4.334563
     40          6           0       -6.642267   -2.351656   -1.842547
     41          8           0       -7.291086   -3.041888   -2.603757
     42          6           0       -6.239761   -2.857714   -0.427955
     43          6           0       -7.431816   -3.065452    0.438887
     44          8           0       -7.597747   -4.149336    0.934024
     45          8           0       -8.203954   -1.918276    0.566759
     46          6           0       -9.281189   -2.174875    1.542959
     47          6           0        1.146882   -5.040072    0.006004
     48          6           0        2.407391   -4.200262   -0.306033
     49          6           0        2.580791   -3.611999   -1.532847
     50          6           0        1.637480   -3.544888   -2.691587
     51          6           0        4.010057   -3.161730   -1.942835
     52          6           0        4.309860   -1.673072   -2.478546
     53          6           0        5.786744   -1.328890   -2.411200
     54          6           0        6.087028   -0.050165   -1.636516
     55          6           0        5.589125    1.178173   -2.482095
     56          6           0        7.553952    0.013975   -1.176799
     57          6           0        7.778724   -0.469810    0.277422
     58          6           0        8.884552   -1.586799    0.532493
     59          6           0       10.163757   -1.197850    1.325137
     60          6           0       10.117245   -1.584776    2.869853
     61          6           0       11.507124   -1.652641    0.634829
     62          6           0       12.740805   -0.724266    0.994409
     63          6           0       13.324298   -0.115460   -0.286358
     64          6           0       12.800540    1.350578   -0.553004
     65          6           0       11.778600    1.298918   -1.695585
     66          6           0       13.774748    2.525905   -0.699866
     67          1           0       -1.759126   -0.057218    4.355251
     68          1           0       -1.873000    5.393036    1.021438
     69          1           0       -5.002538    2.381409   -3.754534
     70          1           0       -4.898933   -3.436973    2.284081
     71          1           0       -2.391245   -2.555341    3.594429
     72          1           0       -5.061626   -2.833257    4.389603
     73          1           0       -4.499636   -1.247905    4.902922
     74          1           0       -3.543627   -2.624963    5.449818
     75          1           0       -3.617417   -5.003270    1.316139
     76          1           0       -2.236008   -4.358740    2.033750
     77          1           0       -1.903739   -2.687409    0.066038
     78          1           0       -3.117484   -3.678541   -0.783005
     79          1           0        0.324870    1.142538    4.612118
     80          1           0       -1.017259    1.806092    5.636377
     81          1           0        0.521843    2.636932    5.331092
     82          1           0       -1.761924    6.312303    2.809055
     83          1           0       -0.068220    6.546942    2.209573
     84          1           0       -0.410858    7.008272    3.786814
     85          1           0       -1.976337    5.495058   -1.646188
     86          1           0       -4.364699    5.106885   -3.155139
     87          1           0       -2.924583    7.524007   -1.363632
     88          1           0       -4.050533    6.869683   -0.133168
     89          1           0       -4.393502    6.706552   -1.868365
     90          1           0       -2.511958    3.365876   -4.377552
     91          1           0       -1.494080    4.450974   -3.412617
     92          1           0       -1.903191    6.151454   -4.634451
     93          1           0       -3.549182    5.711749   -5.059937
     94          1           0       -2.191524    4.955625   -5.920787
     95          1           0       -6.720887   -0.759018   -4.830835
     96          1           0       -5.694778    0.612999   -4.983457
     97          1           0       -7.375853    0.748043   -4.399855
     98          1           0       -5.755257   -3.832006   -0.482733
     99          1           0       -9.951320   -1.317325    1.478776
    100          1           0       -8.818352   -2.198560    2.529756
    101          1           0       -9.721112   -3.150654    1.340939
    102          1           0        1.064247   -5.887659   -0.673370
    103          1           0        1.346655   -5.543928    0.951800
    104          1           0        3.195771   -4.229784    0.445891
    105          1           0        2.009451   -4.249892   -3.435825
    106          1           0        1.823198   -2.612352   -3.223773
    107          1           0        0.592134   -3.738788   -2.452694
    108          1           0        4.351903   -3.858927   -2.708276
    109          1           0        4.617067   -3.521067   -1.111518
    110          1           0        3.761159   -0.982575   -1.839071
    111          1           0        3.888984   -1.611143   -3.481641
    112          1           0        6.079942   -1.141117   -3.444411
    113          1           0        6.373782   -2.160828   -2.022275
    114          1           0        5.426432    0.118979   -0.785921
    115          1           0        5.313607    0.855832   -3.486401
    116          1           0        6.315046    1.985572   -2.579353
    117          1           0        4.713360    1.563902   -1.959972
    118          1           0        7.910397    1.028264   -1.360527
    119          1           0        8.134789   -0.637087   -1.829917
    120          1           0        6.769767   -0.801533    0.524470
    121          1           0        8.105312    0.301770    0.973894
    122          1           0        9.257798   -1.956598   -0.422186
    123          1           0        8.435967   -2.374371    1.137627
    124          1           0       10.064307   -0.113641    1.363837
    125          1           0       11.013572   -2.112880    3.191346
    126          1           0        9.189763   -2.082699    3.152093
    127          1           0       10.045740   -0.690229    3.488059
    128          1           0       11.331321   -1.622058   -0.440131
    129          1           0       11.787508   -2.637357    1.009062
    130          1           0       13.417336   -1.341588    1.585502
    131          1           0       12.562335    0.068401    1.720865
    132          1           0       13.223890   -0.843443   -1.090813
    133          1           0       14.357407    0.012573    0.037223
    134          1           0       12.197784    1.746976    0.263185
    135          1           0       11.094398    2.141482   -1.597945
    136          1           0       11.242564    0.350704   -1.729664
    137          1           0       12.290979    1.517523   -2.632826
    138          1           0       13.680315    3.064496   -1.643172
    139          1           0       14.828188    2.260745   -0.606444
    140          1           0       13.543894    3.265435    0.067498
 ---------------------------------------------------------------------

 SCF Done:  E(RZINDO/S) =  -473.985839624     A.U. after   19 cycles

 Excitation energies and oscillator strengths:

 Excited State   1:      Singlet-A      1.2692 eV  976.90 nm  f=0.5283  <S**2>=0.000
     175 ->178         0.15318
     176 ->177         0.67433
 This state for optimization and/or second-order correction.
 Total Energy, E(CIS/TDA) =  -473.939198652
 Copying the excited state density for this state as the 1-particle RhoCI density.

 Excited State   2:      Singlet-A      1.9550 eV  634.20 nm  f=0.0348  <S**2>=0.000
     175 ->177         0.53511
     176 ->178        -0.42638

 Excited State   3:      Singlet-A      2.9721 eV  417.16 nm  f=0.5917  <S**2>=0.000
     168 ->177         0.15855
     168 ->179        -0.24085
     168 ->181         0.13700
     168 ->185         0.12644
     170 ->177         0.13919
     175 ->177         0.30014
     176 ->178         0.40056
     176 ->180         0.15888

 Excited State   4:      Singlet-A      2.9938 eV  414.13 nm  f=0.2469  <S**2>=0.000
     168 ->177         0.24612
     168 ->178        -0.12527
     168 ->179        -0.37676
     168 ->181         0.22216
     168 ->185         0.19150
     175 ->177        -0.19408
     176 ->178        -0.24966
     176 ->180        -0.11599

 Excited State   5:      Singlet-A      3.0516 eV  406.29 nm  f=0.0614  <S**2>=0.000
     170 ->177         0.11391
     171 ->177         0.19746
     171 ->179         0.22345
     171 ->181         0.30918
     171 ->184        -0.11194
     171 ->185        -0.17247
     171 ->187         0.13970
     172 ->177         0.15546
     172 ->179         0.11065
     172 ->181         0.14364
     176 ->180         0.19560

 The electronic state is 1-A.
 Alpha  occ. eigenvalues --   -1.82887  -1.80278  -1.77606  -1.72761  -1.70643
 Alpha  occ. eigenvalues --   -1.68937  -1.64017  -1.61323  -1.60619  -1.58081
 Alpha  occ. eigenvalues --   -1.52840  -1.50052  -1.49085  -1.48540  -1.46262
 Alpha  occ. eigenvalues --   -1.45487  -1.42314  -1.41234  -1.39095  -1.38518
 Alpha  occ. eigenvalues --   -1.36414  -1.33307  -1.32317  -1.30896  -1.30074
 Alpha  occ. eigenvalues --   -1.27868  -1.26165  -1.23146  -1.21311  -1.18060
 Alpha  occ. eigenvalues --   -1.16783  -1.15447  -1.13890  -1.13236  -1.12393
 Alpha  occ. eigenvalues --   -1.11872  -1.11779  -1.10792  -1.05773  -1.04032
 Alpha  occ. eigenvalues --   -1.03339  -1.02162  -1.00228  -0.97830  -0.97384
 Alpha  occ. eigenvalues --   -0.94539  -0.94300  -0.92953  -0.92383  -0.91263
 Alpha  occ. eigenvalues --   -0.91059  -0.90667  -0.88392  -0.88052  -0.86707
 Alpha  occ. eigenvalues --   -0.86240  -0.84456  -0.83821  -0.81982  -0.81025
 Alpha  occ. eigenvalues --   -0.79092  -0.78905  -0.77811  -0.77127  -0.76993
 Alpha  occ. eigenvalues --   -0.76422  -0.75695  -0.75247  -0.73835  -0.73356
 Alpha  occ. eigenvalues --   -0.72635  -0.72415  -0.71407  -0.71309  -0.70793
 Alpha  occ. eigenvalues --   -0.70650  -0.69437  -0.69334  -0.68832  -0.68080
 Alpha  occ. eigenvalues --   -0.67446  -0.67025  -0.66659  -0.66401  -0.66322
 Alpha  occ. eigenvalues --   -0.65374  -0.65150  -0.64702  -0.64291  -0.63885
 Alpha  occ. eigenvalues --   -0.63687  -0.63212  -0.62506  -0.62445  -0.61763
 Alpha  occ. eigenvalues --   -0.61536  -0.61292  -0.60694  -0.60121  -0.59814
 Alpha  occ. eigenvalues --   -0.59770  -0.59050  -0.58579  -0.58073  -0.57465
 Alpha  occ. eigenvalues --   -0.57458  -0.57086  -0.56732  -0.56149  -0.56061
 Alpha  occ. eigenvalues --   -0.55703  -0.55541  -0.55206  -0.55018  -0.54598
 Alpha  occ. eigenvalues --   -0.54344  -0.54039  -0.53931  -0.53709  -0.53352
 Alpha  occ. eigenvalues --   -0.53099  -0.52703  -0.52337  -0.51845  -0.51770
 Alpha  occ. eigenvalues --   -0.51282  -0.51073  -0.50920  -0.50424  -0.50234
 Alpha  occ. eigenvalues --   -0.49855  -0.49463  -0.49429  -0.49220  -0.49089
 Alpha  occ. eigenvalues --   -0.49059  -0.48638  -0.48165  -0.48042  -0.47979
 Alpha  occ. eigenvalues --   -0.47710  -0.47610  -0.47491  -0.46698  -0.46569
 Alpha  occ. eigenvalues --   -0.46129  -0.45952  -0.45928  -0.45744  -0.45618
 Alpha  occ. eigenvalues --   -0.45301  -0.45029  -0.44455  -0.44378  -0.44135
 Alpha  occ. eigenvalues --   -0.43985  -0.43260  -0.43132  -0.43001  -0.42763
 Alpha  occ. eigenvalues --   -0.42359  -0.41598  -0.41404  -0.39375  -0.38449
 Alpha  occ. eigenvalues --   -0.38181  -0.37524  -0.36380  -0.34935  -0.34325
 Alpha  occ. eigenvalues --   -0.34090  -0.33226  -0.31882  -0.31849  -0.27656
 Alpha  occ. eigenvalues --   -0.22235
 Alpha virt. eigenvalues --   -0.08966  -0.02406  -0.00685   0.00688   0.01155
 Alpha virt. eigenvalues --    0.01767   0.02282   0.02987   0.03881   0.04497
 Alpha virt. eigenvalues --    0.05840   0.06143   0.06846   0.07123   0.07268

 Mulliken charges:
               1
     1  Mg   0.433002
     2  C   -0.029281
     3  C   -0.077606
     4  C   -0.105028
     5  C   -0.053178
     6  N   -0.299193
     7  C    0.101033
     8  C    0.015696
     9  C   -0.007511
    10  C    0.169393
    11  C   -0.048756
    12  C   -0.012870
    13  C   -0.002310
    14  C    0.470538
    15  O   -0.527104
    16  O   -0.268021
    17  N   -0.331169
    18  C    0.124031
    19  C    0.058359
    20  C   -0.054586
    21  C    0.181059
    22  C   -0.033081
    23  C    0.341717
    24  O   -0.519817
    25  C   -0.027906
    26  N   -0.289988
    27  C    0.168399
    28  C    0.003799
    29  C   -0.013701
    30  C    0.098158
    31  C   -0.048275
    32  C   -0.022564
    33  C   -0.051457
    34  N   -0.321885
    35  C    0.049664
    36  C    0.019228
    37  C   -0.061760
    38  C    0.097447
    39  C   -0.037858
    40  C    0.332569
    41  O   -0.528728
    42  C    0.055927
    43  C    0.493192
    44  O   -0.510431
    45  O   -0.266752
    46  C    0.073730
    47  C    0.100358
    48  C   -0.105612
    49  C    0.008403
    50  C   -0.041463
    51  C   -0.041809
    52  C   -0.028491
    53  C   -0.022284
    54  C   -0.015164
    55  C   -0.064969
    56  C   -0.031061
    57  C   -0.044413
    58  C   -0.042457
    59  C   -0.022870
    60  C   -0.064619
    61  C   -0.036249
    62  C   -0.043262
    63  C   -0.029396
    64  C   -0.012956
    65  C   -0.058585
    66  C   -0.052625
    67  H    0.038928
    68  H    0.020574
    69  H    0.023024
    70  H    0.030792
    71  H    0.025237
    72  H    0.032110
    73  H    0.019640
    74  H    0.031018
    75  H    0.035914
    76  H    0.022953
    77  H    0.038898
    78  H    0.042805
    79  H    0.027327
    80  H    0.034950
    81  H    0.044243
    82  H    0.033294
    83  H    0.045041
    84  H    0.036413
    85  H    0.024528
    86  H    0.029875
    87  H    0.024636
    88  H    0.029242
    89  H    0.021728
    90  H    0.027039
    91  H    0.016722
    92  H    0.011517
    93  H    0.017150
    94  H    0.022033
    95  H    0.025032
    96  H    0.021532
    97  H    0.029134
    98  H    0.050887
    99  H    0.034808
   100  H    0.034190
   101  H    0.058200
   102  H    0.062935
   103  H    0.020660
   104  H    0.038145
   105  H    0.029494
   106  H    0.024372
   107  H    0.042117
   108  H    0.019815
   109  H    0.016289
   110  H    0.020159
   111  H    0.025027
   112  H    0.017285
   113  H    0.019699
   114  H    0.021881
   115  H    0.018531
   116  H    0.018796
   117  H    0.015784
   118  H    0.018065
   119  H    0.016638
   120  H    0.022605
   121  H    0.023968
   122  H    0.020047
   123  H    0.019094
   124  H    0.017888
   125  H    0.024135
   126  H    0.020752
   127  H    0.011285
   128  H    0.025930
   129  H    0.024309
   130  H    0.011990
   131  H    0.020995
   132  H    0.035792
   133  H    0.009132
   134  H    0.018561
   135  H    0.011061
   136  H    0.023009
   137  H    0.015116
   138  H    0.017261
   139  H    0.018166
   140  H    0.015196
 Sum of Mulliken charges =  -0.00000

 Dipole moment (field-independent basis, Debye):
    X=              3.5562    Y=              8.6715    Z=              4.8585  Tot=             10.5568
 N-N= 4.451653486110D+03 E-N= 0.000000000000D+00  KE=-9.576969418322D+03
 Leave Link  601 at Thu Apr 28 00:54:34 2022, MaxMem=  6710886400 cpu:               0.8 elap:               0.0
 (Enter /sw/apps/gaussian-16.0/g16/l9999.exe)
 1\1\GINC-BP1-COMPUTE132\SP\RZINDO CIS\STO-3G\C55H74Mg1N4O6\OF15641\28-
 Apr-2022\0\\#p ZINDO=(nstates=5)\\step_1351_chromophore_26 ZINDO\\0,1\
 Mg,0,-8.505,18.752,43.121\C,0,-5.01,18.478,43.039\C,0,-8.119,22.195,42
 .241\C,0,-11.896,19.075,42.641\C,0,-8.857,15.344,42.696\N,0,-6.75,20.0
 87,42.514\C,0,-5.382,19.747,42.667\C,0,-4.504,20.896,42.338\C,0,-5.5,2
 2.151,42.512\C,0,-6.929,21.446,42.462\C,0,-5.235,23.131,43.685\C,0,-3.
 706,20.822,41.007\C,0,-4.223,19.687,39.97\C,0,-3.92,19.733,38.505\O,0,

 Normal termination of Gaussian 16 at Thu Apr 28 00:54:34 2022.
