 Gaussian 16, Revision A.03,
 Gaussian 16:  ES64L-G16RevA.03 25-Dec-2016

 ------------------------------
 #p blyp/Def2SVP td=(nstates=5)
 ------------------------------

 --------------------------------------------------
 step_901_chromophore_12 TDDFT with blyp functional
 --------------------------------------------------
 Symbolic Z-matrix:
 Charge =  0 Multiplicity = 1

                         Standard orientation:
 ---------------------------------------------------------------------
 Center     Atomic      Atomic             Coordinates (Angstroms)
 Number     Number       Type             X           Y           Z
 ---------------------------------------------------------------------
      1         12           0        4.143774    0.532865    0.390785
      2          6           0        3.550012   -2.754284   -0.444464
      3          6           0        0.671626    1.057029   -0.042750
      4          6           0        4.645096    3.752860    0.857138
      5          6           0        7.593219   -0.038594   -0.142796
      6          7           0        2.298323   -0.777210   -0.062165
      7          6           0        2.353660   -2.120037   -0.180839
      8          6           0        0.939841   -2.660375   -0.149242
      9          6           0       -0.009856   -1.412315   -0.321218
     10          6           0        1.054633   -0.302432   -0.169854
     11          6           0       -0.871244   -1.451411   -1.605204
     12          6           0        0.653069   -3.517087    1.099639
     13          6           0       -0.594712   -4.369328    0.822556
     14          6           0       -1.665851   -4.374243    1.941033
     15          8           0       -1.428687   -4.324604    3.157110
     16          8           0       -2.972539   -4.300653    1.476960
     17          7           0        2.816818    2.140953    0.697170
     18          6           0        1.458862    2.171945    0.408599
     19          6           0        1.050091    3.519274    0.747897
     20          6           0        2.161606    4.288827    1.102617
     21          6           0        3.287727    3.369231    0.895925
     22          6           0       -0.465007    3.999858    0.637898
     23          6           0        2.176028    5.724738    1.545230
     24          8           0        3.175329    6.304739    1.911780
     25          6           0        0.891898    6.500164    1.526405
     26          7           0        5.969349    1.710157    0.481566
     27          6           0        5.868449    3.071636    0.673576
     28          6           0        7.297932    3.725934    0.405397
     29          6           0        8.260653    2.488435    0.317807
     30          6           0        7.262233    1.303520    0.190152
     31          6           0        7.353265    4.679426   -0.814999
     32          6           0        9.193233    2.283557    1.553947
     33          6           0        8.660213    1.591961    2.868724
     34          7           0        5.388405   -1.012905   -0.164076
     35          6           0        6.725102   -1.157850   -0.311217
     36          6           0        7.029150   -2.464858   -0.874041
     37          6           0        5.842837   -3.165005   -0.856276
     38          6           0        4.824335   -2.240788   -0.466724
     39          6           0        8.466060   -2.823846   -1.304452
     40          6           0        5.221003   -4.450636   -1.239252
     41          8           0        5.663522   -5.441108   -1.833898
     42          6           0        3.727476   -4.220425   -0.880535
     43          6           0        2.856101   -4.653984   -2.006287
     44          8           0        2.913464   -4.275571   -3.165029
     45          8           0        2.011388   -5.688322   -1.641783
     46          6           0        1.096561   -6.083184   -2.702609
     47          6           0       -3.963619   -4.386739    2.522645
     48          6           0       -5.315631   -4.285008    1.809977
     49          6           0       -6.486382   -3.627940    2.109571
     50          6           0       -6.667829   -3.012841    3.452588
     51          6           0       -7.656460   -3.727628    1.097529
     52          6           0       -8.717494   -2.555141    1.188722
     53          6           0       -9.360938   -2.145980   -0.155486
     54          6           0      -10.277765   -0.898396   -0.056360
     55          6           0      -11.722691   -1.204057   -0.462888
     56          6           0       -9.890094    0.315017   -0.933849
     57          6           0       -9.574209    1.535549   -0.049492
     58          6           0       -9.311199    2.826260   -0.961775
     59          6           0       -8.125454    3.776725   -0.394064
     60          6           0       -8.669579    4.797925    0.664644
     61          6           0       -7.294657    4.367961   -1.445485
     62          6           0       -5.918043    3.678725   -1.651062
     63          6           0       -5.035613    4.422079   -2.665348
     64          6           0       -3.522254    4.475076   -2.181811
     65          6           0       -2.585832    5.360270   -3.019367
     66          6           0       -2.973991    3.013338   -2.134399
     67          1           0       -0.383539    1.177711   -0.300173
     68          1           0        4.831055    4.828987    0.856315
     69          1           0        8.647251   -0.251046   -0.333081
     70          1           0        0.799231   -3.331567   -0.996998
     71          1           0       -0.749862   -1.319931    0.473374
     72          1           0       -0.966775   -0.430635   -1.975684
     73          1           0       -1.912950   -1.655088   -1.356599
     74          1           0       -0.443033   -2.039754   -2.416186
     75          1           0        0.529225   -2.827199    1.934155
     76          1           0        1.461746   -4.169106    1.427674
     77          1           0       -0.196442   -5.381846    0.765479
     78          1           0       -1.053324   -4.297597   -0.163001
     79          1           0       -1.067563    3.215158    0.180857
     80          1           0       -0.446184    4.861766   -0.029063
     81          1           0       -0.976198    4.283807    1.557579
     82          1           0        1.149087    7.433687    2.028558
     83          1           0        0.067518    6.100594    2.116872
     84          1           0        0.517760    6.752260    0.533933
     85          1           0        7.541375    4.265772    1.320097
     86          1           0        8.897522    2.525544   -0.565601
     87          1           0        7.262829    5.688978   -0.415304
     88          1           0        6.626477    4.462875   -1.597899
     89          1           0        8.351198    4.597240   -1.245503
     90          1           0        9.554377    3.210588    1.998932
     91          1           0       10.032421    1.678536    1.209945
     92          1           0        8.817162    2.183391    3.771135
     93          1           0        9.164344    0.628041    2.935746
     94          1           0        7.652781    1.177782    2.836181
     95          1           0        8.410372   -3.612241   -2.054722
     96          1           0        9.013378   -3.140140   -0.416309
     97          1           0        8.995098   -1.964998   -1.719736
     98          1           0        3.555565   -4.932902   -0.072978
     99          1           0        0.612071   -5.217001   -3.154165
    100          1           0        0.520141   -6.874255   -2.224818
    101          1           0        1.721740   -6.502729   -3.490953
    102          1           0       -3.952298   -3.573610    3.248795
    103          1           0       -3.901644   -5.365239    2.999030
    104          1           0       -5.286626   -4.772627    0.834483
    105          1           0       -6.583394   -1.928441    3.526393
    106          1           0       -5.950931   -3.502418    4.111505
    107          1           0       -7.530447   -3.283402    4.060816
    108          1           0       -8.201337   -4.648431    1.306814
    109          1           0       -7.366894   -3.861717    0.055521
    110          1           0       -8.140345   -1.685150    1.503671
    111          1           0       -9.508557   -2.844791    1.879874
    112          1           0       -9.851974   -3.012067   -0.598508
    113          1           0       -8.478094   -1.876097   -0.734449
    114          1           0      -10.307130   -0.567515    0.982077
    115          1           0      -12.439718   -0.404301   -0.274255
    116          1           0      -12.164281   -2.025870    0.100913
    117          1           0      -11.741482   -1.450990   -1.524259
    118          1           0      -10.612222    0.560066   -1.712837
    119          1           0       -8.992776    0.187635   -1.540384
    120          1           0       -8.625263    1.261333    0.411051
    121          1           0      -10.324307    1.808056    0.692106
    122          1           0      -10.238856    3.394498   -0.895084
    123          1           0       -9.250213    2.590558   -2.024749
    124          1           0       -7.431325    3.108446    0.114281
    125          1           0       -8.643720    5.813905    0.271219
    126          1           0       -8.075084    4.786503    1.578222
    127          1           0       -9.726170    4.582905    0.829203
    128          1           0       -7.124985    5.430865   -1.276670
    129          1           0       -7.807383    4.277461   -2.403002
    130          1           0       -6.166839    2.686136   -2.026605
    131          1           0       -5.531615    3.487450   -0.650128
    132          1           0       -5.490292    5.348650   -3.015659
    133          1           0       -5.040300    3.809829   -3.566452
    134          1           0       -3.537717    4.846424   -1.157341
    135          1           0       -2.928977    5.386268   -4.053563
    136          1           0       -1.540818    5.051533   -2.975169
    137          1           0       -2.577958    6.396479   -2.683787
    138          1           0       -2.039665    2.852724   -2.673518
    139          1           0       -3.646778    2.249337   -2.523697
    140          1           0       -2.686222    2.786270   -1.108343
 ---------------------------------------------------------------------

 SCF Done:  E(RB-LYP) =  -3007.42326348     A.U. after   21 cycles

 Excitation energies and oscillator strengths:

 Excited State   1:      Singlet-A      1.8534 eV  668.95 nm  f=0.2877  <S**2>=0.000
     245 -> 248       -0.21668
     246 -> 247        0.67925
     246 <- 247       -0.13533
 This state for optimization and/or second-order correction.
 Total Energy, E(TD-HF/TD-DFT) =  -3007.35515137
 Copying the excited state density for this state as the 1-particle RhoCI density.

 Excited State   2:      Singlet-A      2.0160 eV  615.01 nm  f=0.0586  <S**2>=0.000
     244 -> 247        0.32678
     245 -> 247        0.57263
     246 -> 248        0.22169

 Excited State   3:      Singlet-A      2.0880 eV  593.80 nm  f=0.0144  <S**2>=0.000
     244 -> 247        0.62233
     245 -> 247       -0.28305
     246 -> 248       -0.14735

 Excited State   4:      Singlet-A      2.1752 eV  569.98 nm  f=0.0023  <S**2>=0.000
     243 -> 247        0.69615

 Excited State   5:      Singlet-A      2.3623 eV  524.85 nm  f=0.0001  <S**2>=0.000
     242 -> 247        0.70710

 The electronic state is 1-A.
 Alpha  occ. eigenvalues --  -46.27981 -18.82617 -18.82101 -18.77075 -18.76803
 Alpha  occ. eigenvalues --  -18.76426 -18.75679 -14.03400 -14.03100 -14.01514
 Alpha  occ. eigenvalues --  -14.01192 -10.04728 -10.03829 -10.00316  -9.99834
 Alpha  occ. eigenvalues --   -9.98169  -9.97648  -9.96896  -9.96786  -9.96737
 Alpha  occ. eigenvalues --   -9.96477  -9.96384  -9.96113  -9.95492  -9.94859
 Alpha  occ. eigenvalues --   -9.94652  -9.94408  -9.94265  -9.94235  -9.94233
 Alpha  occ. eigenvalues --   -9.94223  -9.94175  -9.93947  -9.93763  -9.93708
 Alpha  occ. eigenvalues --   -9.93681  -9.93664  -9.93249  -9.93035  -9.93010
 Alpha  occ. eigenvalues --   -9.92980  -9.92865  -9.92637  -9.92484  -9.92416
 Alpha  occ. eigenvalues --   -9.92411  -9.92356  -9.92326  -9.92150  -9.92007
 Alpha  occ. eigenvalues --   -9.91902  -9.91819  -9.91742  -9.91661  -9.91652
 Alpha  occ. eigenvalues --   -9.91591  -9.91564  -9.91496  -9.91489  -9.91367
 Alpha  occ. eigenvalues --   -9.91292  -9.91202  -9.91201  -9.91172  -9.90944
 Alpha  occ. eigenvalues --   -9.90499  -2.92443  -1.72887  -1.72346  -1.72124
 Alpha  occ. eigenvalues --   -0.98027  -0.97989  -0.92291  -0.91025  -0.89627
 Alpha  occ. eigenvalues --   -0.89460  -0.87311  -0.86241  -0.86013  -0.84224
 Alpha  occ. eigenvalues --   -0.76188  -0.73552  -0.73375  -0.72945  -0.72174
 Alpha  occ. eigenvalues --   -0.71750  -0.71279  -0.70851  -0.70645  -0.69973
 Alpha  occ. eigenvalues --   -0.69689  -0.69207  -0.68329  -0.67566  -0.67134
 Alpha  occ. eigenvalues --   -0.66508  -0.65733  -0.65174  -0.65064  -0.64505
 Alpha  occ. eigenvalues --   -0.64381  -0.62839  -0.62454  -0.61804  -0.61042
 Alpha  occ. eigenvalues --   -0.60941  -0.60472  -0.60159  -0.59714  -0.58798
 Alpha  occ. eigenvalues --   -0.58297  -0.57833  -0.57031  -0.55936  -0.54776
 Alpha  occ. eigenvalues --   -0.54330  -0.53546  -0.52966  -0.52094  -0.51973
 Alpha  occ. eigenvalues --   -0.51080  -0.51053  -0.50617  -0.50493  -0.50285
 Alpha  occ. eigenvalues --   -0.50027  -0.49962  -0.49059  -0.48600  -0.47118
 Alpha  occ. eigenvalues --   -0.46801  -0.46466  -0.46044  -0.45231  -0.44849
 Alpha  occ. eigenvalues --   -0.43955  -0.43817  -0.43220  -0.43144  -0.42199
 Alpha  occ. eigenvalues --   -0.42094  -0.41970  -0.41881  -0.41707  -0.41382
 Alpha  occ. eigenvalues --   -0.41234  -0.40960  -0.40737  -0.40368  -0.40253
 Alpha  occ. eigenvalues --   -0.40082  -0.39963  -0.39651  -0.39527  -0.39502
 Alpha  occ. eigenvalues --   -0.39248  -0.39115  -0.38783  -0.38484  -0.38300
 Alpha  occ. eigenvalues --   -0.37900  -0.37742  -0.37388  -0.37245  -0.37169
 Alpha  occ. eigenvalues --   -0.37110  -0.36852  -0.36733  -0.36613  -0.36417
 Alpha  occ. eigenvalues --   -0.36346  -0.36104  -0.36003  -0.35924  -0.35656
 Alpha  occ. eigenvalues --   -0.35496  -0.35447  -0.35280  -0.35070  -0.34862
 Alpha  occ. eigenvalues --   -0.34559  -0.34463  -0.34395  -0.34328  -0.34096
 Alpha  occ. eigenvalues --   -0.33886  -0.33570  -0.33472  -0.33196  -0.33016
 Alpha  occ. eigenvalues --   -0.32843  -0.32595  -0.32558  -0.32247  -0.32131
 Alpha  occ. eigenvalues --   -0.31926  -0.31730  -0.31635  -0.31412  -0.31281
 Alpha  occ. eigenvalues --   -0.31123  -0.31036  -0.30941  -0.30863  -0.30816
 Alpha  occ. eigenvalues --   -0.30710  -0.30600  -0.30580  -0.30303  -0.30191
 Alpha  occ. eigenvalues --   -0.30040  -0.29540  -0.29462  -0.29405  -0.29185
 Alpha  occ. eigenvalues --   -0.28972  -0.28808  -0.28498  -0.28139  -0.28008
 Alpha  occ. eigenvalues --   -0.27593  -0.27580  -0.27490  -0.27065  -0.26925
 Alpha  occ. eigenvalues --   -0.26767  -0.26581  -0.26465  -0.26190  -0.25601
 Alpha  occ. eigenvalues --   -0.25424  -0.25284  -0.25094  -0.24111  -0.23986
 Alpha  occ. eigenvalues --   -0.23578  -0.22589  -0.22182  -0.21887  -0.21326
 Alpha  occ. eigenvalues --   -0.20883  -0.20169  -0.19349  -0.19010  -0.17368
 Alpha  occ. eigenvalues --   -0.16036
 Alpha virt. eigenvalues --   -0.11488  -0.07180  -0.06556  -0.04781  -0.03702
 Alpha virt. eigenvalues --   -0.03045  -0.02691  -0.02078  -0.01395   0.00018
 Alpha virt. eigenvalues --    0.00657   0.01367   0.01457   0.02149   0.02379

 Mulliken charges:
               1
     1  Mg   0.682561
     2  C    0.054817
     3  C   -0.051241
     4  C   -0.021539
     5  C   -0.058362
     6  N   -0.163231
     7  C   -0.099586
     8  C    0.010931
     9  C   -0.007435
    10  C   -0.017513
    11  C    0.126253
    12  C    0.126759
    13  C    0.138807
    14  C    0.076003
    15  O   -0.208102
    16  O   -0.270042
    17  N   -0.277341
    18  C    0.151936
    19  C   -0.150300
    20  C    0.063228
    21  C    0.112170
    22  C    0.156847
    23  C   -0.084827
    24  O   -0.146988
    25  C    0.116985
    26  N   -0.239203
    27  C   -0.011331
    28  C    0.031348
    29  C    0.067939
    30  C    0.009787
    31  C    0.134100
    32  C    0.054373
    33  C    0.048084
    34  N   -0.265930
    35  C    0.093734
    36  C   -0.191534
    37  C    0.055987
    38  C    0.102619
    39  C    0.168380
    40  C   -0.003268
    41  O   -0.131174
    42  C    0.073930
    43  C    0.065276
    44  O   -0.176581
    45  O   -0.285737
    46  C    0.231231
    47  C    0.344931
    48  C   -0.137400
    49  C   -0.114526
    50  C    0.122676
    51  C    0.129591
    52  C    0.008258
    53  C    0.128210
    54  C   -0.008741
    55  C    0.080730
    56  C    0.081687
    57  C    0.039266
    58  C    0.074982
    59  C   -0.065055
    60  C    0.116830
    61  C    0.106280
    62  C    0.025221
    63  C    0.129110
    64  C   -0.087316
    65  C    0.109350
    66  C    0.078341
    67  H   -0.062038
    68  H   -0.047998
    69  H   -0.069265
    70  H   -0.020488
    71  H   -0.017811
    72  H   -0.023507
    73  H   -0.003540
    74  H    0.008074
    75  H   -0.013210
    76  H   -0.013353
    77  H    0.007239
    78  H   -0.010568
    79  H   -0.029999
    80  H    0.004586
    81  H    0.008232
    82  H   -0.019395
    83  H   -0.001567
    84  H    0.013821
    85  H   -0.024813
    86  H   -0.032044
    87  H    0.003606
    88  H    0.006490
    89  H   -0.013990
    90  H   -0.016398
    91  H   -0.013866
    92  H    0.002311
    93  H   -0.020846
    94  H   -0.001262
    95  H    0.013910
    96  H    0.007077
    97  H   -0.003302
    98  H   -0.001240
    99  H    0.014273
   100  H    0.015498
   101  H    0.011665
   102  H    0.002146
   103  H    0.000649
   104  H   -0.038424
   105  H    0.010206
   106  H   -0.017983
   107  H   -0.015181
   108  H   -0.018860
   109  H   -0.030525
   110  H   -0.017604
   111  H   -0.017838
   112  H   -0.030655
   113  H   -0.039566
   114  H   -0.033082
   115  H   -0.020581
   116  H   -0.030738
   117  H   -0.010811
   118  H   -0.034628
   119  H   -0.042322
   120  H   -0.022105
   121  H   -0.015613
   122  H   -0.038303
   123  H   -0.030549
   124  H   -0.040796
   125  H   -0.021217
   126  H   -0.008093
   127  H   -0.019627
   128  H   -0.040928
   129  H   -0.041929
   130  H   -0.033541
   131  H   -0.026103
   132  H   -0.029057
   133  H   -0.039479
   134  H   -0.026151
   135  H   -0.016195
   136  H   -0.011950
   137  H   -0.022833
   138  H   -0.018614
   139  H   -0.013913
   140  H   -0.008733
 Sum of Mulliken charges =  -0.00000

 Dipole moment (field-independent basis, Debye):
    X=             -3.7652    Y=              1.6068    Z=              0.3002  Tot=              4.1047
 Quadrupole moment (field-independent basis, Debye-Ang):
   XX=           -373.5598   YY=           -429.2920   ZZ=           -420.7713
   XY=             22.4443   XZ=              5.9394   YZ=            -12.7902

 Normal termination of Gaussian 16 at Thu May  5 13:17:40 2022.
