 Gaussian 16, Revision A.03,
 Gaussian 16:  ES64L-G16RevA.03 25-Dec-2016

 -----------------------------------
 #p cam-b3lyp/Def2SVP td=(nstates=5)
 -----------------------------------

 -------------------------------------------------------
 step_901_chromophore_12 TDDFT with cam-b3lyp functional
 -------------------------------------------------------
 Symbolic Z-matrix:
 Charge =  0 Multiplicity = 1

                         Standard orientation:
 ---------------------------------------------------------------------
 Center     Atomic      Atomic             Coordinates (Angstroms)
 Number     Number       Type             X           Y           Z
 ---------------------------------------------------------------------
      1         12           0        4.143774    0.532865    0.390785
      2          6           0        3.550012   -2.754284   -0.444464
      3          6           0        0.671626    1.057029   -0.042750
      4          6           0        4.645096    3.752860    0.857138
      5          6           0        7.593219   -0.038594   -0.142796
      6          7           0        2.298323   -0.777210   -0.062165
      7          6           0        2.353660   -2.120037   -0.180839
      8          6           0        0.939841   -2.660375   -0.149242
      9          6           0       -0.009856   -1.412315   -0.321218
     10          6           0        1.054633   -0.302432   -0.169854
     11          6           0       -0.871244   -1.451411   -1.605204
     12          6           0        0.653069   -3.517087    1.099639
     13          6           0       -0.594712   -4.369328    0.822556
     14          6           0       -1.665851   -4.374243    1.941033
     15          8           0       -1.428687   -4.324604    3.157110
     16          8           0       -2.972539   -4.300653    1.476960
     17          7           0        2.816818    2.140953    0.697170
     18          6           0        1.458862    2.171945    0.408599
     19          6           0        1.050091    3.519274    0.747897
     20          6           0        2.161606    4.288827    1.102617
     21          6           0        3.287727    3.369231    0.895925
     22          6           0       -0.465007    3.999858    0.637898
     23          6           0        2.176028    5.724738    1.545230
     24          8           0        3.175329    6.304739    1.911780
     25          6           0        0.891898    6.500164    1.526405
     26          7           0        5.969349    1.710157    0.481566
     27          6           0        5.868449    3.071636    0.673576
     28          6           0        7.297932    3.725934    0.405397
     29          6           0        8.260653    2.488435    0.317807
     30          6           0        7.262233    1.303520    0.190152
     31          6           0        7.353265    4.679426   -0.814999
     32          6           0        9.193233    2.283557    1.553947
     33          6           0        8.660213    1.591961    2.868724
     34          7           0        5.388405   -1.012905   -0.164076
     35          6           0        6.725102   -1.157850   -0.311217
     36          6           0        7.029150   -2.464858   -0.874041
     37          6           0        5.842837   -3.165005   -0.856276
     38          6           0        4.824335   -2.240788   -0.466724
     39          6           0        8.466060   -2.823846   -1.304452
     40          6           0        5.221003   -4.450636   -1.239252
     41          8           0        5.663522   -5.441108   -1.833898
     42          6           0        3.727476   -4.220425   -0.880535
     43          6           0        2.856101   -4.653984   -2.006287
     44          8           0        2.913464   -4.275571   -3.165029
     45          8           0        2.011388   -5.688322   -1.641783
     46          6           0        1.096561   -6.083184   -2.702609
     47          6           0       -3.963619   -4.386739    2.522645
     48          6           0       -5.315631   -4.285008    1.809977
     49          6           0       -6.486382   -3.627940    2.109571
     50          6           0       -6.667829   -3.012841    3.452588
     51          6           0       -7.656460   -3.727628    1.097529
     52          6           0       -8.717494   -2.555141    1.188722
     53          6           0       -9.360938   -2.145980   -0.155486
     54          6           0      -10.277765   -0.898396   -0.056360
     55          6           0      -11.722691   -1.204057   -0.462888
     56          6           0       -9.890094    0.315017   -0.933849
     57          6           0       -9.574209    1.535549   -0.049492
     58          6           0       -9.311199    2.826260   -0.961775
     59          6           0       -8.125454    3.776725   -0.394064
     60          6           0       -8.669579    4.797925    0.664644
     61          6           0       -7.294657    4.367961   -1.445485
     62          6           0       -5.918043    3.678725   -1.651062
     63          6           0       -5.035613    4.422079   -2.665348
     64          6           0       -3.522254    4.475076   -2.181811
     65          6           0       -2.585832    5.360270   -3.019367
     66          6           0       -2.973991    3.013338   -2.134399
     67          1           0       -0.383539    1.177711   -0.300173
     68          1           0        4.831055    4.828987    0.856315
     69          1           0        8.647251   -0.251046   -0.333081
     70          1           0        0.799231   -3.331567   -0.996998
     71          1           0       -0.749862   -1.319931    0.473374
     72          1           0       -0.966775   -0.430635   -1.975684
     73          1           0       -1.912950   -1.655088   -1.356599
     74          1           0       -0.443033   -2.039754   -2.416186
     75          1           0        0.529225   -2.827199    1.934155
     76          1           0        1.461746   -4.169106    1.427674
     77          1           0       -0.196442   -5.381846    0.765479
     78          1           0       -1.053324   -4.297597   -0.163001
     79          1           0       -1.067563    3.215158    0.180857
     80          1           0       -0.446184    4.861766   -0.029063
     81          1           0       -0.976198    4.283807    1.557579
     82          1           0        1.149087    7.433687    2.028558
     83          1           0        0.067518    6.100594    2.116872
     84          1           0        0.517760    6.752260    0.533933
     85          1           0        7.541375    4.265772    1.320097
     86          1           0        8.897522    2.525544   -0.565601
     87          1           0        7.262829    5.688978   -0.415304
     88          1           0        6.626477    4.462875   -1.597899
     89          1           0        8.351198    4.597240   -1.245503
     90          1           0        9.554377    3.210588    1.998932
     91          1           0       10.032421    1.678536    1.209945
     92          1           0        8.817162    2.183391    3.771135
     93          1           0        9.164344    0.628041    2.935746
     94          1           0        7.652781    1.177782    2.836181
     95          1           0        8.410372   -3.612241   -2.054722
     96          1           0        9.013378   -3.140140   -0.416309
     97          1           0        8.995098   -1.964998   -1.719736
     98          1           0        3.555565   -4.932902   -0.072978
     99          1           0        0.612071   -5.217001   -3.154165
    100          1           0        0.520141   -6.874255   -2.224818
    101          1           0        1.721740   -6.502729   -3.490953
    102          1           0       -3.952298   -3.573610    3.248795
    103          1           0       -3.901644   -5.365239    2.999030
    104          1           0       -5.286626   -4.772627    0.834483
    105          1           0       -6.583394   -1.928441    3.526393
    106          1           0       -5.950931   -3.502418    4.111505
    107          1           0       -7.530447   -3.283402    4.060816
    108          1           0       -8.201337   -4.648431    1.306814
    109          1           0       -7.366894   -3.861717    0.055521
    110          1           0       -8.140345   -1.685150    1.503671
    111          1           0       -9.508557   -2.844791    1.879874
    112          1           0       -9.851974   -3.012067   -0.598508
    113          1           0       -8.478094   -1.876097   -0.734449
    114          1           0      -10.307130   -0.567515    0.982077
    115          1           0      -12.439718   -0.404301   -0.274255
    116          1           0      -12.164281   -2.025870    0.100913
    117          1           0      -11.741482   -1.450990   -1.524259
    118          1           0      -10.612222    0.560066   -1.712837
    119          1           0       -8.992776    0.187635   -1.540384
    120          1           0       -8.625263    1.261333    0.411051
    121          1           0      -10.324307    1.808056    0.692106
    122          1           0      -10.238856    3.394498   -0.895084
    123          1           0       -9.250213    2.590558   -2.024749
    124          1           0       -7.431325    3.108446    0.114281
    125          1           0       -8.643720    5.813905    0.271219
    126          1           0       -8.075084    4.786503    1.578222
    127          1           0       -9.726170    4.582905    0.829203
    128          1           0       -7.124985    5.430865   -1.276670
    129          1           0       -7.807383    4.277461   -2.403002
    130          1           0       -6.166839    2.686136   -2.026605
    131          1           0       -5.531615    3.487450   -0.650128
    132          1           0       -5.490292    5.348650   -3.015659
    133          1           0       -5.040300    3.809829   -3.566452
    134          1           0       -3.537717    4.846424   -1.157341
    135          1           0       -2.928977    5.386268   -4.053563
    136          1           0       -1.540818    5.051533   -2.975169
    137          1           0       -2.577958    6.396479   -2.683787
    138          1           0       -2.039665    2.852724   -2.673518
    139          1           0       -3.646778    2.249337   -2.523697
    140          1           0       -2.686222    2.786270   -1.108343
 ---------------------------------------------------------------------

 SCF Done:  E(RCAM-B3LYP) =  -3007.21279803     A.U. after   17 cycles

 Excitation energies and oscillator strengths:

 Excited State   1:      Singlet-A      1.7596 eV  704.62 nm  f=0.3712  <S**2>=0.000
     245 -> 248       -0.20251
     246 -> 247        0.67967
     245 <- 248       -0.11126
 This state for optimization and/or second-order correction.
 Total Energy, E(TD-HF/TD-DFT) =  -3007.14813440
 Copying the excited state density for this state as the 1-particle RhoCI density.

 Excited State   2:      Singlet-A      2.2602 eV  548.55 nm  f=0.0807  <S**2>=0.000
     245 -> 247        0.62647
     246 -> 248        0.32049

 Excited State   3:      Singlet-A      3.4968 eV  354.57 nm  f=0.6409  <S**2>=0.000
     242 -> 247       -0.23356
     245 -> 247       -0.28940
     246 -> 248        0.59629
     245 <- 247        0.10957

 Excited State   4:      Singlet-A      3.5914 eV  345.22 nm  f=0.0120  <S**2>=0.000
     240 -> 247        0.17059
     240 -> 249        0.15141
     242 -> 247       -0.10076
     243 -> 247        0.63038

 Excited State   5:      Singlet-A      3.6793 eV  336.98 nm  f=0.0723  <S**2>=0.000
     240 -> 247        0.43242
     240 -> 249        0.31236
     240 -> 250       -0.16785
     241 -> 247       -0.13293
     242 -> 247        0.26535
     243 -> 247       -0.18109
     246 -> 248        0.12499

 The electronic state is 1-A.
 Alpha  occ. eigenvalues --  -46.89555 -19.25527 -19.25068 -19.20102 -19.19972
 Alpha  occ. eigenvalues --  -19.19708 -19.18993 -14.42374 -14.41822 -14.39979
 Alpha  occ. eigenvalues --  -14.39618 -10.40141 -10.39322 -10.35747 -10.35073
 Alpha  occ. eigenvalues --  -10.32201 -10.31653 -10.31361 -10.31275 -10.31212
 Alpha  occ. eigenvalues --  -10.30837 -10.30802 -10.30606 -10.29634 -10.29057
 Alpha  occ. eigenvalues --  -10.28986 -10.28680 -10.28657 -10.28415 -10.28302
 Alpha  occ. eigenvalues --  -10.28300 -10.28138 -10.28125 -10.28033 -10.27998
 Alpha  occ. eigenvalues --  -10.27931 -10.27535 -10.27360 -10.26975 -10.26831
 Alpha  occ. eigenvalues --  -10.26732 -10.26696 -10.26604 -10.26329 -10.26322
 Alpha  occ. eigenvalues --  -10.26243 -10.26040 -10.25992 -10.25923 -10.25885
 Alpha  occ. eigenvalues --  -10.25792 -10.25737 -10.25628 -10.25606 -10.25514
 Alpha  occ. eigenvalues --  -10.25397 -10.25369 -10.25286 -10.25102 -10.25035
 Alpha  occ. eigenvalues --  -10.25035 -10.24898 -10.24858 -10.24853 -10.24557
 Alpha  occ. eigenvalues --  -10.24167  -3.17914  -1.92838  -1.92381  -1.92190
 Alpha  occ. eigenvalues --   -1.16628  -1.16439  -1.10822  -1.09454  -1.07606
 Alpha  occ. eigenvalues --   -1.07341  -1.05114  -1.03899  -1.03567  -1.01691
 Alpha  occ. eigenvalues --   -0.93377  -0.90386  -0.90223  -0.89778  -0.88908
 Alpha  occ. eigenvalues --   -0.88430  -0.87834  -0.87492  -0.87244  -0.86659
 Alpha  occ. eigenvalues --   -0.86141  -0.85558  -0.84621  -0.83745  -0.83242
 Alpha  occ. eigenvalues --   -0.82580  -0.81664  -0.81165  -0.80890  -0.80531
 Alpha  occ. eigenvalues --   -0.80220  -0.78476  -0.78214  -0.77295  -0.76446
 Alpha  occ. eigenvalues --   -0.76337  -0.75925  -0.75432  -0.75059  -0.74034
 Alpha  occ. eigenvalues --   -0.73346  -0.72827  -0.71916  -0.70743  -0.69338
 Alpha  occ. eigenvalues --   -0.69005  -0.68136  -0.67519  -0.66428  -0.66223
 Alpha  occ. eigenvalues --   -0.65246  -0.65159  -0.64596  -0.64408  -0.64347
 Alpha  occ. eigenvalues --   -0.64019  -0.63889  -0.63025  -0.62403  -0.60795
 Alpha  occ. eigenvalues --   -0.60419  -0.59983  -0.59543  -0.58713  -0.58331
 Alpha  occ. eigenvalues --   -0.57351  -0.57163  -0.56486  -0.56237  -0.55570
 Alpha  occ. eigenvalues --   -0.55259  -0.54927  -0.54859  -0.54786  -0.54163
 Alpha  occ. eigenvalues --   -0.53997  -0.53693  -0.53607  -0.53295  -0.52941
 Alpha  occ. eigenvalues --   -0.52797  -0.52740  -0.52523  -0.52391  -0.52071
 Alpha  occ. eigenvalues --   -0.51873  -0.51648  -0.51542  -0.51035  -0.50589
 Alpha  occ. eigenvalues --   -0.50205  -0.50072  -0.49777  -0.49739  -0.49540
 Alpha  occ. eigenvalues --   -0.49495  -0.49308  -0.49107  -0.49072  -0.48755
 Alpha  occ. eigenvalues --   -0.48591  -0.48430  -0.48164  -0.48033  -0.47825
 Alpha  occ. eigenvalues --   -0.47749  -0.47417  -0.47332  -0.47094  -0.46725
 Alpha  occ. eigenvalues --   -0.46456  -0.46371  -0.46281  -0.46178  -0.45824
 Alpha  occ. eigenvalues --   -0.45600  -0.45316  -0.45269  -0.44983  -0.44903
 Alpha  occ. eigenvalues --   -0.44592  -0.44445  -0.44108  -0.43839  -0.43720
 Alpha  occ. eigenvalues --   -0.43505  -0.43429  -0.43125  -0.43100  -0.42823
 Alpha  occ. eigenvalues --   -0.42710  -0.42552  -0.42549  -0.42438  -0.42205
 Alpha  occ. eigenvalues --   -0.42188  -0.42140  -0.41928  -0.41597  -0.41522
 Alpha  occ. eigenvalues --   -0.41206  -0.40780  -0.40597  -0.40507  -0.40467
 Alpha  occ. eigenvalues --   -0.40069  -0.39779  -0.39427  -0.39106  -0.38938
 Alpha  occ. eigenvalues --   -0.38522  -0.38466  -0.38388  -0.37988  -0.37840
 Alpha  occ. eigenvalues --   -0.37683  -0.37358  -0.37148  -0.37087  -0.36951
 Alpha  occ. eigenvalues --   -0.36663  -0.36436  -0.35864  -0.34677  -0.34538
 Alpha  occ. eigenvalues --   -0.34475  -0.34298  -0.33211  -0.31837  -0.31550
 Alpha  occ. eigenvalues --   -0.31318  -0.30721  -0.30238  -0.29744  -0.24088
 Alpha  occ. eigenvalues --   -0.21309
 Alpha virt. eigenvalues --   -0.08432  -0.02164   0.00007   0.02180   0.03064
 Alpha virt. eigenvalues --    0.04061   0.04719   0.04841   0.05314   0.06100
 Alpha virt. eigenvalues --    0.07261   0.07765   0.08301   0.08505   0.08631

 Mulliken charges:
               1
     1  Mg   0.813461
     2  C    0.020719
     3  C   -0.058722
     4  C   -0.049999
     5  C   -0.071245
     6  N   -0.230804
     7  C   -0.059130
     8  C   -0.040548
     9  C   -0.058315
    10  C    0.002773
    11  C    0.070013
    12  C    0.080175
    13  C    0.062698
    14  C    0.160907
    15  O   -0.249088
    16  O   -0.334315
    17  N   -0.366122
    18  C    0.154786
    19  C   -0.153261
    20  C   -0.011103
    21  C    0.143138
    22  C    0.114142
    23  C   -0.002201
    24  O   -0.186414
    25  C    0.030393
    26  N   -0.311635
    27  C    0.017017
    28  C   -0.023461
    29  C    0.015866
    30  C    0.025254
    31  C    0.074335
    32  C    0.002980
    33  C   -0.013493
    34  N   -0.352760
    35  C    0.101403
    36  C   -0.188955
    37  C   -0.022431
    38  C    0.136936
    39  C    0.119233
    40  C    0.101205
    41  O   -0.168981
    42  C   -0.002327
    43  C    0.152646
    44  O   -0.212175
    45  O   -0.348516
    46  C    0.185981
    47  C    0.310313
    48  C   -0.156144
    49  C   -0.138438
    50  C    0.054574
    51  C    0.078336
    52  C   -0.041633
    53  C    0.075078
    54  C   -0.073578
    55  C    0.024965
    56  C    0.029578
    57  C   -0.007933
    58  C    0.023682
    59  C   -0.124038
    60  C    0.060595
    61  C    0.055691
    62  C   -0.024852
    63  C    0.071076
    64  C   -0.141351
    65  C    0.051554
    66  C    0.019205
    67  H   -0.029873
    68  H   -0.010352
    69  H   -0.034467
    70  H    0.007921
    71  H    0.017090
    72  H    0.000215
    73  H    0.022009
    74  H    0.031946
    75  H    0.019226
    76  H    0.017770
    77  H    0.040033
    78  H    0.023228
    79  H   -0.007961
    80  H    0.025717
    81  H    0.034350
    82  H    0.018082
    83  H    0.027399
    84  H    0.042620
    85  H    0.010944
    86  H    0.004485
    87  H    0.026894
    88  H    0.031553
    89  H    0.010152
    90  H    0.011399
    91  H    0.012983
    92  H    0.025781
    93  H    0.003612
    94  H    0.021676
    95  H    0.040034
    96  H    0.032543
    97  H    0.020531
    98  H    0.042291
    99  H    0.036475
   100  H    0.039730
   101  H    0.037865
   102  H    0.029544
   103  H    0.029671
   104  H   -0.004724
   105  H    0.034571
   106  H    0.006692
   107  H    0.012088
   108  H    0.010434
   109  H   -0.000612
   110  H    0.006237
   111  H    0.007742
   112  H   -0.001966
   113  H   -0.010523
   114  H    0.000240
   115  H    0.004465
   116  H   -0.005307
   117  H    0.011729
   118  H   -0.005666
   119  H   -0.013002
   120  H    0.002457
   121  H    0.009607
   122  H   -0.009605
   123  H   -0.002805
   124  H   -0.009616
   125  H    0.002898
   126  H    0.015715
   127  H    0.003842
   128  H   -0.011722
   129  H   -0.013366
   130  H   -0.007144
   131  H   -0.000142
   132  H    0.000432
   133  H   -0.010068
   134  H    0.002198
   135  H    0.007794
   136  H    0.010816
   137  H    0.001721
   138  H    0.005990
   139  H    0.011130
   140  H    0.007616
 Sum of Mulliken charges =  -0.00000

 Dipole moment (field-independent basis, Debye):
    X=             -4.2728    Y=              2.0021    Z=              0.2788  Tot=              4.7268
 Quadrupole moment (field-independent basis, Debye-Ang):
   XX=           -373.1907   YY=           -425.6185   ZZ=           -421.3457
   XY=             22.5184   XZ=              6.4953   YZ=            -12.2525

 Normal termination of Gaussian 16 at Thu May  5 12:12:26 2022.
