 Gaussian 16, Revision A.03,
 Gaussian 16:  ES64L-G16RevA.03 25-Dec-2016

 ---------------------------------
 #p PBE1PBE/Def2SVP td=(nstates=5)
 ---------------------------------

 -----------------------------------------------------
 step_901_chromophore_12 TDDFT with PBE1PBE functional
 -----------------------------------------------------
 Symbolic Z-matrix:
 Charge =  0 Multiplicity = 1

                         Standard orientation:
 ---------------------------------------------------------------------
 Center     Atomic      Atomic             Coordinates (Angstroms)
 Number     Number       Type             X           Y           Z
 ---------------------------------------------------------------------
      1         12           0        4.143774    0.532865    0.390785
      2          6           0        3.550012   -2.754284   -0.444464
      3          6           0        0.671626    1.057029   -0.042750
      4          6           0        4.645096    3.752860    0.857138
      5          6           0        7.593219   -0.038594   -0.142796
      6          7           0        2.298323   -0.777210   -0.062165
      7          6           0        2.353660   -2.120037   -0.180839
      8          6           0        0.939841   -2.660375   -0.149242
      9          6           0       -0.009856   -1.412315   -0.321218
     10          6           0        1.054633   -0.302432   -0.169854
     11          6           0       -0.871244   -1.451411   -1.605204
     12          6           0        0.653069   -3.517087    1.099639
     13          6           0       -0.594712   -4.369328    0.822556
     14          6           0       -1.665851   -4.374243    1.941033
     15          8           0       -1.428687   -4.324604    3.157110
     16          8           0       -2.972539   -4.300653    1.476960
     17          7           0        2.816818    2.140953    0.697170
     18          6           0        1.458862    2.171945    0.408599
     19          6           0        1.050091    3.519274    0.747897
     20          6           0        2.161606    4.288827    1.102617
     21          6           0        3.287727    3.369231    0.895925
     22          6           0       -0.465007    3.999858    0.637898
     23          6           0        2.176028    5.724738    1.545230
     24          8           0        3.175329    6.304739    1.911780
     25          6           0        0.891898    6.500164    1.526405
     26          7           0        5.969349    1.710157    0.481566
     27          6           0        5.868449    3.071636    0.673576
     28          6           0        7.297932    3.725934    0.405397
     29          6           0        8.260653    2.488435    0.317807
     30          6           0        7.262233    1.303520    0.190152
     31          6           0        7.353265    4.679426   -0.814999
     32          6           0        9.193233    2.283557    1.553947
     33          6           0        8.660213    1.591961    2.868724
     34          7           0        5.388405   -1.012905   -0.164076
     35          6           0        6.725102   -1.157850   -0.311217
     36          6           0        7.029150   -2.464858   -0.874041
     37          6           0        5.842837   -3.165005   -0.856276
     38          6           0        4.824335   -2.240788   -0.466724
     39          6           0        8.466060   -2.823846   -1.304452
     40          6           0        5.221003   -4.450636   -1.239252
     41          8           0        5.663522   -5.441108   -1.833898
     42          6           0        3.727476   -4.220425   -0.880535
     43          6           0        2.856101   -4.653984   -2.006287
     44          8           0        2.913464   -4.275571   -3.165029
     45          8           0        2.011388   -5.688322   -1.641783
     46          6           0        1.096561   -6.083184   -2.702609
     47          6           0       -3.963619   -4.386739    2.522645
     48          6           0       -5.315631   -4.285008    1.809977
     49          6           0       -6.486382   -3.627940    2.109571
     50          6           0       -6.667829   -3.012841    3.452588
     51          6           0       -7.656460   -3.727628    1.097529
     52          6           0       -8.717494   -2.555141    1.188722
     53          6           0       -9.360938   -2.145980   -0.155486
     54          6           0      -10.277765   -0.898396   -0.056360
     55          6           0      -11.722691   -1.204057   -0.462888
     56          6           0       -9.890094    0.315017   -0.933849
     57          6           0       -9.574209    1.535549   -0.049492
     58          6           0       -9.311199    2.826260   -0.961775
     59          6           0       -8.125454    3.776725   -0.394064
     60          6           0       -8.669579    4.797925    0.664644
     61          6           0       -7.294657    4.367961   -1.445485
     62          6           0       -5.918043    3.678725   -1.651062
     63          6           0       -5.035613    4.422079   -2.665348
     64          6           0       -3.522254    4.475076   -2.181811
     65          6           0       -2.585832    5.360270   -3.019367
     66          6           0       -2.973991    3.013338   -2.134399
     67          1           0       -0.383539    1.177711   -0.300173
     68          1           0        4.831055    4.828987    0.856315
     69          1           0        8.647251   -0.251046   -0.333081
     70          1           0        0.799231   -3.331567   -0.996998
     71          1           0       -0.749862   -1.319931    0.473374
     72          1           0       -0.966775   -0.430635   -1.975684
     73          1           0       -1.912950   -1.655088   -1.356599
     74          1           0       -0.443033   -2.039754   -2.416186
     75          1           0        0.529225   -2.827199    1.934155
     76          1           0        1.461746   -4.169106    1.427674
     77          1           0       -0.196442   -5.381846    0.765479
     78          1           0       -1.053324   -4.297597   -0.163001
     79          1           0       -1.067563    3.215158    0.180857
     80          1           0       -0.446184    4.861766   -0.029063
     81          1           0       -0.976198    4.283807    1.557579
     82          1           0        1.149087    7.433687    2.028558
     83          1           0        0.067518    6.100594    2.116872
     84          1           0        0.517760    6.752260    0.533933
     85          1           0        7.541375    4.265772    1.320097
     86          1           0        8.897522    2.525544   -0.565601
     87          1           0        7.262829    5.688978   -0.415304
     88          1           0        6.626477    4.462875   -1.597899
     89          1           0        8.351198    4.597240   -1.245503
     90          1           0        9.554377    3.210588    1.998932
     91          1           0       10.032421    1.678536    1.209945
     92          1           0        8.817162    2.183391    3.771135
     93          1           0        9.164344    0.628041    2.935746
     94          1           0        7.652781    1.177782    2.836181
     95          1           0        8.410372   -3.612241   -2.054722
     96          1           0        9.013378   -3.140140   -0.416309
     97          1           0        8.995098   -1.964998   -1.719736
     98          1           0        3.555565   -4.932902   -0.072978
     99          1           0        0.612071   -5.217001   -3.154165
    100          1           0        0.520141   -6.874255   -2.224818
    101          1           0        1.721740   -6.502729   -3.490953
    102          1           0       -3.952298   -3.573610    3.248795
    103          1           0       -3.901644   -5.365239    2.999030
    104          1           0       -5.286626   -4.772627    0.834483
    105          1           0       -6.583394   -1.928441    3.526393
    106          1           0       -5.950931   -3.502418    4.111505
    107          1           0       -7.530447   -3.283402    4.060816
    108          1           0       -8.201337   -4.648431    1.306814
    109          1           0       -7.366894   -3.861717    0.055521
    110          1           0       -8.140345   -1.685150    1.503671
    111          1           0       -9.508557   -2.844791    1.879874
    112          1           0       -9.851974   -3.012067   -0.598508
    113          1           0       -8.478094   -1.876097   -0.734449
    114          1           0      -10.307130   -0.567515    0.982077
    115          1           0      -12.439718   -0.404301   -0.274255
    116          1           0      -12.164281   -2.025870    0.100913
    117          1           0      -11.741482   -1.450990   -1.524259
    118          1           0      -10.612222    0.560066   -1.712837
    119          1           0       -8.992776    0.187635   -1.540384
    120          1           0       -8.625263    1.261333    0.411051
    121          1           0      -10.324307    1.808056    0.692106
    122          1           0      -10.238856    3.394498   -0.895084
    123          1           0       -9.250213    2.590558   -2.024749
    124          1           0       -7.431325    3.108446    0.114281
    125          1           0       -8.643720    5.813905    0.271219
    126          1           0       -8.075084    4.786503    1.578222
    127          1           0       -9.726170    4.582905    0.829203
    128          1           0       -7.124985    5.430865   -1.276670
    129          1           0       -7.807383    4.277461   -2.403002
    130          1           0       -6.166839    2.686136   -2.026605
    131          1           0       -5.531615    3.487450   -0.650128
    132          1           0       -5.490292    5.348650   -3.015659
    133          1           0       -5.040300    3.809829   -3.566452
    134          1           0       -3.537717    4.846424   -1.157341
    135          1           0       -2.928977    5.386268   -4.053563
    136          1           0       -1.540818    5.051533   -2.975169
    137          1           0       -2.577958    6.396479   -2.683787
    138          1           0       -2.039665    2.852724   -2.673518
    139          1           0       -3.646778    2.249337   -2.523697
    140          1           0       -2.686222    2.786270   -1.108343
 ---------------------------------------------------------------------

 SCF Done:  E(RPBE1PBE) =  -3005.40000963     A.U. after   15 cycles

 Excitation energies and oscillator strengths:

 Excited State   1:      Singlet-A      1.9135 eV  647.93 nm  f=0.3628  <S**2>=0.000
     245 -> 248       -0.19556
     246 -> 247        0.68620
 This state for optimization and/or second-order correction.
 Total Energy, E(TD-HF/TD-DFT) =  -3005.32968809
 Copying the excited state density for this state as the 1-particle RhoCI density.

 Excited State   2:      Singlet-A      2.2644 eV  547.55 nm  f=0.0844  <S**2>=0.000
     245 -> 247        0.64163
     246 -> 248        0.29073

 Excited State   3:      Singlet-A      3.1915 eV  388.48 nm  f=0.0035  <S**2>=0.000
     240 -> 247        0.28223
     240 -> 249        0.12736
     241 -> 247        0.24517
     241 -> 249        0.10322
     243 -> 247        0.54732

 Excited State   4:      Singlet-A      3.2340 eV  383.38 nm  f=0.0085  <S**2>=0.000
     241 -> 247        0.14803
     242 -> 247        0.64613
     242 -> 249       -0.14780
     242 -> 250       -0.11371

 Excited State   5:      Singlet-A      3.2767 eV  378.38 nm  f=0.0410  <S**2>=0.000
     240 -> 247        0.14392
     241 -> 247        0.48252
     242 -> 247       -0.12534
     243 -> 247       -0.38446
     246 -> 248       -0.23690

 The electronic state is 1-A.
 Alpha  occ. eigenvalues --  -46.92941 -19.26227 -19.25721 -19.20403 -19.20196
 Alpha  occ. eigenvalues --  -19.19943 -19.19139 -14.41781 -14.41449 -14.39600
 Alpha  occ. eigenvalues --  -14.39292 -10.37215 -10.36349 -10.32911 -10.32127
 Alpha  occ. eigenvalues --  -10.29610 -10.29106 -10.29062 -10.28889 -10.28889
 Alpha  occ. eigenvalues --  -10.28614 -10.28453 -10.28168 -10.27410 -10.26849
 Alpha  occ. eigenvalues --  -10.26579 -10.26457 -10.26269 -10.26128 -10.26026
 Alpha  occ. eigenvalues --  -10.25988 -10.25951 -10.25933 -10.25816 -10.25626
 Alpha  occ. eigenvalues --  -10.25555 -10.25163 -10.24732 -10.24724 -10.24488
 Alpha  occ. eigenvalues --  -10.24376 -10.24370 -10.24062 -10.24061 -10.23821
 Alpha  occ. eigenvalues --  -10.23811 -10.23587 -10.23545 -10.23513 -10.23509
 Alpha  occ. eigenvalues --  -10.23389 -10.23304 -10.23289 -10.23062 -10.22987
 Alpha  occ. eigenvalues --  -10.22945 -10.22877 -10.22843 -10.22631 -10.22493
 Alpha  occ. eigenvalues --  -10.22468 -10.22431 -10.22243 -10.22203 -10.21950
 Alpha  occ. eigenvalues --  -10.21687  -3.14887  -1.87751  -1.87273  -1.87084
 Alpha  occ. eigenvalues --   -1.11394  -1.11269  -1.05505  -1.04189  -1.02433
 Alpha  occ. eigenvalues --   -1.02208  -0.99708  -0.98546  -0.98281  -0.96320
 Alpha  occ. eigenvalues --   -0.87748  -0.84576  -0.84338  -0.83881  -0.83037
 Alpha  occ. eigenvalues --   -0.82725  -0.82140  -0.81580  -0.81523  -0.80896
 Alpha  occ. eigenvalues --   -0.80515  -0.79808  -0.78790  -0.78057  -0.77491
 Alpha  occ. eigenvalues --   -0.76744  -0.75904  -0.75355  -0.75217  -0.74771
 Alpha  occ. eigenvalues --   -0.74384  -0.72749  -0.72425  -0.71599  -0.70689
 Alpha  occ. eigenvalues --   -0.70584  -0.69992  -0.69779  -0.69191  -0.68199
 Alpha  occ. eigenvalues --   -0.67743  -0.67195  -0.66365  -0.65070  -0.63690
 Alpha  occ. eigenvalues --   -0.63493  -0.62350  -0.61912  -0.60753  -0.60581
 Alpha  occ. eigenvalues --   -0.59720  -0.59448  -0.59157  -0.58836  -0.58533
 Alpha  occ. eigenvalues --   -0.58370  -0.58165  -0.57219  -0.56957  -0.55237
 Alpha  occ. eigenvalues --   -0.54950  -0.54502  -0.54105  -0.53293  -0.52884
 Alpha  occ. eigenvalues --   -0.51925  -0.51601  -0.50908  -0.50856  -0.50024
 Alpha  occ. eigenvalues --   -0.49766  -0.49524  -0.49371  -0.49170  -0.48521
 Alpha  occ. eigenvalues --   -0.48496  -0.48240  -0.48060  -0.47983  -0.47453
 Alpha  occ. eigenvalues --   -0.47278  -0.47209  -0.47109  -0.46746  -0.46660
 Alpha  occ. eigenvalues --   -0.46487  -0.46192  -0.46027  -0.45707  -0.45090
 Alpha  occ. eigenvalues --   -0.44747  -0.44629  -0.44346  -0.44283  -0.44140
 Alpha  occ. eigenvalues --   -0.44028  -0.43836  -0.43696  -0.43606  -0.43364
 Alpha  occ. eigenvalues --   -0.43219  -0.43033  -0.42776  -0.42692  -0.42473
 Alpha  occ. eigenvalues --   -0.42399  -0.42060  -0.41952  -0.41810  -0.41464
 Alpha  occ. eigenvalues --   -0.41202  -0.41132  -0.40958  -0.40796  -0.40575
 Alpha  occ. eigenvalues --   -0.40294  -0.40043  -0.39898  -0.39744  -0.39614
 Alpha  occ. eigenvalues --   -0.39272  -0.39204  -0.38816  -0.38669  -0.38540
 Alpha  occ. eigenvalues --   -0.38334  -0.38223  -0.37933  -0.37853  -0.37603
 Alpha  occ. eigenvalues --   -0.37536  -0.37342  -0.37275  -0.37226  -0.37078
 Alpha  occ. eigenvalues --   -0.37016  -0.36845  -0.36594  -0.36528  -0.36392
 Alpha  occ. eigenvalues --   -0.36116  -0.35569  -0.35342  -0.35325  -0.35277
 Alpha  occ. eigenvalues --   -0.34885  -0.34569  -0.34393  -0.33898  -0.33848
 Alpha  occ. eigenvalues --   -0.33350  -0.33300  -0.33264  -0.32977  -0.32624
 Alpha  occ. eigenvalues --   -0.32539  -0.32397  -0.32054  -0.32032  -0.31699
 Alpha  occ. eigenvalues --   -0.31621  -0.31445  -0.30736  -0.29666  -0.29571
 Alpha  occ. eigenvalues --   -0.29496  -0.29197  -0.28684  -0.27393  -0.26540
 Alpha  occ. eigenvalues --   -0.26237  -0.26069  -0.25810  -0.25073  -0.21032
 Alpha  occ. eigenvalues --   -0.18953
 Alpha virt. eigenvalues --   -0.10982  -0.05600  -0.04246  -0.02207  -0.00529
 Alpha virt. eigenvalues --    0.00001   0.00239   0.00395   0.01272   0.02673
 Alpha virt. eigenvalues --    0.03496   0.04089   0.04613   0.04961   0.05281

 Mulliken charges:
               1
     1  Mg   0.959159
     2  C   -0.005724
     3  C   -0.060046
     4  C   -0.044842
     5  C   -0.067636
     6  N   -0.338801
     7  C    0.016685
     8  C   -0.123278
     9  C   -0.129688
    10  C    0.049961
    11  C    0.011311
    12  C    0.038212
    13  C   -0.016101
    14  C    0.226137
    15  O   -0.280075
    16  O   -0.365886
    17  N   -0.482094
    18  C    0.177669
    19  C   -0.175694
    20  C   -0.064003
    21  C    0.169850
    22  C    0.045850
    23  C    0.050332
    24  O   -0.224582
    25  C   -0.043551
    26  N   -0.408363
    27  C    0.059763
    28  C   -0.099566
    29  C   -0.059041
    30  C    0.061155
    31  C    0.014182
    32  C   -0.055068
    33  C   -0.084342
    34  N   -0.477705
    35  C    0.129331
    36  C   -0.206225
    37  C   -0.073587
    38  C    0.187469
    39  C    0.064194
    40  C    0.199476
    41  O   -0.215647
    42  C   -0.099608
    43  C    0.239083
    44  O   -0.246531
    45  O   -0.380396
    46  C    0.128940
    47  C    0.265592
    48  C   -0.167643
    49  C   -0.185559
    50  C   -0.005229
    51  C    0.024777
    52  C   -0.112551
    53  C    0.023947
    54  C   -0.163226
    55  C   -0.037490
    56  C   -0.018998
    57  C   -0.075141
    58  C   -0.028577
    59  C   -0.211206
    60  C    0.001408
    61  C    0.006743
    62  C   -0.088219
    63  C    0.013532
    64  C   -0.234097
    65  C   -0.009355
    66  C   -0.043141
    67  H    0.002571
    68  H    0.023188
    69  H   -0.001828
    70  H    0.056219
    71  H    0.054179
    72  H    0.028929
    73  H    0.048944
    74  H    0.058184
    75  H    0.051358
    76  H    0.049674
    77  H    0.073417
    78  H    0.054023
    79  H    0.028268
    80  H    0.054807
    81  H    0.060785
    82  H    0.046277
    83  H    0.054290
    84  H    0.068883
    85  H    0.048405
    86  H    0.040491
    87  H    0.053934
    88  H    0.058778
    89  H    0.038326
    90  H    0.044014
    91  H    0.044954
    92  H    0.052747
    93  H    0.031673
    94  H    0.051233
    95  H    0.068051
    96  H    0.061129
    97  H    0.046622
    98  H    0.079677
    99  H    0.057864
   100  H    0.061542
   101  H    0.061167
   102  H    0.055922
   103  H    0.057871
   104  H    0.025476
   105  H    0.061153
   106  H    0.033838
   107  H    0.039586
   108  H    0.044569
   109  H    0.029368
   110  H    0.041695
   111  H    0.040440
   112  H    0.029521
   113  H    0.023420
   114  H    0.037755
   115  H    0.033481
   116  H    0.023706
   117  H    0.039942
   118  H    0.025868
   119  H    0.019591
   120  H    0.037175
   121  H    0.040618
   122  H    0.024483
   123  H    0.027032
   124  H    0.029525
   125  H    0.029918
   126  H    0.042772
   127  H    0.030974
   128  H    0.021214
   129  H    0.020394
   130  H    0.026788
   131  H    0.031059
   132  H    0.030963
   133  H    0.023997
   134  H    0.040321
   135  H    0.035279
   136  H    0.037939
   137  H    0.029878
   138  H    0.033241
   139  H    0.037907
   140  H    0.036303
 Sum of Mulliken charges =  -0.00000

 Dipole moment (field-independent basis, Debye):
    X=             -4.1245    Y=              1.9460    Z=              0.2454  Tot=              4.5671
 Quadrupole moment (field-independent basis, Debye-Ang):
   XX=           -366.3364   YY=           -423.0929   ZZ=           -418.6974
   XY=             23.2210   XZ=              6.5881   YZ=            -12.3002

 Normal termination of Gaussian 16 at Thu May  5 12:34:35 2022.
