 Gaussian 16, Revision A.03,
 Gaussian 16:  ES64L-G16RevA.03 25-Dec-2016

 --------------------------------
 #p wB97XD/Def2SVP td=(nstates=5)
 --------------------------------

 ----------------------------------------------------
 step_901_chromophore_12 TDDFT with wB97XD functional
 ----------------------------------------------------
 Symbolic Z-matrix:
 Charge =  0 Multiplicity = 1

                         Standard orientation:
 ---------------------------------------------------------------------
 Center     Atomic      Atomic             Coordinates (Angstroms)
 Number     Number       Type             X           Y           Z
 ---------------------------------------------------------------------
      1         12           0        4.143774    0.532865    0.390785
      2          6           0        3.550012   -2.754284   -0.444464
      3          6           0        0.671626    1.057029   -0.042750
      4          6           0        4.645096    3.752860    0.857138
      5          6           0        7.593219   -0.038594   -0.142796
      6          7           0        2.298323   -0.777210   -0.062165
      7          6           0        2.353660   -2.120037   -0.180839
      8          6           0        0.939841   -2.660375   -0.149242
      9          6           0       -0.009856   -1.412315   -0.321218
     10          6           0        1.054633   -0.302432   -0.169854
     11          6           0       -0.871244   -1.451411   -1.605204
     12          6           0        0.653069   -3.517087    1.099639
     13          6           0       -0.594712   -4.369328    0.822556
     14          6           0       -1.665851   -4.374243    1.941033
     15          8           0       -1.428687   -4.324604    3.157110
     16          8           0       -2.972539   -4.300653    1.476960
     17          7           0        2.816818    2.140953    0.697170
     18          6           0        1.458862    2.171945    0.408599
     19          6           0        1.050091    3.519274    0.747897
     20          6           0        2.161606    4.288827    1.102617
     21          6           0        3.287727    3.369231    0.895925
     22          6           0       -0.465007    3.999858    0.637898
     23          6           0        2.176028    5.724738    1.545230
     24          8           0        3.175329    6.304739    1.911780
     25          6           0        0.891898    6.500164    1.526405
     26          7           0        5.969349    1.710157    0.481566
     27          6           0        5.868449    3.071636    0.673576
     28          6           0        7.297932    3.725934    0.405397
     29          6           0        8.260653    2.488435    0.317807
     30          6           0        7.262233    1.303520    0.190152
     31          6           0        7.353265    4.679426   -0.814999
     32          6           0        9.193233    2.283557    1.553947
     33          6           0        8.660213    1.591961    2.868724
     34          7           0        5.388405   -1.012905   -0.164076
     35          6           0        6.725102   -1.157850   -0.311217
     36          6           0        7.029150   -2.464858   -0.874041
     37          6           0        5.842837   -3.165005   -0.856276
     38          6           0        4.824335   -2.240788   -0.466724
     39          6           0        8.466060   -2.823846   -1.304452
     40          6           0        5.221003   -4.450636   -1.239252
     41          8           0        5.663522   -5.441108   -1.833898
     42          6           0        3.727476   -4.220425   -0.880535
     43          6           0        2.856101   -4.653984   -2.006287
     44          8           0        2.913464   -4.275571   -3.165029
     45          8           0        2.011388   -5.688322   -1.641783
     46          6           0        1.096561   -6.083184   -2.702609
     47          6           0       -3.963619   -4.386739    2.522645
     48          6           0       -5.315631   -4.285008    1.809977
     49          6           0       -6.486382   -3.627940    2.109571
     50          6           0       -6.667829   -3.012841    3.452588
     51          6           0       -7.656460   -3.727628    1.097529
     52          6           0       -8.717494   -2.555141    1.188722
     53          6           0       -9.360938   -2.145980   -0.155486
     54          6           0      -10.277765   -0.898396   -0.056360
     55          6           0      -11.722691   -1.204057   -0.462888
     56          6           0       -9.890094    0.315017   -0.933849
     57          6           0       -9.574209    1.535549   -0.049492
     58          6           0       -9.311199    2.826260   -0.961775
     59          6           0       -8.125454    3.776725   -0.394064
     60          6           0       -8.669579    4.797925    0.664644
     61          6           0       -7.294657    4.367961   -1.445485
     62          6           0       -5.918043    3.678725   -1.651062
     63          6           0       -5.035613    4.422079   -2.665348
     64          6           0       -3.522254    4.475076   -2.181811
     65          6           0       -2.585832    5.360270   -3.019367
     66          6           0       -2.973991    3.013338   -2.134399
     67          1           0       -0.383539    1.177711   -0.300173
     68          1           0        4.831055    4.828987    0.856315
     69          1           0        8.647251   -0.251046   -0.333081
     70          1           0        0.799231   -3.331567   -0.996998
     71          1           0       -0.749862   -1.319931    0.473374
     72          1           0       -0.966775   -0.430635   -1.975684
     73          1           0       -1.912950   -1.655088   -1.356599
     74          1           0       -0.443033   -2.039754   -2.416186
     75          1           0        0.529225   -2.827199    1.934155
     76          1           0        1.461746   -4.169106    1.427674
     77          1           0       -0.196442   -5.381846    0.765479
     78          1           0       -1.053324   -4.297597   -0.163001
     79          1           0       -1.067563    3.215158    0.180857
     80          1           0       -0.446184    4.861766   -0.029063
     81          1           0       -0.976198    4.283807    1.557579
     82          1           0        1.149087    7.433687    2.028558
     83          1           0        0.067518    6.100594    2.116872
     84          1           0        0.517760    6.752260    0.533933
     85          1           0        7.541375    4.265772    1.320097
     86          1           0        8.897522    2.525544   -0.565601
     87          1           0        7.262829    5.688978   -0.415304
     88          1           0        6.626477    4.462875   -1.597899
     89          1           0        8.351198    4.597240   -1.245503
     90          1           0        9.554377    3.210588    1.998932
     91          1           0       10.032421    1.678536    1.209945
     92          1           0        8.817162    2.183391    3.771135
     93          1           0        9.164344    0.628041    2.935746
     94          1           0        7.652781    1.177782    2.836181
     95          1           0        8.410372   -3.612241   -2.054722
     96          1           0        9.013378   -3.140140   -0.416309
     97          1           0        8.995098   -1.964998   -1.719736
     98          1           0        3.555565   -4.932902   -0.072978
     99          1           0        0.612071   -5.217001   -3.154165
    100          1           0        0.520141   -6.874255   -2.224818
    101          1           0        1.721740   -6.502729   -3.490953
    102          1           0       -3.952298   -3.573610    3.248795
    103          1           0       -3.901644   -5.365239    2.999030
    104          1           0       -5.286626   -4.772627    0.834483
    105          1           0       -6.583394   -1.928441    3.526393
    106          1           0       -5.950931   -3.502418    4.111505
    107          1           0       -7.530447   -3.283402    4.060816
    108          1           0       -8.201337   -4.648431    1.306814
    109          1           0       -7.366894   -3.861717    0.055521
    110          1           0       -8.140345   -1.685150    1.503671
    111          1           0       -9.508557   -2.844791    1.879874
    112          1           0       -9.851974   -3.012067   -0.598508
    113          1           0       -8.478094   -1.876097   -0.734449
    114          1           0      -10.307130   -0.567515    0.982077
    115          1           0      -12.439718   -0.404301   -0.274255
    116          1           0      -12.164281   -2.025870    0.100913
    117          1           0      -11.741482   -1.450990   -1.524259
    118          1           0      -10.612222    0.560066   -1.712837
    119          1           0       -8.992776    0.187635   -1.540384
    120          1           0       -8.625263    1.261333    0.411051
    121          1           0      -10.324307    1.808056    0.692106
    122          1           0      -10.238856    3.394498   -0.895084
    123          1           0       -9.250213    2.590558   -2.024749
    124          1           0       -7.431325    3.108446    0.114281
    125          1           0       -8.643720    5.813905    0.271219
    126          1           0       -8.075084    4.786503    1.578222
    127          1           0       -9.726170    4.582905    0.829203
    128          1           0       -7.124985    5.430865   -1.276670
    129          1           0       -7.807383    4.277461   -2.403002
    130          1           0       -6.166839    2.686136   -2.026605
    131          1           0       -5.531615    3.487450   -0.650128
    132          1           0       -5.490292    5.348650   -3.015659
    133          1           0       -5.040300    3.809829   -3.566452
    134          1           0       -3.537717    4.846424   -1.157341
    135          1           0       -2.928977    5.386268   -4.053563
    136          1           0       -1.540818    5.051533   -2.975169
    137          1           0       -2.577958    6.396479   -2.683787
    138          1           0       -2.039665    2.852724   -2.673518
    139          1           0       -3.646778    2.249337   -2.523697
    140          1           0       -2.686222    2.786270   -1.108343
 ---------------------------------------------------------------------

 SCF Done:  E(RwB97XD) =  -3007.91202072     A.U. after   17 cycles

 Excitation energies and oscillator strengths:

 Excited State   1:      Singlet-A      1.7022 eV  728.39 nm  f=0.3681  <S**2>=0.000
     245 -> 248        0.20816
     246 -> 247        0.67762
     245 <- 248        0.12076
 This state for optimization and/or second-order correction.
 Total Energy, E(TD-HF/TD-DFT) =  -3007.84946741
 Copying the excited state density for this state as the 1-particle RhoCI density.

 Excited State   2:      Singlet-A      2.2055 eV  562.15 nm  f=0.0787  <S**2>=0.000
     245 -> 247        0.62498
     246 -> 248       -0.32214

 Excited State   3:      Singlet-A      3.5052 eV  353.72 nm  f=0.6443  <S**2>=0.000
     242 -> 247        0.24556
     245 -> 247        0.28635
     246 -> 248        0.59354
     245 <- 247       -0.11440

 Excited State   4:      Singlet-A      3.6117 eV  343.29 nm  f=0.0194  <S**2>=0.000
     240 -> 247        0.13149
     240 -> 249        0.13821
     242 -> 247       -0.13665
     242 -> 249        0.11480
     243 -> 247        0.62829

 Excited State   5:      Singlet-A      3.7035 eV  334.77 nm  f=0.0725  <S**2>=0.000
     240 -> 247        0.42275
     240 -> 249        0.33194
     240 -> 250       -0.17581
     241 -> 247       -0.10622
     242 -> 247        0.28547
     243 -> 247       -0.12321
     246 -> 248       -0.12379

 The electronic state is 1-A.
 Alpha  occ. eigenvalues --  -46.95881 -19.30791 -19.30297 -19.25068 -19.24915
 Alpha  occ. eigenvalues --  -19.24772 -19.24016 -14.46963 -14.46411 -14.44576
 Alpha  occ. eigenvalues --  -14.44216 -10.43984 -10.43184 -10.39781 -10.39036
 Alpha  occ. eigenvalues --  -10.36106 -10.35430 -10.35403 -10.35303 -10.35241
 Alpha  occ. eigenvalues --  -10.34887 -10.34836 -10.34660 -10.33632 -10.33174
 Alpha  occ. eigenvalues --  -10.33055 -10.32728 -10.32708 -10.32425 -10.32370
 Alpha  occ. eigenvalues --  -10.32344 -10.32176 -10.32168 -10.32134 -10.32093
 Alpha  occ. eigenvalues --  -10.31974 -10.31509 -10.31342 -10.30999 -10.30830
 Alpha  occ. eigenvalues --  -10.30807 -10.30634 -10.30465 -10.30380 -10.30201
 Alpha  occ. eigenvalues --  -10.30197 -10.29890 -10.29886 -10.29885 -10.29844
 Alpha  occ. eigenvalues --  -10.29835 -10.29678 -10.29592 -10.29515 -10.29452
 Alpha  occ. eigenvalues --  -10.29338 -10.29328 -10.29226 -10.29030 -10.28901
 Alpha  occ. eigenvalues --  -10.28852 -10.28839 -10.28683 -10.28675 -10.28403
 Alpha  occ. eigenvalues --  -10.28080  -3.21704  -1.95313  -1.94835  -1.94646
 Alpha  occ. eigenvalues --   -1.18797  -1.18643  -1.13042  -1.11694  -1.09812
 Alpha  occ. eigenvalues --   -1.09557  -1.07116  -1.05964  -1.05593  -1.03685
 Alpha  occ. eigenvalues --   -0.95361  -0.92219  -0.92012  -0.91565  -0.90716
 Alpha  occ. eigenvalues --   -0.90356  -0.89719  -0.89274  -0.89167  -0.88605
 Alpha  occ. eigenvalues --   -0.88081  -0.87451  -0.86463  -0.85685  -0.85117
 Alpha  occ. eigenvalues --   -0.84417  -0.83553  -0.83079  -0.82827  -0.82483
 Alpha  occ. eigenvalues --   -0.82063  -0.80392  -0.80156  -0.79220  -0.78317
 Alpha  occ. eigenvalues --   -0.78242  -0.77727  -0.77368  -0.76890  -0.75880
 Alpha  occ. eigenvalues --   -0.75304  -0.74783  -0.73891  -0.72677  -0.71236
 Alpha  occ. eigenvalues --   -0.71025  -0.70008  -0.69521  -0.68337  -0.68157
 Alpha  occ. eigenvalues --   -0.67173  -0.67103  -0.66585  -0.66286  -0.66225
 Alpha  occ. eigenvalues --   -0.65869  -0.65850  -0.64869  -0.64384  -0.62728
 Alpha  occ. eigenvalues --   -0.62433  -0.61935  -0.61527  -0.60700  -0.60325
 Alpha  occ. eigenvalues --   -0.59343  -0.59069  -0.58389  -0.58215  -0.57508
 Alpha  occ. eigenvalues --   -0.57208  -0.56886  -0.56756  -0.56673  -0.56007
 Alpha  occ. eigenvalues --   -0.55910  -0.55573  -0.55543  -0.55255  -0.54869
 Alpha  occ. eigenvalues --   -0.54682  -0.54632  -0.54471  -0.54308  -0.54000
 Alpha  occ. eigenvalues --   -0.53799  -0.53596  -0.53423  -0.52955  -0.52470
 Alpha  occ. eigenvalues --   -0.52108  -0.51993  -0.51709  -0.51649  -0.51488
 Alpha  occ. eigenvalues --   -0.51411  -0.51189  -0.51065  -0.51008  -0.50636
 Alpha  occ. eigenvalues --   -0.50552  -0.50313  -0.50073  -0.49942  -0.49767
 Alpha  occ. eigenvalues --   -0.49693  -0.49337  -0.49219  -0.49031  -0.48666
 Alpha  occ. eigenvalues --   -0.48389  -0.48291  -0.48175  -0.48064  -0.47742
 Alpha  occ. eigenvalues --   -0.47494  -0.47222  -0.47148  -0.46900  -0.46833
 Alpha  occ. eigenvalues --   -0.46477  -0.46385  -0.45984  -0.45778  -0.45635
 Alpha  occ. eigenvalues --   -0.45438  -0.45370  -0.45042  -0.44992  -0.44770
 Alpha  occ. eigenvalues --   -0.44640  -0.44557  -0.44452  -0.44366  -0.44124
 Alpha  occ. eigenvalues --   -0.44089  -0.44021  -0.43776  -0.43577  -0.43437
 Alpha  occ. eigenvalues --   -0.43102  -0.42668  -0.42452  -0.42381  -0.42325
 Alpha  occ. eigenvalues --   -0.41941  -0.41639  -0.41318  -0.40963  -0.40834
 Alpha  occ. eigenvalues --   -0.40368  -0.40319  -0.40281  -0.39921  -0.39687
 Alpha  occ. eigenvalues --   -0.39546  -0.39460  -0.39134  -0.38999  -0.38793
 Alpha  occ. eigenvalues --   -0.38660  -0.38394  -0.37705  -0.36658  -0.36494
 Alpha  occ. eigenvalues --   -0.36324  -0.36254  -0.35435  -0.34019  -0.33549
 Alpha  occ. eigenvalues --   -0.33303  -0.32892  -0.32410  -0.31803  -0.26013
 Alpha  occ. eigenvalues --   -0.23121
 Alpha virt. eigenvalues --   -0.06776  -0.00268   0.02062   0.04274   0.06169
 Alpha virt. eigenvalues --    0.06305   0.06831   0.07101   0.07881   0.08864
 Alpha virt. eigenvalues --    0.10242   0.10699   0.11471   0.11713   0.12044

 Mulliken charges:
               1
     1  Mg   0.949870
     2  C   -0.001605
     3  C   -0.068775
     4  C   -0.062751
     5  C   -0.082898
     6  N   -0.299557
     7  C   -0.020135
     8  C   -0.078130
     9  C   -0.108239
    10  C    0.030147
    11  C    0.021877
    12  C    0.043051
    13  C   -0.000023
    14  C    0.217953
    15  O   -0.278066
    16  O   -0.364947
    17  N   -0.450152
    18  C    0.170773
    19  C   -0.169433
    20  C   -0.056445
    21  C    0.165886
    22  C    0.075656
    23  C    0.046421
    24  O   -0.218393
    25  C   -0.032056
    26  N   -0.379878
    27  C    0.042655
    28  C   -0.074623
    29  C   -0.035238
    30  C    0.049190
    31  C    0.024444
    32  C   -0.043061
    33  C   -0.066928
    34  N   -0.441335
    35  C    0.119027
    36  C   -0.203399
    37  C   -0.067210
    38  C    0.169837
    39  C    0.075908
    40  C    0.179683
    41  O   -0.205490
    42  C   -0.066892
    43  C    0.218258
    44  O   -0.241077
    45  O   -0.378597
    46  C    0.143977
    47  C    0.280387
    48  C   -0.173372
    49  C   -0.171116
    50  C    0.003661
    51  C    0.036529
    52  C   -0.088443
    53  C    0.035557
    54  C   -0.134446
    55  C   -0.022409
    56  C   -0.006275
    57  C   -0.053443
    58  C   -0.014902
    59  C   -0.179332
    60  C    0.014403
    61  C    0.020073
    62  C   -0.068975
    63  C    0.029135
    64  C   -0.203483
    65  C    0.002968
    66  C   -0.027923
    67  H   -0.006644
    68  H    0.017165
    69  H   -0.008239
    70  H    0.026331
    71  H    0.044363
    72  H    0.021570
    73  H    0.044397
    74  H    0.054045
    75  H    0.043681
    76  H    0.043253
    77  H    0.068206
    78  H    0.047566
    79  H    0.009804
    80  H    0.045570
    81  H    0.056496
    82  H    0.044723
    83  H    0.048343
    84  H    0.064785
    85  H    0.038716
    86  H    0.032154
    87  H    0.048842
    88  H    0.053577
    89  H    0.032010
    90  H    0.036118
    91  H    0.037796
    92  H    0.048549
    93  H    0.025308
    94  H    0.040744
    95  H    0.064275
    96  H    0.055765
    97  H    0.040762
    98  H    0.073127
    99  H    0.053318
   100  H    0.059156
   101  H    0.056594
   102  H    0.049299
   103  H    0.053314
   104  H    0.021689
   105  H    0.057069
   106  H    0.027504
   107  H    0.034984
   108  H    0.036762
   109  H    0.022574
   110  H    0.028390
   111  H    0.031890
   112  H    0.022629
   113  H    0.012823
   114  H    0.024829
   115  H    0.026938
   116  H    0.017606
   117  H    0.032292
   118  H    0.016474
   119  H    0.010156
   120  H    0.024596
   121  H    0.032834
   122  H    0.014647
   123  H    0.018539
   124  H    0.012162
   125  H    0.023599
   126  H    0.038108
   127  H    0.024030
   128  H    0.011014
   129  H    0.010361
   130  H    0.016085
   131  H    0.020515
   132  H    0.024129
   133  H    0.013890
   134  H    0.028013
   135  H    0.029281
   136  H    0.031414
   137  H    0.024321
   138  H    0.026864
   139  H    0.032091
   140  H    0.026178
 Sum of Mulliken charges =  -0.00000

 Dipole moment (field-independent basis, Debye):
    X=             -4.3851    Y=              2.0811    Z=              0.2685  Tot=              4.8613
 Quadrupole moment (field-independent basis, Debye-Ang):
   XX=           -368.0722   YY=           -421.3793   ZZ=           -418.5144
   XY=             22.8140   XZ=              6.6481   YZ=            -12.0089

 Normal termination of Gaussian 16 at Thu May  5 13:05:01 2022.
