 Gaussian 16, Revision A.03,
 Gaussian 16:  ES64L-G16RevA.03 25-Dec-2016

 --------------------
 #p ZINDO=(nstates=5)
 --------------------

 -----------------------------
 step_901_chromophore_12 ZINDO
 -----------------------------
 Symbolic Z-matrix:
 Charge =  0 Multiplicity = 1

                         Standard orientation:
 ---------------------------------------------------------------------
 Center     Atomic      Atomic             Coordinates (Angstroms)
 Number     Number       Type             X           Y           Z
 ---------------------------------------------------------------------
      1         12           0        4.143774    0.532865    0.390785
      2          6           0        3.550012   -2.754284   -0.444464
      3          6           0        0.671626    1.057029   -0.042750
      4          6           0        4.645096    3.752860    0.857138
      5          6           0        7.593219   -0.038594   -0.142796
      6          7           0        2.298323   -0.777210   -0.062165
      7          6           0        2.353660   -2.120037   -0.180839
      8          6           0        0.939841   -2.660375   -0.149242
      9          6           0       -0.009856   -1.412315   -0.321218
     10          6           0        1.054633   -0.302432   -0.169854
     11          6           0       -0.871244   -1.451411   -1.605204
     12          6           0        0.653069   -3.517087    1.099639
     13          6           0       -0.594712   -4.369328    0.822556
     14          6           0       -1.665851   -4.374243    1.941033
     15          8           0       -1.428687   -4.324604    3.157110
     16          8           0       -2.972539   -4.300653    1.476960
     17          7           0        2.816818    2.140953    0.697170
     18          6           0        1.458862    2.171945    0.408599
     19          6           0        1.050091    3.519274    0.747897
     20          6           0        2.161606    4.288827    1.102617
     21          6           0        3.287727    3.369231    0.895925
     22          6           0       -0.465007    3.999858    0.637898
     23          6           0        2.176028    5.724738    1.545230
     24          8           0        3.175329    6.304739    1.911780
     25          6           0        0.891898    6.500164    1.526405
     26          7           0        5.969349    1.710157    0.481566
     27          6           0        5.868449    3.071636    0.673576
     28          6           0        7.297932    3.725934    0.405397
     29          6           0        8.260653    2.488435    0.317807
     30          6           0        7.262233    1.303520    0.190152
     31          6           0        7.353265    4.679426   -0.814999
     32          6           0        9.193233    2.283557    1.553947
     33          6           0        8.660213    1.591961    2.868724
     34          7           0        5.388405   -1.012905   -0.164076
     35          6           0        6.725102   -1.157850   -0.311217
     36          6           0        7.029150   -2.464858   -0.874041
     37          6           0        5.842837   -3.165005   -0.856276
     38          6           0        4.824335   -2.240788   -0.466724
     39          6           0        8.466060   -2.823846   -1.304452
     40          6           0        5.221003   -4.450636   -1.239252
     41          8           0        5.663522   -5.441108   -1.833898
     42          6           0        3.727476   -4.220425   -0.880535
     43          6           0        2.856101   -4.653984   -2.006287
     44          8           0        2.913464   -4.275571   -3.165029
     45          8           0        2.011388   -5.688322   -1.641783
     46          6           0        1.096561   -6.083184   -2.702609
     47          6           0       -3.963619   -4.386739    2.522645
     48          6           0       -5.315631   -4.285008    1.809977
     49          6           0       -6.486382   -3.627940    2.109571
     50          6           0       -6.667829   -3.012841    3.452588
     51          6           0       -7.656460   -3.727628    1.097529
     52          6           0       -8.717494   -2.555141    1.188722
     53          6           0       -9.360938   -2.145980   -0.155486
     54          6           0      -10.277765   -0.898396   -0.056360
     55          6           0      -11.722691   -1.204057   -0.462888
     56          6           0       -9.890094    0.315017   -0.933849
     57          6           0       -9.574209    1.535549   -0.049492
     58          6           0       -9.311199    2.826260   -0.961775
     59          6           0       -8.125454    3.776725   -0.394064
     60          6           0       -8.669579    4.797925    0.664644
     61          6           0       -7.294657    4.367961   -1.445485
     62          6           0       -5.918043    3.678725   -1.651062
     63          6           0       -5.035613    4.422079   -2.665348
     64          6           0       -3.522254    4.475076   -2.181811
     65          6           0       -2.585832    5.360270   -3.019367
     66          6           0       -2.973991    3.013338   -2.134399
     67          1           0       -0.383539    1.177711   -0.300173
     68          1           0        4.831055    4.828987    0.856315
     69          1           0        8.647251   -0.251046   -0.333081
     70          1           0        0.799231   -3.331567   -0.996998
     71          1           0       -0.749862   -1.319931    0.473374
     72          1           0       -0.966775   -0.430635   -1.975684
     73          1           0       -1.912950   -1.655088   -1.356599
     74          1           0       -0.443033   -2.039754   -2.416186
     75          1           0        0.529225   -2.827199    1.934155
     76          1           0        1.461746   -4.169106    1.427674
     77          1           0       -0.196442   -5.381846    0.765479
     78          1           0       -1.053324   -4.297597   -0.163001
     79          1           0       -1.067563    3.215158    0.180857
     80          1           0       -0.446184    4.861766   -0.029063
     81          1           0       -0.976198    4.283807    1.557579
     82          1           0        1.149087    7.433687    2.028558
     83          1           0        0.067518    6.100594    2.116872
     84          1           0        0.517760    6.752260    0.533933
     85          1           0        7.541375    4.265772    1.320097
     86          1           0        8.897522    2.525544   -0.565601
     87          1           0        7.262829    5.688978   -0.415304
     88          1           0        6.626477    4.462875   -1.597899
     89          1           0        8.351198    4.597240   -1.245503
     90          1           0        9.554377    3.210588    1.998932
     91          1           0       10.032421    1.678536    1.209945
     92          1           0        8.817162    2.183391    3.771135
     93          1           0        9.164344    0.628041    2.935746
     94          1           0        7.652781    1.177782    2.836181
     95          1           0        8.410372   -3.612241   -2.054722
     96          1           0        9.013378   -3.140140   -0.416309
     97          1           0        8.995098   -1.964998   -1.719736
     98          1           0        3.555565   -4.932902   -0.072978
     99          1           0        0.612071   -5.217001   -3.154165
    100          1           0        0.520141   -6.874255   -2.224818
    101          1           0        1.721740   -6.502729   -3.490953
    102          1           0       -3.952298   -3.573610    3.248795
    103          1           0       -3.901644   -5.365239    2.999030
    104          1           0       -5.286626   -4.772627    0.834483
    105          1           0       -6.583394   -1.928441    3.526393
    106          1           0       -5.950931   -3.502418    4.111505
    107          1           0       -7.530447   -3.283402    4.060816
    108          1           0       -8.201337   -4.648431    1.306814
    109          1           0       -7.366894   -3.861717    0.055521
    110          1           0       -8.140345   -1.685150    1.503671
    111          1           0       -9.508557   -2.844791    1.879874
    112          1           0       -9.851974   -3.012067   -0.598508
    113          1           0       -8.478094   -1.876097   -0.734449
    114          1           0      -10.307130   -0.567515    0.982077
    115          1           0      -12.439718   -0.404301   -0.274255
    116          1           0      -12.164281   -2.025870    0.100913
    117          1           0      -11.741482   -1.450990   -1.524259
    118          1           0      -10.612222    0.560066   -1.712837
    119          1           0       -8.992776    0.187635   -1.540384
    120          1           0       -8.625263    1.261333    0.411051
    121          1           0      -10.324307    1.808056    0.692106
    122          1           0      -10.238856    3.394498   -0.895084
    123          1           0       -9.250213    2.590558   -2.024749
    124          1           0       -7.431325    3.108446    0.114281
    125          1           0       -8.643720    5.813905    0.271219
    126          1           0       -8.075084    4.786503    1.578222
    127          1           0       -9.726170    4.582905    0.829203
    128          1           0       -7.124985    5.430865   -1.276670
    129          1           0       -7.807383    4.277461   -2.403002
    130          1           0       -6.166839    2.686136   -2.026605
    131          1           0       -5.531615    3.487450   -0.650128
    132          1           0       -5.490292    5.348650   -3.015659
    133          1           0       -5.040300    3.809829   -3.566452
    134          1           0       -3.537717    4.846424   -1.157341
    135          1           0       -2.928977    5.386268   -4.053563
    136          1           0       -1.540818    5.051533   -2.975169
    137          1           0       -2.577958    6.396479   -2.683787
    138          1           0       -2.039665    2.852724   -2.673518
    139          1           0       -3.646778    2.249337   -2.523697
    140          1           0       -2.686222    2.786270   -1.108343
 ---------------------------------------------------------------------

 SCF Done:  E(RZINDO/S) =  -474.137593990     A.U. after   20 cycles

 Excitation energies and oscillator strengths:

 Excited State   1:      Singlet-A      1.2693 eV  976.80 nm  f=0.5809  <S**2>=0.000
     175 ->178        -0.20621
     176 ->177         0.65900
 This state for optimization and/or second-order correction.
 Total Energy, E(CIS/TDA) =  -474.090948249
 Copying the excited state density for this state as the 1-particle RhoCI density.

 Excited State   2:      Singlet-A      1.9198 eV  645.81 nm  f=0.0096  <S**2>=0.000
     175 ->177         0.51183
     176 ->178         0.46716

 Excited State   3:      Singlet-A      2.9538 eV  419.74 nm  f=0.4589  <S**2>=0.000
     175 ->177        -0.27538
     176 ->178         0.34150
     176 ->179         0.46875

 Excited State   4:      Singlet-A      3.0246 eV  409.92 nm  f=0.1308  <S**2>=0.000
     168 ->177         0.26567
     168 ->178         0.15278
     168 ->179         0.29924
     168 ->181        -0.27242
     168 ->186         0.15461
     169 ->179         0.19507
     169 ->186         0.10566
     170 ->177         0.10548
     175 ->177        -0.13371
     176 ->178         0.15642

 Excited State   5:      Singlet-A      3.0350 eV  408.51 nm  f=0.0097  <S**2>=0.000
     168 ->179         0.16005
     169 ->177         0.27261
     169 ->179        -0.29754
     169 ->181        -0.34006
     169 ->182         0.10151
     169 ->186        -0.18179
     169 ->187         0.15111
     170 ->179         0.11243

 The electronic state is 1-A.
 Alpha  occ. eigenvalues --   -1.84519  -1.81315  -1.78706  -1.74034  -1.73188
 Alpha  occ. eigenvalues --   -1.70784  -1.64365  -1.60631  -1.60297  -1.58840
 Alpha  occ. eigenvalues --   -1.53916  -1.52043  -1.49382  -1.47187  -1.44365
 Alpha  occ. eigenvalues --   -1.43833  -1.43347  -1.39211  -1.38624  -1.38015
 Alpha  occ. eigenvalues --   -1.36248  -1.33627  -1.33080  -1.31504  -1.28612
 Alpha  occ. eigenvalues --   -1.28106  -1.24076  -1.20880  -1.20300  -1.18564
 Alpha  occ. eigenvalues --   -1.17727  -1.16182  -1.15869  -1.14580  -1.13234
 Alpha  occ. eigenvalues --   -1.12789  -1.11160  -1.09986  -1.04462  -1.03827
 Alpha  occ. eigenvalues --   -1.02852  -1.01112  -0.98627  -0.97760  -0.96935
 Alpha  occ. eigenvalues --   -0.96345  -0.94299  -0.93662  -0.93397  -0.92965
 Alpha  occ. eigenvalues --   -0.89824  -0.89629  -0.88734  -0.88185  -0.87363
 Alpha  occ. eigenvalues --   -0.86684  -0.85115  -0.84000  -0.82745  -0.81320
 Alpha  occ. eigenvalues --   -0.80679  -0.79765  -0.77334  -0.76865  -0.76249
 Alpha  occ. eigenvalues --   -0.75711  -0.75191  -0.74455  -0.74323  -0.73889
 Alpha  occ. eigenvalues --   -0.73561  -0.73304  -0.72652  -0.71969  -0.71587
 Alpha  occ. eigenvalues --   -0.71312  -0.69959  -0.69288  -0.68406  -0.68032
 Alpha  occ. eigenvalues --   -0.67109  -0.66966  -0.66510  -0.66479  -0.66172
 Alpha  occ. eigenvalues --   -0.65668  -0.64558  -0.64158  -0.63928  -0.63745
 Alpha  occ. eigenvalues --   -0.63327  -0.62857  -0.62650  -0.62336  -0.61903
 Alpha  occ. eigenvalues --   -0.61560  -0.61137  -0.60788  -0.60409  -0.60019
 Alpha  occ. eigenvalues --   -0.59646  -0.59471  -0.59184  -0.58654  -0.58440
 Alpha  occ. eigenvalues --   -0.58063  -0.57748  -0.57470  -0.57036  -0.56567
 Alpha  occ. eigenvalues --   -0.56401  -0.55985  -0.55730  -0.55337  -0.54836
 Alpha  occ. eigenvalues --   -0.54148  -0.53679  -0.53317  -0.53036  -0.52747
 Alpha  occ. eigenvalues --   -0.52524  -0.52208  -0.51867  -0.51614  -0.51389
 Alpha  occ. eigenvalues --   -0.50978  -0.50899  -0.50818  -0.50608  -0.50180
 Alpha  occ. eigenvalues --   -0.50126  -0.49685  -0.49588  -0.49494  -0.49238
 Alpha  occ. eigenvalues --   -0.48735  -0.48674  -0.48450  -0.48238  -0.47990
 Alpha  occ. eigenvalues --   -0.47743  -0.47614  -0.47182  -0.46993  -0.46889
 Alpha  occ. eigenvalues --   -0.46578  -0.46350  -0.46127  -0.45976  -0.45384
 Alpha  occ. eigenvalues --   -0.45344  -0.45249  -0.45096  -0.44793  -0.44732
 Alpha  occ. eigenvalues --   -0.44257  -0.44217  -0.43697  -0.43260  -0.42557
 Alpha  occ. eigenvalues --   -0.42422  -0.42337  -0.42039  -0.39455  -0.39317
 Alpha  occ. eigenvalues --   -0.38329  -0.37222  -0.35748  -0.35709  -0.34800
 Alpha  occ. eigenvalues --   -0.33611  -0.33099  -0.32816  -0.32285  -0.26787
 Alpha  occ. eigenvalues --   -0.21759
 Alpha virt. eigenvalues --   -0.08277  -0.02554  -0.00611   0.00956   0.01152
 Alpha virt. eigenvalues --    0.02376   0.02420   0.02819   0.04029   0.04513
 Alpha virt. eigenvalues --    0.05994   0.06404   0.07110   0.07510   0.07877

 Mulliken charges:
               1
     1  Mg   0.430943
     2  C   -0.024686
     3  C   -0.070080
     4  C   -0.075145
     5  C   -0.082021
     6  N   -0.266169
     7  C    0.113472
     8  C    0.008364
     9  C    0.001561
    10  C    0.123179
    11  C   -0.053775
    12  C   -0.011917
    13  C    0.005020
    14  C    0.456973
    15  O   -0.521486
    16  O   -0.264290
    17  N   -0.314052
    18  C    0.093760
    19  C    0.010561
    20  C   -0.047058
    21  C    0.167542
    22  C   -0.057309
    23  C    0.337300
    24  O   -0.512988
    25  C   -0.035823
    26  N   -0.288999
    27  C    0.129735
    28  C    0.008741
    29  C    0.012279
    30  C    0.127080
    31  C   -0.046497
    32  C   -0.029217
    33  C   -0.065642
    34  N   -0.318769
    35  C    0.108294
    36  C    0.027328
    37  C   -0.040151
    38  C    0.094649
    39  C   -0.039844
    40  C    0.336381
    41  O   -0.507203
    42  C    0.055319
    43  C    0.485276
    44  O   -0.515596
    45  O   -0.283989
    46  C    0.071873
    47  C    0.114456
    48  C   -0.092123
    49  C   -0.009533
    50  C   -0.044174
    51  C   -0.027187
    52  C   -0.040289
    53  C   -0.033349
    54  C   -0.006306
    55  C   -0.054066
    56  C   -0.031611
    57  C   -0.040737
    58  C   -0.053540
    59  C   -0.012287
    60  C   -0.058867
    61  C   -0.028286
    62  C   -0.038592
    63  C   -0.032245
    64  C   -0.005527
    65  C   -0.053442
    66  C   -0.059873
    67  H    0.030510
    68  H    0.033725
    69  H    0.022142
    70  H    0.026152
    71  H    0.032965
    72  H    0.013312
    73  H    0.023545
    74  H    0.034712
    75  H    0.031876
    76  H    0.029441
    77  H    0.040425
    78  H    0.041204
    79  H    0.021670
    80  H    0.026927
    81  H    0.035316
    82  H    0.026286
    83  H    0.035551
    84  H    0.041036
    85  H    0.031620
    86  H    0.030677
    87  H    0.024994
    88  H    0.032782
    89  H    0.016245
    90  H    0.021350
    91  H    0.018689
    92  H    0.027492
    93  H    0.011838
    94  H    0.026912
    95  H    0.034912
    96  H    0.033113
    97  H    0.027329
    98  H    0.049803
    99  H    0.051215
   100  H    0.034714
   101  H    0.045164
   102  H    0.055796
   103  H    0.053505
   104  H    0.020558
   105  H    0.034188
   106  H    0.014152
   107  H    0.024463
   108  H    0.022175
   109  H    0.027051
   110  H    0.020533
   111  H    0.023580
   112  H    0.024784
   113  H    0.015747
   114  H    0.021466
   115  H    0.014718
   116  H    0.005524
   117  H    0.018692
   118  H    0.019904
   119  H    0.013475
   120  H    0.018335
   121  H    0.029090
   122  H    0.010410
   123  H    0.026278
   124  H    0.015172
   125  H    0.016928
   126  H    0.022520
   127  H    0.020652
   128  H    0.014333
   129  H    0.012007
   130  H    0.012841
   131  H    0.022875
   132  H    0.025597
   133  H    0.011839
   134  H    0.018707
   135  H    0.019936
   136  H    0.019685
   137  H    0.011066
   138  H    0.014402
   139  H    0.022507
   140  H    0.013518
 Sum of Mulliken charges =  -0.00000

 Dipole moment (field-independent basis, Debye):
    X=             -5.8545    Y=              2.0437    Z=              0.1563  Tot=              6.2030
 N-N= 4.507322288444D+03 E-N= 0.000000000000D+00  KE=-9.688152865319D+03
 Leave Link  601 at Thu May  5 13:17:46 2022, MaxMem=  6710886400 cpu:               0.8 elap:               0.0
 (Enter /sw/apps/gaussian-16.0/g16/l9999.exe)
 1\1\GINC-BP1-COMPUTE103\SP\RZINDO CIS\STO-3G\C55H74Mg1N4O6\OF15641\05-
 May-2022\0\\#p ZINDO=(nstates=5)\\step_901_chromophore_12 ZINDO\\0,1\M
 g,0,47.598,15.482,27.676\C,0,45.362,14.905,30.23\C,0,49.105,17.869,29.
 809\C,0,49.581,16.342,25.193\C,0,45.408,13.779,25.482\N,0,47.319,16.19
 ,29.855\C,0,46.43,15.637,30.706\C,0,46.747,16.118,32.106\C,0,47.767,17
 .31,31.939\C,0,48.059,17.141,30.431\C,0,47.233,18.669,32.449\C,0,47.23
 ,14.986,33.034\C,0,47.081,15.459,34.488\C,0,48.31,15.222,35.4\O,0,49.0

 Normal termination of Gaussian 16 at Thu May  5 13:17:46 2022.
