 Gaussian 16, Revision A.03,
 Gaussian 16:  ES64L-G16RevA.03 25-Dec-2016

 ------------------------------
 #p blyp/Def2SVP td=(nstates=5)
 ------------------------------

 -------------------------------------------------
 step_351_chromophore_9 TDDFT with blyp functional
 -------------------------------------------------
 Symbolic Z-matrix:
 Charge =  0 Multiplicity = 1

                         Standard orientation:
 ---------------------------------------------------------------------
 Center     Atomic      Atomic             Coordinates (Angstroms)
 Number     Number       Type             X           Y           Z
 ---------------------------------------------------------------------
      1         12           0       -5.253175    0.813232    0.134573
      2          6           0       -4.367486   -2.540549    0.491254
      3          6           0       -1.989070    1.647078    0.162971
      4          6           0       -6.243249    4.023688   -0.044239
      5          6           0       -8.714590   -0.160073    0.614677
      6          7           0       -3.396754   -0.340390    0.160472
      7          6           0       -3.270432   -1.730038    0.230019
      8          6           0       -1.806299   -2.183112   -0.052147
      9          6           0       -1.084951   -0.799812    0.147077
     10          6           0       -2.168874    0.229269    0.095373
     11          6           0       -0.031397   -0.713912    1.268298
     12          6           0       -1.682601   -2.851945   -1.506420
     13          6           0       -0.249019   -3.071098   -2.032376
     14          6           0        0.795086   -3.275858   -0.999043
     15          8           0        0.803650   -4.156384   -0.160798
     16          8           0        1.848734   -2.476608   -1.264043
     17          7           0       -4.214657    2.568033   -0.018645
     18          6           0       -2.933556    2.737622    0.085649
     19          6           0       -2.608810    4.193216   -0.283290
     20          6           0       -3.828058    4.841743   -0.495681
     21          6           0       -4.827500    3.782266   -0.152223
     22          6           0       -1.149155    4.533193   -0.445065
     23          6           0       -4.062520    6.256625   -1.016243
     24          8           0       -5.164423    6.734451   -1.226310
     25          6           0       -2.897486    7.202128   -1.255376
     26          7           0       -7.198868    1.764581    0.185837
     27          6           0       -7.337267    3.172627    0.050702
     28          6           0       -8.741877    3.667882    0.355558
     29          6           0       -9.538827    2.270088    0.370848
     30          6           0       -8.446079    1.213284    0.345562
     31          6           0       -8.842741    4.528888    1.628420
     32          6           0      -10.470034    2.090922   -0.846068
     33          6           0       -9.907250    1.947489   -2.282773
     34          7           0       -6.283404   -0.956488    0.500568
     35          6           0       -7.655111   -1.170862    0.576360
     36          6           0       -7.915949   -2.595812    0.736020
     37          6           0       -6.624693   -3.156151    0.758111
     38          6           0       -5.689878   -2.123474    0.603203
     39          6           0       -9.264150   -3.292610    0.876073
     40          6           0       -5.844062   -4.314098    0.941167
     41          8           0       -6.169561   -5.409567    1.268825
     42          6           0       -4.360481   -4.037812    0.475757
     43          6           0       -3.365081   -4.743402    1.337413
     44          8           0       -3.129346   -4.346643    2.457668
     45          8           0       -2.684778   -5.623511    0.627935
     46          6           0       -1.419050   -6.178979    1.100219
     47          6           0        3.006579   -2.617663   -0.360378
     48          6           0        4.160449   -2.005344   -1.064708
     49          6           0        5.283734   -2.537877   -1.605987
     50          6           0        5.656795   -4.074905   -1.580064
     51          6           0        6.173058   -1.704056   -2.504577
     52          6           0        7.466506   -1.176810   -1.825905
     53          6           0        8.744503   -1.623970   -2.539989
     54          6           0        9.475980   -0.561829   -3.306469
     55          6           0        9.825968   -0.988812   -4.749450
     56          6           0       10.828748   -0.110917   -2.559884
     57          6           0       10.874401    1.385575   -2.422474
     58          6           0       12.046558    1.738464   -1.537191
     59          6           0       11.677058    2.407327   -0.217364
     60          6           0       12.209743    3.920560   -0.137661
     61          6           0       12.165400    1.560289    0.928149
     62          6           0       11.348991    2.048547    2.215280
     63          6           0       11.338422    0.951908    3.308470
     64          6           0       11.577728    1.605995    4.721496
     65          6           0       13.035714    1.691796    5.257815
     66          6           0       10.612530    0.953620    5.807905
     67          1           0       -0.976173    1.931633    0.453675
     68          1           0       -6.505699    5.081709   -0.109550
     69          1           0       -9.767622   -0.354874    0.831327
     70          1           0       -1.487490   -2.931629    0.674336
     71          1           0       -0.529689   -0.563194   -0.760335
     72          1           0        0.371534   -1.720004    1.384240
     73          1           0       -0.636989   -0.495378    2.148471
     74          1           0        0.751704    0.019493    1.075446
     75          1           0       -2.089234   -2.040128   -2.110147
     76          1           0       -2.371044   -3.657192   -1.762038
     77          1           0        0.067393   -2.222101   -2.639215
     78          1           0       -0.188769   -3.934133   -2.695543
     79          1           0       -1.048261    5.148619   -1.338794
     80          1           0       -0.443431    3.719041   -0.280829
     81          1           0       -0.847667    5.205457    0.358536
     82          1           0       -2.146585    6.968545   -0.500578
     83          1           0       -3.221714    8.241768   -1.282586
     84          1           0       -2.496979    6.981224   -2.245370
     85          1           0       -9.113592    4.177526   -0.533421
     86          1           0      -10.166824    2.172753    1.257995
     87          1           0       -9.254530    3.929654    2.439610
     88          1           0       -9.447461    5.417775    1.448344
     89          1           0       -7.799586    4.728019    1.877576
     90          1           0      -10.893289    3.092865   -0.916100
     91          1           0      -11.191746    1.325372   -0.563622
     92          1           0      -10.195030    2.829290   -2.854875
     93          1           0      -10.472070    1.113879   -2.699470
     94          1           0       -8.821957    1.879642   -2.210947
     95          1           0       -9.915088   -3.034093    0.040901
     96          1           0       -9.823383   -3.139313    1.799364
     97          1           0       -9.023853   -4.352392    0.782148
     98          1           0       -4.314938   -4.493626   -0.513839
     99          1           0       -1.587348   -6.864535    1.931372
    100          1           0       -0.749335   -5.378478    1.413834
    101          1           0       -0.898545   -6.709952    0.303546
    102          1           0        3.260493   -3.670209   -0.244115
    103          1           0        2.896711   -2.107152    0.596057
    104          1           0        4.028340   -0.931846   -1.204856
    105          1           0        5.544690   -4.385357   -2.618797
    106          1           0        5.066716   -4.708742   -0.917491
    107          1           0        6.719533   -4.132719   -1.342779
    108          1           0        5.648681   -0.841660   -2.915714
    109          1           0        6.339177   -2.364323   -3.356442
    110          1           0        7.481788   -1.421033   -0.764214
    111          1           0        7.390785   -0.094614   -1.938563
    112          1           0        8.409732   -2.413733   -3.212462
    113          1           0        9.526222   -1.948615   -1.852986
    114          1           0        8.926828    0.340818   -3.574685
    115          1           0       10.539525   -1.812881   -4.789264
    116          1           0       10.204266   -0.165992   -5.356395
    117          1           0        8.973110   -1.382358   -5.303421
    118          1           0       11.735018   -0.441535   -3.067702
    119          1           0       10.945555   -0.471807   -1.538025
    120          1           0        9.942570    1.836137   -2.080673
    121          1           0       11.057140    1.848920   -3.392168
    122          1           0       12.707400    2.261562   -2.229372
    123          1           0       12.567085    0.795579   -1.365221
    124          1           0       10.595727    2.479708   -0.105411
    125          1           0       12.874832    4.038587    0.717371
    126          1           0       11.390354    4.629777   -0.022709
    127          1           0       12.758671    4.145632   -1.052254
    128          1           0       13.192378    1.853475    1.147845
    129          1           0       12.149796    0.481984    0.772088
    130          1           0       10.312919    2.345692    2.056777
    131          1           0       11.853481    2.946938    2.572811
    132          1           0       12.128857    0.229792    3.106936
    133          1           0       10.394127    0.419301    3.192632
    134          1           0       11.230525    2.627639    4.564389
    135          1           0       13.319153    2.744233    5.283950
    136          1           0       13.712869    1.165143    4.586465
    137          1           0       13.175458    1.246873    6.243463
    138          1           0       11.183286    0.744248    6.712916
    139          1           0       10.122370    0.062622    5.415260
    140          1           0        9.790551    1.632004    6.033779
 ---------------------------------------------------------------------

 SCF Done:  E(RB-LYP) =  -3007.37630477     A.U. after   22 cycles

 Excitation energies and oscillator strengths:

 Excited State   1:      Singlet-A      1.7095 eV  725.27 nm  f=0.0152  <S**2>=0.000
     244 -> 247        0.54852
     245 -> 247       -0.43682
 This state for optimization and/or second-order correction.
 Total Energy, E(TD-HF/TD-DFT) =  -3007.31348220
 Copying the excited state density for this state as the 1-particle RhoCI density.

 Excited State   2:      Singlet-A      1.7927 eV  691.62 nm  f=0.2815  <S**2>=0.000
     245 -> 248       -0.16492
     246 -> 247        0.68513
     246 <- 247       -0.15098

 Excited State   3:      Singlet-A      2.0583 eV  602.35 nm  f=0.0651  <S**2>=0.000
     244 -> 247        0.41234
     245 -> 247        0.48447
     246 -> 248        0.24736
     246 -> 249        0.14425

 Excited State   4:      Singlet-A      2.1462 eV  577.69 nm  f=0.0013  <S**2>=0.000
     243 -> 247        0.70362

 Excited State   5:      Singlet-A      2.4382 eV  508.50 nm  f=0.0020  <S**2>=0.000
     241 -> 247        0.18749
     242 -> 247        0.66799
     246 -> 248       -0.11591

 The electronic state is 1-A.
 Alpha  occ. eigenvalues --  -46.26705 -18.83222 -18.81557 -18.77566 -18.75892
 Alpha  occ. eigenvalues --  -18.74717 -18.74193 -14.03091 -14.02874 -14.01673
 Alpha  occ. eigenvalues --  -14.00504 -10.04599 -10.02333 -10.00423  -9.98424
 Alpha  occ. eigenvalues --   -9.97724  -9.96786  -9.96644  -9.96415  -9.96001
 Alpha  occ. eigenvalues --   -9.95977  -9.95944  -9.95840  -9.95458  -9.94598
 Alpha  occ. eigenvalues --   -9.94573  -9.94315  -9.94009  -9.93966  -9.93945
 Alpha  occ. eigenvalues --   -9.93544  -9.93461  -9.93458  -9.93413  -9.93337
 Alpha  occ. eigenvalues --   -9.93213  -9.93043  -9.93033  -9.92986  -9.92760
 Alpha  occ. eigenvalues --   -9.92700  -9.92675  -9.92270  -9.92239  -9.92187
 Alpha  occ. eigenvalues --   -9.92178  -9.92109  -9.92098  -9.92085  -9.92008
 Alpha  occ. eigenvalues --   -9.91966  -9.91905  -9.91824  -9.91574  -9.91406
 Alpha  occ. eigenvalues --   -9.91359  -9.91330  -9.91278  -9.91207  -9.91154
 Alpha  occ. eigenvalues --   -9.91111  -9.91093  -9.90686  -9.90550  -9.90274
 Alpha  occ. eigenvalues --   -9.89779  -2.91367  -1.71812  -1.71216  -1.71100
 Alpha  occ. eigenvalues --   -0.99517  -0.97969  -0.92113  -0.91911  -0.91093
 Alpha  occ. eigenvalues --   -0.89150  -0.87208  -0.86290  -0.85138  -0.83879
 Alpha  occ. eigenvalues --   -0.75140  -0.74342  -0.73617  -0.72914  -0.72122
 Alpha  occ. eigenvalues --   -0.71616  -0.71191  -0.70921  -0.70822  -0.70497
 Alpha  occ. eigenvalues --   -0.69661  -0.69239  -0.68634  -0.67532  -0.66998
 Alpha  occ. eigenvalues --   -0.66599  -0.65656  -0.65327  -0.65008  -0.64266
 Alpha  occ. eigenvalues --   -0.64186  -0.62715  -0.62619  -0.61516  -0.61192
 Alpha  occ. eigenvalues --   -0.60368  -0.59900  -0.59666  -0.59471  -0.59084
 Alpha  occ. eigenvalues --   -0.58587  -0.57431  -0.56802  -0.55836  -0.54233
 Alpha  occ. eigenvalues --   -0.53904  -0.53455  -0.53012  -0.52830  -0.51458
 Alpha  occ. eigenvalues --   -0.51027  -0.50588  -0.50511  -0.50092  -0.50052
 Alpha  occ. eigenvalues --   -0.49563  -0.49550  -0.49067  -0.48200  -0.47016
 Alpha  occ. eigenvalues --   -0.46311  -0.45951  -0.45400  -0.44634  -0.44215
 Alpha  occ. eigenvalues --   -0.43634  -0.43609  -0.43206  -0.42718  -0.42380
 Alpha  occ. eigenvalues --   -0.42011  -0.41916  -0.41887  -0.41721  -0.41491
 Alpha  occ. eigenvalues --   -0.41195  -0.40743  -0.40616  -0.40339  -0.40014
 Alpha  occ. eigenvalues --   -0.39774  -0.39669  -0.39539  -0.39434  -0.39145
 Alpha  occ. eigenvalues --   -0.39092  -0.38843  -0.38587  -0.38386  -0.38111
 Alpha  occ. eigenvalues --   -0.37951  -0.37870  -0.37584  -0.37470  -0.37284
 Alpha  occ. eigenvalues --   -0.37247  -0.37148  -0.36794  -0.36688  -0.36561
 Alpha  occ. eigenvalues --   -0.36313  -0.36138  -0.35981  -0.35749  -0.35705
 Alpha  occ. eigenvalues --   -0.35432  -0.35268  -0.35037  -0.34722  -0.34448
 Alpha  occ. eigenvalues --   -0.34329  -0.34170  -0.34142  -0.33959  -0.33880
 Alpha  occ. eigenvalues --   -0.33673  -0.33672  -0.33595  -0.33423  -0.33083
 Alpha  occ. eigenvalues --   -0.32969  -0.32914  -0.32669  -0.32580  -0.32503
 Alpha  occ. eigenvalues --   -0.32089  -0.31947  -0.31869  -0.31670  -0.31656
 Alpha  occ. eigenvalues --   -0.31396  -0.31372  -0.30898  -0.30665  -0.30585
 Alpha  occ. eigenvalues --   -0.30463  -0.30362  -0.30156  -0.29971  -0.29844
 Alpha  occ. eigenvalues --   -0.29625  -0.29560  -0.29411  -0.29229  -0.29213
 Alpha  occ. eigenvalues --   -0.28600  -0.28406  -0.28218  -0.28052  -0.27931
 Alpha  occ. eigenvalues --   -0.27849  -0.27495  -0.27356  -0.27014  -0.26761
 Alpha  occ. eigenvalues --   -0.26534  -0.26254  -0.26117  -0.25808  -0.25544
 Alpha  occ. eigenvalues --   -0.25486  -0.24283  -0.24010  -0.23301  -0.23166
 Alpha  occ. eigenvalues --   -0.23110  -0.22961  -0.21920  -0.21265  -0.21098
 Alpha  occ. eigenvalues --   -0.20437  -0.19968  -0.18927  -0.17515  -0.16730
 Alpha  occ. eigenvalues --   -0.15326
 Alpha virt. eigenvalues --   -0.11117  -0.06873  -0.05644  -0.03827  -0.03690
 Alpha virt. eigenvalues --   -0.02879  -0.01852  -0.01094  -0.00949   0.00251
 Alpha virt. eigenvalues --    0.00894   0.01616   0.01993   0.02577   0.02754

 Mulliken charges:
               1
     1  Mg   0.702160
     2  C    0.072419
     3  C   -0.093349
     4  C   -0.041658
     5  C   -0.081623
     6  N   -0.230297
     7  C   -0.108629
     8  C   -0.002867
     9  C    0.016397
    10  C    0.028878
    11  C    0.132699
    12  C    0.116660
    13  C    0.169881
    14  C    0.043265
    15  O   -0.196214
    16  O   -0.256911
    17  N   -0.245635
    18  C    0.085941
    19  C   -0.146626
    20  C    0.037424
    21  C    0.083597
    22  C    0.181018
    23  C   -0.081117
    24  O   -0.155985
    25  C    0.130693
    26  N   -0.243594
    27  C   -0.003028
    28  C    0.044668
    29  C    0.001692
    30  C    0.033105
    31  C    0.164077
    32  C    0.041704
    33  C    0.080891
    34  N   -0.230407
    35  C    0.128240
    36  C   -0.197344
    37  C    0.124367
    38  C    0.043242
    39  C    0.168636
    40  C   -0.111777
    41  O   -0.103536
    42  C    0.046318
    43  C    0.080382
    44  O   -0.183088
    45  O   -0.240661
    46  C    0.219610
    47  C    0.358451
    48  C   -0.136339
    49  C   -0.134594
    50  C    0.121105
    51  C    0.102097
    52  C    0.091086
    53  C    0.163088
    54  C   -0.051067
    55  C    0.066279
    56  C    0.071150
    57  C    0.037170
    58  C    0.137394
    59  C   -0.051838
    60  C    0.098134
    61  C    0.082965
    62  C    0.012021
    63  C    0.120853
    64  C   -0.113890
    65  C    0.110743
    66  C    0.090489
    67  H   -0.049415
    68  H   -0.043840
    69  H   -0.054986
    70  H    0.010325
    71  H   -0.032330
    72  H    0.007678
    73  H   -0.000524
    74  H    0.005449
    75  H   -0.037198
    76  H   -0.003161
    77  H   -0.013995
    78  H    0.006488
    79  H   -0.002179
    80  H   -0.014132
    81  H   -0.003807
    82  H   -0.005330
    83  H    0.002324
    84  H    0.012907
    85  H   -0.029278
    86  H   -0.034797
    87  H   -0.012921
    88  H    0.003409
    89  H   -0.004775
    90  H   -0.029543
    91  H   -0.015263
    92  H   -0.012151
    93  H   -0.002885
    94  H    0.016188
    95  H   -0.010375
    96  H    0.007333
    97  H    0.003780
    98  H    0.002614
    99  H    0.009569
   100  H    0.027322
   101  H    0.010990
   102  H   -0.019288
   103  H    0.009073
   104  H   -0.046447
   105  H    0.004450
   106  H    0.004131
   107  H   -0.000620
   108  H   -0.028123
   109  H   -0.022824
   110  H   -0.019789
   111  H   -0.027297
   112  H   -0.041700
   113  H   -0.036921
   114  H   -0.033500
   115  H   -0.022929
   116  H   -0.017670
   117  H   -0.026561
   118  H   -0.026828
   119  H   -0.028508
   120  H   -0.030232
   121  H   -0.046086
   122  H   -0.045652
   123  H   -0.046150
   124  H   -0.034046
   125  H   -0.014191
   126  H   -0.013252
   127  H   -0.016225
   128  H   -0.032884
   129  H   -0.015039
   130  H   -0.026765
   131  H   -0.025164
   132  H   -0.035274
   133  H   -0.030687
   134  H   -0.028252
   135  H   -0.009459
   136  H   -0.019474
   137  H   -0.010805
   138  H   -0.016858
   139  H   -0.016774
   140  H   -0.017784
 Sum of Mulliken charges =  -0.00000

 Dipole moment (field-independent basis, Debye):
    X=              5.5017    Y=              3.1921    Z=             -3.7630  Tot=              7.3904
 Quadrupole moment (field-independent basis, Debye-Ang):
   XX=           -379.6834   YY=           -434.0185   ZZ=           -411.7387
   XY=            -21.8103   XZ=              4.1590   YZ=             22.4624

 Normal termination of Gaussian 16 at Fri Apr 29 17:19:01 2022.
