 Gaussian 16, Revision A.03,
 Gaussian 16:  ES64L-G16RevA.03 25-Dec-2016

 -----------------------------------
 #p cam-b3lyp/Def2SVP td=(nstates=5)
 -----------------------------------

 ------------------------------------------------------
 step_351_chromophore_9 TDDFT with cam-b3lyp functional
 ------------------------------------------------------
 Symbolic Z-matrix:
 Charge =  0 Multiplicity = 1

                         Standard orientation:
 ---------------------------------------------------------------------
 Center     Atomic      Atomic             Coordinates (Angstroms)
 Number     Number       Type             X           Y           Z
 ---------------------------------------------------------------------
      1         12           0       -5.253175    0.813232    0.134573
      2          6           0       -4.367486   -2.540549    0.491254
      3          6           0       -1.989070    1.647078    0.162971
      4          6           0       -6.243249    4.023688   -0.044239
      5          6           0       -8.714590   -0.160073    0.614677
      6          7           0       -3.396754   -0.340390    0.160472
      7          6           0       -3.270432   -1.730038    0.230019
      8          6           0       -1.806299   -2.183112   -0.052147
      9          6           0       -1.084951   -0.799812    0.147077
     10          6           0       -2.168874    0.229269    0.095373
     11          6           0       -0.031397   -0.713912    1.268298
     12          6           0       -1.682601   -2.851945   -1.506420
     13          6           0       -0.249019   -3.071098   -2.032376
     14          6           0        0.795086   -3.275858   -0.999043
     15          8           0        0.803650   -4.156384   -0.160798
     16          8           0        1.848734   -2.476608   -1.264043
     17          7           0       -4.214657    2.568033   -0.018645
     18          6           0       -2.933556    2.737622    0.085649
     19          6           0       -2.608810    4.193216   -0.283290
     20          6           0       -3.828058    4.841743   -0.495681
     21          6           0       -4.827500    3.782266   -0.152223
     22          6           0       -1.149155    4.533193   -0.445065
     23          6           0       -4.062520    6.256625   -1.016243
     24          8           0       -5.164423    6.734451   -1.226310
     25          6           0       -2.897486    7.202128   -1.255376
     26          7           0       -7.198868    1.764581    0.185837
     27          6           0       -7.337267    3.172627    0.050702
     28          6           0       -8.741877    3.667882    0.355558
     29          6           0       -9.538827    2.270088    0.370848
     30          6           0       -8.446079    1.213284    0.345562
     31          6           0       -8.842741    4.528888    1.628420
     32          6           0      -10.470034    2.090922   -0.846068
     33          6           0       -9.907250    1.947489   -2.282773
     34          7           0       -6.283404   -0.956488    0.500568
     35          6           0       -7.655111   -1.170862    0.576360
     36          6           0       -7.915949   -2.595812    0.736020
     37          6           0       -6.624693   -3.156151    0.758111
     38          6           0       -5.689878   -2.123474    0.603203
     39          6           0       -9.264150   -3.292610    0.876073
     40          6           0       -5.844062   -4.314098    0.941167
     41          8           0       -6.169561   -5.409567    1.268825
     42          6           0       -4.360481   -4.037812    0.475757
     43          6           0       -3.365081   -4.743402    1.337413
     44          8           0       -3.129346   -4.346643    2.457668
     45          8           0       -2.684778   -5.623511    0.627935
     46          6           0       -1.419050   -6.178979    1.100219
     47          6           0        3.006579   -2.617663   -0.360378
     48          6           0        4.160449   -2.005344   -1.064708
     49          6           0        5.283734   -2.537877   -1.605987
     50          6           0        5.656795   -4.074905   -1.580064
     51          6           0        6.173058   -1.704056   -2.504577
     52          6           0        7.466506   -1.176810   -1.825905
     53          6           0        8.744503   -1.623970   -2.539989
     54          6           0        9.475980   -0.561829   -3.306469
     55          6           0        9.825968   -0.988812   -4.749450
     56          6           0       10.828748   -0.110917   -2.559884
     57          6           0       10.874401    1.385575   -2.422474
     58          6           0       12.046558    1.738464   -1.537191
     59          6           0       11.677058    2.407327   -0.217364
     60          6           0       12.209743    3.920560   -0.137661
     61          6           0       12.165400    1.560289    0.928149
     62          6           0       11.348991    2.048547    2.215280
     63          6           0       11.338422    0.951908    3.308470
     64          6           0       11.577728    1.605995    4.721496
     65          6           0       13.035714    1.691796    5.257815
     66          6           0       10.612530    0.953620    5.807905
     67          1           0       -0.976173    1.931633    0.453675
     68          1           0       -6.505699    5.081709   -0.109550
     69          1           0       -9.767622   -0.354874    0.831327
     70          1           0       -1.487490   -2.931629    0.674336
     71          1           0       -0.529689   -0.563194   -0.760335
     72          1           0        0.371534   -1.720004    1.384240
     73          1           0       -0.636989   -0.495378    2.148471
     74          1           0        0.751704    0.019493    1.075446
     75          1           0       -2.089234   -2.040128   -2.110147
     76          1           0       -2.371044   -3.657192   -1.762038
     77          1           0        0.067393   -2.222101   -2.639215
     78          1           0       -0.188769   -3.934133   -2.695543
     79          1           0       -1.048261    5.148619   -1.338794
     80          1           0       -0.443431    3.719041   -0.280829
     81          1           0       -0.847667    5.205457    0.358536
     82          1           0       -2.146585    6.968545   -0.500578
     83          1           0       -3.221714    8.241768   -1.282586
     84          1           0       -2.496979    6.981224   -2.245370
     85          1           0       -9.113592    4.177526   -0.533421
     86          1           0      -10.166824    2.172753    1.257995
     87          1           0       -9.254530    3.929654    2.439610
     88          1           0       -9.447461    5.417775    1.448344
     89          1           0       -7.799586    4.728019    1.877576
     90          1           0      -10.893289    3.092865   -0.916100
     91          1           0      -11.191746    1.325372   -0.563622
     92          1           0      -10.195030    2.829290   -2.854875
     93          1           0      -10.472070    1.113879   -2.699470
     94          1           0       -8.821957    1.879642   -2.210947
     95          1           0       -9.915088   -3.034093    0.040901
     96          1           0       -9.823383   -3.139313    1.799364
     97          1           0       -9.023853   -4.352392    0.782148
     98          1           0       -4.314938   -4.493626   -0.513839
     99          1           0       -1.587348   -6.864535    1.931372
    100          1           0       -0.749335   -5.378478    1.413834
    101          1           0       -0.898545   -6.709952    0.303546
    102          1           0        3.260493   -3.670209   -0.244115
    103          1           0        2.896711   -2.107152    0.596057
    104          1           0        4.028340   -0.931846   -1.204856
    105          1           0        5.544690   -4.385357   -2.618797
    106          1           0        5.066716   -4.708742   -0.917491
    107          1           0        6.719533   -4.132719   -1.342779
    108          1           0        5.648681   -0.841660   -2.915714
    109          1           0        6.339177   -2.364323   -3.356442
    110          1           0        7.481788   -1.421033   -0.764214
    111          1           0        7.390785   -0.094614   -1.938563
    112          1           0        8.409732   -2.413733   -3.212462
    113          1           0        9.526222   -1.948615   -1.852986
    114          1           0        8.926828    0.340818   -3.574685
    115          1           0       10.539525   -1.812881   -4.789264
    116          1           0       10.204266   -0.165992   -5.356395
    117          1           0        8.973110   -1.382358   -5.303421
    118          1           0       11.735018   -0.441535   -3.067702
    119          1           0       10.945555   -0.471807   -1.538025
    120          1           0        9.942570    1.836137   -2.080673
    121          1           0       11.057140    1.848920   -3.392168
    122          1           0       12.707400    2.261562   -2.229372
    123          1           0       12.567085    0.795579   -1.365221
    124          1           0       10.595727    2.479708   -0.105411
    125          1           0       12.874832    4.038587    0.717371
    126          1           0       11.390354    4.629777   -0.022709
    127          1           0       12.758671    4.145632   -1.052254
    128          1           0       13.192378    1.853475    1.147845
    129          1           0       12.149796    0.481984    0.772088
    130          1           0       10.312919    2.345692    2.056777
    131          1           0       11.853481    2.946938    2.572811
    132          1           0       12.128857    0.229792    3.106936
    133          1           0       10.394127    0.419301    3.192632
    134          1           0       11.230525    2.627639    4.564389
    135          1           0       13.319153    2.744233    5.283950
    136          1           0       13.712869    1.165143    4.586465
    137          1           0       13.175458    1.246873    6.243463
    138          1           0       11.183286    0.744248    6.712916
    139          1           0       10.122370    0.062622    5.415260
    140          1           0        9.790551    1.632004    6.033779
 ---------------------------------------------------------------------

 SCF Done:  E(RCAM-B3LYP) =  -3007.17854498     A.U. after   17 cycles

 Excitation energies and oscillator strengths:

 Excited State   1:      Singlet-A      1.6783 eV  738.77 nm  f=0.3598  <S**2>=0.000
     245 -> 248       -0.17222
     246 -> 247        0.68591
     245 <- 248       -0.10461
 This state for optimization and/or second-order correction.
 Total Energy, E(TD-HF/TD-DFT) =  -3007.11687032
 Copying the excited state density for this state as the 1-particle RhoCI density.

 Excited State   2:      Singlet-A      2.2248 eV  557.27 nm  f=0.1063  <S**2>=0.000
     245 -> 247        0.63264
     246 -> 248        0.29947

 Excited State   3:      Singlet-A      3.4037 eV  364.26 nm  f=0.1158  <S**2>=0.000
     244 -> 247        0.55625
     244 -> 249        0.14152
     244 -> 250        0.20774
     245 -> 247       -0.13014
     246 -> 248        0.29726

 Excited State   4:      Singlet-A      3.4993 eV  354.31 nm  f=0.5893  <S**2>=0.000
     244 -> 247       -0.29287
     244 -> 250       -0.10304
     245 -> 247       -0.26225
     246 -> 248        0.55591

 Excited State   5:      Singlet-A      3.5542 eV  348.84 nm  f=0.0195  <S**2>=0.000
     242 -> 247       -0.12378
     243 -> 247        0.67444

 The electronic state is 1-A.
 Alpha  occ. eigenvalues --  -46.88254 -19.26139 -19.24394 -19.20509 -19.19341
 Alpha  occ. eigenvalues --  -19.17624 -19.17111 -14.42015 -14.41793 -14.40382
 Alpha  occ. eigenvalues --  -14.38789 -10.39812 -10.37524 -10.35834 -10.32690
 Alpha  occ. eigenvalues --  -10.32558 -10.31323 -10.31208 -10.30712 -10.30687
 Alpha  occ. eigenvalues --  -10.30629 -10.30368 -10.30102 -10.29628 -10.29494
 Alpha  occ. eigenvalues --  -10.28712 -10.28521 -10.28156 -10.28015 -10.27845
 Alpha  occ. eigenvalues --  -10.27825 -10.27530 -10.27488 -10.27458 -10.27272
 Alpha  occ. eigenvalues --  -10.27213 -10.27173 -10.27098 -10.27025 -10.26813
 Alpha  occ. eigenvalues --  -10.26531 -10.26522 -10.26430 -10.26213 -10.26144
 Alpha  occ. eigenvalues --  -10.26036 -10.25960 -10.25939 -10.25889 -10.25770
 Alpha  occ. eigenvalues --  -10.25746 -10.25553 -10.25468 -10.25123 -10.25108
 Alpha  occ. eigenvalues --  -10.25026 -10.24990 -10.24939 -10.24922 -10.24811
 Alpha  occ. eigenvalues --  -10.24757 -10.24726 -10.24316 -10.24160 -10.23905
 Alpha  occ. eigenvalues --  -10.23572  -3.16824  -1.91745  -1.91246  -1.91156
 Alpha  occ. eigenvalues --   -1.18006  -1.16416  -1.10764  -1.10171  -1.08956
 Alpha  occ. eigenvalues --   -1.07026  -1.05150  -1.03833  -1.02741  -1.01445
 Alpha  occ. eigenvalues --   -0.92129  -0.91228  -0.90440  -0.89650  -0.88822
 Alpha  occ. eigenvalues --   -0.88260  -0.87984  -0.87883  -0.87385  -0.87044
 Alpha  occ. eigenvalues --   -0.86056  -0.85619  -0.84949  -0.83685  -0.83047
 Alpha  occ. eigenvalues --   -0.82650  -0.81923  -0.81312  -0.80855  -0.80117
 Alpha  occ. eigenvalues --   -0.80020  -0.78578  -0.78216  -0.76968  -0.76577
 Alpha  occ. eigenvalues --   -0.75759  -0.75242  -0.74931  -0.74747  -0.74279
 Alpha  occ. eigenvalues --   -0.73703  -0.72400  -0.71718  -0.70653  -0.68867
 Alpha  occ. eigenvalues --   -0.68454  -0.68151  -0.67562  -0.67243  -0.65614
 Alpha  occ. eigenvalues --   -0.65216  -0.64636  -0.64612  -0.64052  -0.63859
 Alpha  occ. eigenvalues --   -0.63571  -0.63447  -0.62991  -0.61798  -0.60617
 Alpha  occ. eigenvalues --   -0.60033  -0.59499  -0.58827  -0.58126  -0.57486
 Alpha  occ. eigenvalues --   -0.57156  -0.57018  -0.56617  -0.55820  -0.55615
 Alpha  occ. eigenvalues --   -0.55281  -0.55030  -0.54650  -0.54518  -0.54346
 Alpha  occ. eigenvalues --   -0.54053  -0.53870  -0.53609  -0.52923  -0.52881
 Alpha  occ. eigenvalues --   -0.52626  -0.52443  -0.52402  -0.51949  -0.51826
 Alpha  occ. eigenvalues --   -0.51506  -0.51392  -0.51136  -0.50775  -0.50689
 Alpha  occ. eigenvalues --   -0.50512  -0.50207  -0.50119  -0.49992  -0.49642
 Alpha  occ. eigenvalues --   -0.49544  -0.49430  -0.49399  -0.48900  -0.48686
 Alpha  occ. eigenvalues --   -0.48447  -0.48341  -0.48300  -0.48072  -0.47858
 Alpha  occ. eigenvalues --   -0.47630  -0.47435  -0.47078  -0.46669  -0.46383
 Alpha  occ. eigenvalues --   -0.46328  -0.46217  -0.45891  -0.45831  -0.45607
 Alpha  occ. eigenvalues --   -0.45454  -0.45328  -0.45206  -0.45185  -0.44911
 Alpha  occ. eigenvalues --   -0.44779  -0.44547  -0.44527  -0.44293  -0.44118
 Alpha  occ. eigenvalues --   -0.43823  -0.43633  -0.43536  -0.43322  -0.43258
 Alpha  occ. eigenvalues --   -0.42933  -0.42728  -0.42510  -0.42120  -0.41960
 Alpha  occ. eigenvalues --   -0.41906  -0.41631  -0.41505  -0.41347  -0.40858
 Alpha  occ. eigenvalues --   -0.40743  -0.40646  -0.40617  -0.40565  -0.40297
 Alpha  occ. eigenvalues --   -0.40158  -0.39596  -0.39480  -0.39137  -0.39051
 Alpha  occ. eigenvalues --   -0.38831  -0.38337  -0.38121  -0.38031  -0.37824
 Alpha  occ. eigenvalues --   -0.37491  -0.37465  -0.37024  -0.36498  -0.36448
 Alpha  occ. eigenvalues --   -0.36078  -0.35618  -0.34942  -0.34404  -0.34007
 Alpha  occ. eigenvalues --   -0.33662  -0.32945  -0.32206  -0.31524  -0.31147
 Alpha  occ. eigenvalues --   -0.30988  -0.30530  -0.29479  -0.29065  -0.23619
 Alpha  occ. eigenvalues --   -0.20605
 Alpha virt. eigenvalues --   -0.08241  -0.01504   0.00646   0.03226   0.03595
 Alpha virt. eigenvalues --    0.04105   0.04748   0.05118   0.06442   0.06999
 Alpha virt. eigenvalues --    0.07856   0.08332   0.08804   0.08897   0.09298

 Mulliken charges:
               1
     1  Mg   0.837745
     2  C    0.043175
     3  C   -0.109092
     4  C   -0.065241
     5  C   -0.082372
     6  N   -0.300977
     7  C   -0.061211
     8  C   -0.049132
     9  C   -0.048035
    10  C    0.054389
    11  C    0.078918
    12  C    0.069995
    13  C    0.093540
    14  C    0.121680
    15  O   -0.238379
    16  O   -0.319667
    17  N   -0.334072
    18  C    0.104311
    19  C   -0.152154
    20  C   -0.029802
    21  C    0.108301
    22  C    0.119068
    23  C   -0.001268
    24  O   -0.195211
    25  C    0.052258
    26  N   -0.312413
    27  C    0.021153
    28  C   -0.014364
    29  C   -0.052535
    30  C    0.044336
    31  C    0.102182
    32  C   -0.007799
    33  C    0.019580
    34  N   -0.321024
    35  C    0.128796
    36  C   -0.189078
    37  C    0.038311
    38  C    0.075098
    39  C    0.117762
    40  C   -0.008246
    41  O   -0.144932
    42  C   -0.032963
    43  C    0.170614
    44  O   -0.220011
    45  O   -0.305006
    46  C    0.181767
    47  C    0.324483
    48  C   -0.152499
    49  C   -0.159620
    50  C    0.066125
    51  C    0.043646
    52  C    0.035662
    53  C    0.102571
    54  C   -0.110780
    55  C    0.015738
    56  C    0.018618
    57  C   -0.011214
    58  C    0.079729
    59  C   -0.113495
    60  C    0.043523
    61  C    0.030944
    62  C   -0.035879
    63  C    0.067952
    64  C   -0.175218
    65  C    0.052251
    66  C    0.035301
    67  H   -0.018391
    68  H   -0.003126
    69  H   -0.018787
    70  H    0.040154
    71  H    0.003737
    72  H    0.029021
    73  H    0.025923
    74  H    0.027277
    75  H   -0.005484
    76  H    0.026584
    77  H    0.022373
    78  H    0.040310
    79  H    0.025064
    80  H    0.017250
    81  H    0.024617
    82  H    0.020644
    83  H    0.037336
    84  H    0.040684
    85  H    0.006563
    86  H    0.001903
    87  H    0.012836
    88  H    0.027995
    89  H    0.020834
    90  H   -0.001505
    91  H    0.011332
    92  H    0.011527
    93  H    0.021492
    94  H    0.036003
    95  H    0.014311
    96  H    0.032006
    97  H    0.030571
    98  H    0.043694
    99  H    0.033613
   100  H    0.048762
   101  H    0.034730
   102  H    0.011419
   103  H    0.033768
   104  H   -0.013754
   105  H    0.027681
   106  H    0.027810
   107  H    0.021661
   108  H    0.003717
   109  H    0.004150
   110  H    0.009863
   111  H    0.000980
   112  H   -0.012458
   113  H   -0.005792
   114  H   -0.002419
   115  H    0.000542
   116  H    0.006237
   117  H   -0.002260
   118  H    0.001789
   119  H   -0.003402
   120  H   -0.003486
   121  H   -0.017080
   122  H   -0.014388
   123  H   -0.015836
   124  H   -0.002790
   125  H    0.008282
   126  H    0.010507
   127  H    0.007980
   128  H   -0.004433
   129  H    0.010949
   130  H    0.000490
   131  H    0.000103
   132  H   -0.007510
   133  H   -0.001340
   134  H    0.003368
   135  H    0.013474
   136  H    0.003562
   137  H    0.012871
   138  H    0.006030
   139  H    0.006265
   140  H    0.005764
 Sum of Mulliken charges =  -0.00000

 Dipole moment (field-independent basis, Debye):
    X=              5.9935    Y=              4.0893    Z=             -4.0683  Tot=              8.3184
 Quadrupole moment (field-independent basis, Debye-Ang):
   XX=           -381.5689   YY=           -429.9430   ZZ=           -411.9918
   XY=            -25.0588   XZ=              4.5772   YZ=             22.7984

 Normal termination of Gaussian 16 at Fri Apr 29 16:02:21 2022.
