 Gaussian 16, Revision A.03,
 Gaussian 16:  ES64L-G16RevA.03 25-Dec-2016

 ---------------------------------
 #p PBE1PBE/Def2SVP td=(nstates=5)
 ---------------------------------

 ----------------------------------------------------
 step_351_chromophore_9 TDDFT with PBE1PBE functional
 ----------------------------------------------------
 Symbolic Z-matrix:
 Charge =  0 Multiplicity = 1

                         Standard orientation:
 ---------------------------------------------------------------------
 Center     Atomic      Atomic             Coordinates (Angstroms)
 Number     Number       Type             X           Y           Z
 ---------------------------------------------------------------------
      1         12           0       -5.253175    0.813232    0.134573
      2          6           0       -4.367486   -2.540549    0.491254
      3          6           0       -1.989070    1.647078    0.162971
      4          6           0       -6.243249    4.023688   -0.044239
      5          6           0       -8.714590   -0.160073    0.614677
      6          7           0       -3.396754   -0.340390    0.160472
      7          6           0       -3.270432   -1.730038    0.230019
      8          6           0       -1.806299   -2.183112   -0.052147
      9          6           0       -1.084951   -0.799812    0.147077
     10          6           0       -2.168874    0.229269    0.095373
     11          6           0       -0.031397   -0.713912    1.268298
     12          6           0       -1.682601   -2.851945   -1.506420
     13          6           0       -0.249019   -3.071098   -2.032376
     14          6           0        0.795086   -3.275858   -0.999043
     15          8           0        0.803650   -4.156384   -0.160798
     16          8           0        1.848734   -2.476608   -1.264043
     17          7           0       -4.214657    2.568033   -0.018645
     18          6           0       -2.933556    2.737622    0.085649
     19          6           0       -2.608810    4.193216   -0.283290
     20          6           0       -3.828058    4.841743   -0.495681
     21          6           0       -4.827500    3.782266   -0.152223
     22          6           0       -1.149155    4.533193   -0.445065
     23          6           0       -4.062520    6.256625   -1.016243
     24          8           0       -5.164423    6.734451   -1.226310
     25          6           0       -2.897486    7.202128   -1.255376
     26          7           0       -7.198868    1.764581    0.185837
     27          6           0       -7.337267    3.172627    0.050702
     28          6           0       -8.741877    3.667882    0.355558
     29          6           0       -9.538827    2.270088    0.370848
     30          6           0       -8.446079    1.213284    0.345562
     31          6           0       -8.842741    4.528888    1.628420
     32          6           0      -10.470034    2.090922   -0.846068
     33          6           0       -9.907250    1.947489   -2.282773
     34          7           0       -6.283404   -0.956488    0.500568
     35          6           0       -7.655111   -1.170862    0.576360
     36          6           0       -7.915949   -2.595812    0.736020
     37          6           0       -6.624693   -3.156151    0.758111
     38          6           0       -5.689878   -2.123474    0.603203
     39          6           0       -9.264150   -3.292610    0.876073
     40          6           0       -5.844062   -4.314098    0.941167
     41          8           0       -6.169561   -5.409567    1.268825
     42          6           0       -4.360481   -4.037812    0.475757
     43          6           0       -3.365081   -4.743402    1.337413
     44          8           0       -3.129346   -4.346643    2.457668
     45          8           0       -2.684778   -5.623511    0.627935
     46          6           0       -1.419050   -6.178979    1.100219
     47          6           0        3.006579   -2.617663   -0.360378
     48          6           0        4.160449   -2.005344   -1.064708
     49          6           0        5.283734   -2.537877   -1.605987
     50          6           0        5.656795   -4.074905   -1.580064
     51          6           0        6.173058   -1.704056   -2.504577
     52          6           0        7.466506   -1.176810   -1.825905
     53          6           0        8.744503   -1.623970   -2.539989
     54          6           0        9.475980   -0.561829   -3.306469
     55          6           0        9.825968   -0.988812   -4.749450
     56          6           0       10.828748   -0.110917   -2.559884
     57          6           0       10.874401    1.385575   -2.422474
     58          6           0       12.046558    1.738464   -1.537191
     59          6           0       11.677058    2.407327   -0.217364
     60          6           0       12.209743    3.920560   -0.137661
     61          6           0       12.165400    1.560289    0.928149
     62          6           0       11.348991    2.048547    2.215280
     63          6           0       11.338422    0.951908    3.308470
     64          6           0       11.577728    1.605995    4.721496
     65          6           0       13.035714    1.691796    5.257815
     66          6           0       10.612530    0.953620    5.807905
     67          1           0       -0.976173    1.931633    0.453675
     68          1           0       -6.505699    5.081709   -0.109550
     69          1           0       -9.767622   -0.354874    0.831327
     70          1           0       -1.487490   -2.931629    0.674336
     71          1           0       -0.529689   -0.563194   -0.760335
     72          1           0        0.371534   -1.720004    1.384240
     73          1           0       -0.636989   -0.495378    2.148471
     74          1           0        0.751704    0.019493    1.075446
     75          1           0       -2.089234   -2.040128   -2.110147
     76          1           0       -2.371044   -3.657192   -1.762038
     77          1           0        0.067393   -2.222101   -2.639215
     78          1           0       -0.188769   -3.934133   -2.695543
     79          1           0       -1.048261    5.148619   -1.338794
     80          1           0       -0.443431    3.719041   -0.280829
     81          1           0       -0.847667    5.205457    0.358536
     82          1           0       -2.146585    6.968545   -0.500578
     83          1           0       -3.221714    8.241768   -1.282586
     84          1           0       -2.496979    6.981224   -2.245370
     85          1           0       -9.113592    4.177526   -0.533421
     86          1           0      -10.166824    2.172753    1.257995
     87          1           0       -9.254530    3.929654    2.439610
     88          1           0       -9.447461    5.417775    1.448344
     89          1           0       -7.799586    4.728019    1.877576
     90          1           0      -10.893289    3.092865   -0.916100
     91          1           0      -11.191746    1.325372   -0.563622
     92          1           0      -10.195030    2.829290   -2.854875
     93          1           0      -10.472070    1.113879   -2.699470
     94          1           0       -8.821957    1.879642   -2.210947
     95          1           0       -9.915088   -3.034093    0.040901
     96          1           0       -9.823383   -3.139313    1.799364
     97          1           0       -9.023853   -4.352392    0.782148
     98          1           0       -4.314938   -4.493626   -0.513839
     99          1           0       -1.587348   -6.864535    1.931372
    100          1           0       -0.749335   -5.378478    1.413834
    101          1           0       -0.898545   -6.709952    0.303546
    102          1           0        3.260493   -3.670209   -0.244115
    103          1           0        2.896711   -2.107152    0.596057
    104          1           0        4.028340   -0.931846   -1.204856
    105          1           0        5.544690   -4.385357   -2.618797
    106          1           0        5.066716   -4.708742   -0.917491
    107          1           0        6.719533   -4.132719   -1.342779
    108          1           0        5.648681   -0.841660   -2.915714
    109          1           0        6.339177   -2.364323   -3.356442
    110          1           0        7.481788   -1.421033   -0.764214
    111          1           0        7.390785   -0.094614   -1.938563
    112          1           0        8.409732   -2.413733   -3.212462
    113          1           0        9.526222   -1.948615   -1.852986
    114          1           0        8.926828    0.340818   -3.574685
    115          1           0       10.539525   -1.812881   -4.789264
    116          1           0       10.204266   -0.165992   -5.356395
    117          1           0        8.973110   -1.382358   -5.303421
    118          1           0       11.735018   -0.441535   -3.067702
    119          1           0       10.945555   -0.471807   -1.538025
    120          1           0        9.942570    1.836137   -2.080673
    121          1           0       11.057140    1.848920   -3.392168
    122          1           0       12.707400    2.261562   -2.229372
    123          1           0       12.567085    0.795579   -1.365221
    124          1           0       10.595727    2.479708   -0.105411
    125          1           0       12.874832    4.038587    0.717371
    126          1           0       11.390354    4.629777   -0.022709
    127          1           0       12.758671    4.145632   -1.052254
    128          1           0       13.192378    1.853475    1.147845
    129          1           0       12.149796    0.481984    0.772088
    130          1           0       10.312919    2.345692    2.056777
    131          1           0       11.853481    2.946938    2.572811
    132          1           0       12.128857    0.229792    3.106936
    133          1           0       10.394127    0.419301    3.192632
    134          1           0       11.230525    2.627639    4.564389
    135          1           0       13.319153    2.744233    5.283950
    136          1           0       13.712869    1.165143    4.586465
    137          1           0       13.175458    1.246873    6.243463
    138          1           0       11.183286    0.744248    6.712916
    139          1           0       10.122370    0.062622    5.415260
    140          1           0        9.790551    1.632004    6.033779
 ---------------------------------------------------------------------

 SCF Done:  E(RPBE1PBE) =  -3005.36609120     A.U. after   15 cycles

 Excitation energies and oscillator strengths:

 Excited State   1:      Singlet-A      1.8360 eV  675.30 nm  f=0.3492  <S**2>=0.000
     245 -> 248        0.16306
     246 -> 247        0.69267
     246 <- 247       -0.10976
 This state for optimization and/or second-order correction.
 Total Energy, E(TD-HF/TD-DFT) =  -3005.29862009
 Copying the excited state density for this state as the 1-particle RhoCI density.

 Excited State   2:      Singlet-A      2.2377 eV  554.06 nm  f=0.1034  <S**2>=0.000
     245 -> 247        0.64306
     246 -> 248       -0.27025

 Excited State   3:      Singlet-A      2.8088 eV  441.41 nm  f=0.0006  <S**2>=0.000
     244 -> 247        0.68219
     244 -> 250        0.11415

 Excited State   4:      Singlet-A      3.1782 eV  390.11 nm  f=0.0258  <S**2>=0.000
     243 -> 247        0.63443
     246 -> 248        0.26979

 Excited State   5:      Singlet-A      3.2087 eV  386.39 nm  f=0.2427  <S**2>=0.000
     243 -> 247       -0.29603
     245 -> 247        0.20027
     246 -> 248        0.52813
     246 -> 249       -0.25426

 The electronic state is 1-A.
 Alpha  occ. eigenvalues --  -46.91637 -19.26788 -19.25080 -19.20749 -19.19419
 Alpha  occ. eigenvalues --  -19.17914 -19.17458 -14.41532 -14.41327 -14.39859
 Alpha  occ. eigenvalues --  -14.38510 -10.36809 -10.34574 -10.32847 -10.29951
 Alpha  occ. eigenvalues --  -10.29905 -10.28896 -10.28724 -10.28247 -10.28237
 Alpha  occ. eigenvalues --  -10.28173 -10.27970 -10.27962 -10.27442 -10.27096
 Alpha  occ. eigenvalues --  -10.26572 -10.26220 -10.25760 -10.25678 -10.25499
 Alpha  occ. eigenvalues --  -10.25330 -10.25325 -10.25262 -10.25111 -10.24975
 Alpha  occ. eigenvalues --  -10.24903 -10.24783 -10.24756 -10.24635 -10.24572
 Alpha  occ. eigenvalues --  -10.24004 -10.23948 -10.23851 -10.23814 -10.23693
 Alpha  occ. eigenvalues --  -10.23658 -10.23647 -10.23574 -10.23441 -10.23436
 Alpha  occ. eigenvalues --  -10.23262 -10.23222 -10.23010 -10.22689 -10.22598
 Alpha  occ. eigenvalues --  -10.22553 -10.22534 -10.22512 -10.22372 -10.22338
 Alpha  occ. eigenvalues --  -10.22140 -10.22123 -10.21717 -10.21678 -10.21486
 Alpha  occ. eigenvalues --  -10.21444  -3.13787  -1.86651  -1.86130  -1.86043
 Alpha  occ. eigenvalues --   -1.12790  -1.11271  -1.05376  -1.05067  -1.03789
 Alpha  occ. eigenvalues --   -1.01904  -0.99694  -0.98600  -0.97371  -0.96016
 Alpha  occ. eigenvalues --   -0.86601  -0.85345  -0.84569  -0.83824  -0.82952
 Alpha  occ. eigenvalues --   -0.82517  -0.82189  -0.82072  -0.81533  -0.81290
 Alpha  occ. eigenvalues --   -0.80311  -0.80040  -0.79121  -0.77892  -0.77364
 Alpha  occ. eigenvalues --   -0.76938  -0.76001  -0.75513  -0.75117  -0.74426
 Alpha  occ. eigenvalues --   -0.74183  -0.72776  -0.72515  -0.71298  -0.70721
 Alpha  occ. eigenvalues --   -0.70131  -0.69328  -0.69297  -0.68877  -0.68482
 Alpha  occ. eigenvalues --   -0.67979  -0.66877  -0.66053  -0.65030  -0.63203
 Alpha  occ. eigenvalues --   -0.62755  -0.62477  -0.62050  -0.61467  -0.60088
 Alpha  occ. eigenvalues --   -0.59346  -0.59194  -0.58795  -0.58599  -0.58345
 Alpha  occ. eigenvalues --   -0.57940  -0.57764  -0.57182  -0.56428  -0.54959
 Alpha  occ. eigenvalues --   -0.54508  -0.53984  -0.53419  -0.52668  -0.51916
 Alpha  occ. eigenvalues --   -0.51658  -0.51574  -0.51137  -0.50409  -0.50146
 Alpha  occ. eigenvalues --   -0.49684  -0.49568  -0.49145  -0.48946  -0.48824
 Alpha  occ. eigenvalues --   -0.48538  -0.48419  -0.48200  -0.47388  -0.47305
 Alpha  occ. eigenvalues --   -0.47078  -0.46964  -0.46785  -0.46506  -0.46409
 Alpha  occ. eigenvalues --   -0.46065  -0.46008  -0.45656  -0.45384  -0.45191
 Alpha  occ. eigenvalues --   -0.44952  -0.44732  -0.44678  -0.44536  -0.44174
 Alpha  occ. eigenvalues --   -0.44167  -0.44008  -0.43966  -0.43484  -0.43296
 Alpha  occ. eigenvalues --   -0.43117  -0.43001  -0.42896  -0.42776  -0.42500
 Alpha  occ. eigenvalues --   -0.42231  -0.42019  -0.41677  -0.41294  -0.41133
 Alpha  occ. eigenvalues --   -0.41025  -0.40911  -0.40582  -0.40537  -0.40305
 Alpha  occ. eigenvalues --   -0.40236  -0.39942  -0.39921  -0.39852  -0.39626
 Alpha  occ. eigenvalues --   -0.39496  -0.39291  -0.39227  -0.39121  -0.38819
 Alpha  occ. eigenvalues --   -0.38617  -0.38427  -0.38241  -0.38165  -0.38087
 Alpha  occ. eigenvalues --   -0.37786  -0.37471  -0.37246  -0.36954  -0.36849
 Alpha  occ. eigenvalues --   -0.36695  -0.36484  -0.36341  -0.36222  -0.35833
 Alpha  occ. eigenvalues --   -0.35515  -0.35470  -0.35407  -0.35369  -0.35080
 Alpha  occ. eigenvalues --   -0.34998  -0.34436  -0.34354  -0.33982  -0.33922
 Alpha  occ. eigenvalues --   -0.33595  -0.33131  -0.32967  -0.32915  -0.32843
 Alpha  occ. eigenvalues --   -0.32451  -0.32296  -0.31803  -0.31478  -0.31299
 Alpha  occ. eigenvalues --   -0.31160  -0.30618  -0.29736  -0.29349  -0.29213
 Alpha  occ. eigenvalues --   -0.28673  -0.28330  -0.27306  -0.26716  -0.26303
 Alpha  occ. eigenvalues --   -0.26133  -0.25984  -0.25212  -0.24105  -0.20519
 Alpha  occ. eigenvalues --   -0.18240
 Alpha virt. eigenvalues --   -0.10696  -0.05074  -0.03480  -0.01217  -0.00504
 Alpha virt. eigenvalues --    0.00206   0.00809   0.01318   0.02073   0.03040
 Alpha virt. eigenvalues --    0.03694   0.04679   0.04911   0.05552   0.05709

 Mulliken charges:
               1
     1  Mg   0.990398
     2  C    0.031195
     3  C   -0.110878
     4  C   -0.059596
     5  C   -0.062060
     6  N   -0.404141
     7  C    0.025302
     8  C   -0.128261
     9  C   -0.126116
    10  C    0.099114
    11  C    0.017020
    12  C    0.023789
    13  C    0.014990
    14  C    0.193295
    15  O   -0.274262
    16  O   -0.351437
    17  N   -0.452291
    18  C    0.139472
    19  C   -0.185828
    20  C   -0.073962
    21  C    0.127112
    22  C    0.058800
    23  C    0.051727
    24  O   -0.232728
    25  C   -0.023310
    26  N   -0.411744
    27  C    0.052409
    28  C   -0.087035
    29  C   -0.131992
    30  C    0.083450
    31  C    0.041380
    32  C   -0.066396
    33  C   -0.053793
    34  N   -0.455527
    35  C    0.143679
    36  C   -0.191061
    37  C   -0.019096
    38  C    0.125803
    39  C    0.061560
    40  C    0.097715
    41  O   -0.191434
    42  C   -0.159187
    43  C    0.272640
    44  O   -0.256070
    45  O   -0.342573
    46  C    0.126768
    47  C    0.274714
    48  C   -0.158638
    49  C   -0.203336
    50  C    0.002885
    51  C   -0.019150
    52  C   -0.024076
    53  C    0.042869
    54  C   -0.196495
    55  C   -0.043011
    56  C   -0.040847
    57  C   -0.068318
    58  C    0.025919
    59  C   -0.201852
    60  C   -0.013431
    61  C   -0.026868
    62  C   -0.096057
    63  C    0.015760
    64  C   -0.267432
    65  C   -0.007246
    66  C   -0.025619
    67  H    0.015014
    68  H    0.028764
    69  H    0.012004
    70  H    0.081760
    71  H    0.044217
    72  H    0.056878
    73  H    0.055045
    74  H    0.052710
    75  H    0.030195
    76  H    0.057897
    77  H    0.054204
    78  H    0.072825
    79  H    0.053694
    80  H    0.042280
    81  H    0.052044
    82  H    0.048523
    83  H    0.064021
    84  H    0.067304
    85  H    0.044225
    86  H    0.038189
    87  H    0.040381
    88  H    0.054719
    89  H    0.050235
    90  H    0.034100
    91  H    0.042579
    92  H    0.039204
    93  H    0.049162
    94  H    0.066530
    95  H    0.042638
    96  H    0.059397
    97  H    0.059176
    98  H    0.081495
    99  H    0.055900
   100  H    0.071015
   101  H    0.056294
   102  H    0.040260
   103  H    0.060243
   104  H    0.016877
   105  H    0.055352
   106  H    0.053651
   107  H    0.050636
   108  H    0.035292
   109  H    0.035379
   110  H    0.041887
   111  H    0.034061
   112  H    0.020279
   113  H    0.027292
   114  H    0.034528
   115  H    0.028632
   116  H    0.034255
   117  H    0.026423
   118  H    0.033956
   119  H    0.031482
   120  H    0.028176
   121  H    0.017206
   122  H    0.017850
   123  H    0.017042
   124  H    0.035485
   125  H    0.034608
   126  H    0.037672
   127  H    0.035226
   128  H    0.030673
   129  H    0.041683
   130  H    0.031948
   131  H    0.032651
   132  H    0.025208
   133  H    0.030871
   134  H    0.042425
   135  H    0.040320
   136  H    0.030642
   137  H    0.038923
   138  H    0.032862
   139  H    0.033396
   140  H    0.033423
 Sum of Mulliken charges =  -0.00000

 Dipole moment (field-independent basis, Debye):
    X=              5.7962    Y=              3.7761    Z=             -4.0621  Tot=              8.0222
 Quadrupole moment (field-independent basis, Debye-Ang):
   XX=           -373.3127   YY=           -427.5790   ZZ=           -409.4753
   XY=            -23.9307   XZ=              3.9090   YZ=             22.8927

 Normal termination of Gaussian 16 at Fri Apr 29 16:31:32 2022.
