 Gaussian 16, Revision A.03,
 Gaussian 16:  ES64L-G16RevA.03 25-Dec-2016

 --------------------------------
 #p wB97XD/Def2SVP td=(nstates=5)
 --------------------------------

 ---------------------------------------------------
 step_351_chromophore_9 TDDFT with wB97XD functional
 ---------------------------------------------------
 Symbolic Z-matrix:
 Charge =  0 Multiplicity = 1

                         Standard orientation:
 ---------------------------------------------------------------------
 Center     Atomic      Atomic             Coordinates (Angstroms)
 Number     Number       Type             X           Y           Z
 ---------------------------------------------------------------------
      1         12           0       -5.253175    0.813232    0.134573
      2          6           0       -4.367486   -2.540549    0.491254
      3          6           0       -1.989070    1.647078    0.162971
      4          6           0       -6.243249    4.023688   -0.044239
      5          6           0       -8.714590   -0.160073    0.614677
      6          7           0       -3.396754   -0.340390    0.160472
      7          6           0       -3.270432   -1.730038    0.230019
      8          6           0       -1.806299   -2.183112   -0.052147
      9          6           0       -1.084951   -0.799812    0.147077
     10          6           0       -2.168874    0.229269    0.095373
     11          6           0       -0.031397   -0.713912    1.268298
     12          6           0       -1.682601   -2.851945   -1.506420
     13          6           0       -0.249019   -3.071098   -2.032376
     14          6           0        0.795086   -3.275858   -0.999043
     15          8           0        0.803650   -4.156384   -0.160798
     16          8           0        1.848734   -2.476608   -1.264043
     17          7           0       -4.214657    2.568033   -0.018645
     18          6           0       -2.933556    2.737622    0.085649
     19          6           0       -2.608810    4.193216   -0.283290
     20          6           0       -3.828058    4.841743   -0.495681
     21          6           0       -4.827500    3.782266   -0.152223
     22          6           0       -1.149155    4.533193   -0.445065
     23          6           0       -4.062520    6.256625   -1.016243
     24          8           0       -5.164423    6.734451   -1.226310
     25          6           0       -2.897486    7.202128   -1.255376
     26          7           0       -7.198868    1.764581    0.185837
     27          6           0       -7.337267    3.172627    0.050702
     28          6           0       -8.741877    3.667882    0.355558
     29          6           0       -9.538827    2.270088    0.370848
     30          6           0       -8.446079    1.213284    0.345562
     31          6           0       -8.842741    4.528888    1.628420
     32          6           0      -10.470034    2.090922   -0.846068
     33          6           0       -9.907250    1.947489   -2.282773
     34          7           0       -6.283404   -0.956488    0.500568
     35          6           0       -7.655111   -1.170862    0.576360
     36          6           0       -7.915949   -2.595812    0.736020
     37          6           0       -6.624693   -3.156151    0.758111
     38          6           0       -5.689878   -2.123474    0.603203
     39          6           0       -9.264150   -3.292610    0.876073
     40          6           0       -5.844062   -4.314098    0.941167
     41          8           0       -6.169561   -5.409567    1.268825
     42          6           0       -4.360481   -4.037812    0.475757
     43          6           0       -3.365081   -4.743402    1.337413
     44          8           0       -3.129346   -4.346643    2.457668
     45          8           0       -2.684778   -5.623511    0.627935
     46          6           0       -1.419050   -6.178979    1.100219
     47          6           0        3.006579   -2.617663   -0.360378
     48          6           0        4.160449   -2.005344   -1.064708
     49          6           0        5.283734   -2.537877   -1.605987
     50          6           0        5.656795   -4.074905   -1.580064
     51          6           0        6.173058   -1.704056   -2.504577
     52          6           0        7.466506   -1.176810   -1.825905
     53          6           0        8.744503   -1.623970   -2.539989
     54          6           0        9.475980   -0.561829   -3.306469
     55          6           0        9.825968   -0.988812   -4.749450
     56          6           0       10.828748   -0.110917   -2.559884
     57          6           0       10.874401    1.385575   -2.422474
     58          6           0       12.046558    1.738464   -1.537191
     59          6           0       11.677058    2.407327   -0.217364
     60          6           0       12.209743    3.920560   -0.137661
     61          6           0       12.165400    1.560289    0.928149
     62          6           0       11.348991    2.048547    2.215280
     63          6           0       11.338422    0.951908    3.308470
     64          6           0       11.577728    1.605995    4.721496
     65          6           0       13.035714    1.691796    5.257815
     66          6           0       10.612530    0.953620    5.807905
     67          1           0       -0.976173    1.931633    0.453675
     68          1           0       -6.505699    5.081709   -0.109550
     69          1           0       -9.767622   -0.354874    0.831327
     70          1           0       -1.487490   -2.931629    0.674336
     71          1           0       -0.529689   -0.563194   -0.760335
     72          1           0        0.371534   -1.720004    1.384240
     73          1           0       -0.636989   -0.495378    2.148471
     74          1           0        0.751704    0.019493    1.075446
     75          1           0       -2.089234   -2.040128   -2.110147
     76          1           0       -2.371044   -3.657192   -1.762038
     77          1           0        0.067393   -2.222101   -2.639215
     78          1           0       -0.188769   -3.934133   -2.695543
     79          1           0       -1.048261    5.148619   -1.338794
     80          1           0       -0.443431    3.719041   -0.280829
     81          1           0       -0.847667    5.205457    0.358536
     82          1           0       -2.146585    6.968545   -0.500578
     83          1           0       -3.221714    8.241768   -1.282586
     84          1           0       -2.496979    6.981224   -2.245370
     85          1           0       -9.113592    4.177526   -0.533421
     86          1           0      -10.166824    2.172753    1.257995
     87          1           0       -9.254530    3.929654    2.439610
     88          1           0       -9.447461    5.417775    1.448344
     89          1           0       -7.799586    4.728019    1.877576
     90          1           0      -10.893289    3.092865   -0.916100
     91          1           0      -11.191746    1.325372   -0.563622
     92          1           0      -10.195030    2.829290   -2.854875
     93          1           0      -10.472070    1.113879   -2.699470
     94          1           0       -8.821957    1.879642   -2.210947
     95          1           0       -9.915088   -3.034093    0.040901
     96          1           0       -9.823383   -3.139313    1.799364
     97          1           0       -9.023853   -4.352392    0.782148
     98          1           0       -4.314938   -4.493626   -0.513839
     99          1           0       -1.587348   -6.864535    1.931372
    100          1           0       -0.749335   -5.378478    1.413834
    101          1           0       -0.898545   -6.709952    0.303546
    102          1           0        3.260493   -3.670209   -0.244115
    103          1           0        2.896711   -2.107152    0.596057
    104          1           0        4.028340   -0.931846   -1.204856
    105          1           0        5.544690   -4.385357   -2.618797
    106          1           0        5.066716   -4.708742   -0.917491
    107          1           0        6.719533   -4.132719   -1.342779
    108          1           0        5.648681   -0.841660   -2.915714
    109          1           0        6.339177   -2.364323   -3.356442
    110          1           0        7.481788   -1.421033   -0.764214
    111          1           0        7.390785   -0.094614   -1.938563
    112          1           0        8.409732   -2.413733   -3.212462
    113          1           0        9.526222   -1.948615   -1.852986
    114          1           0        8.926828    0.340818   -3.574685
    115          1           0       10.539525   -1.812881   -4.789264
    116          1           0       10.204266   -0.165992   -5.356395
    117          1           0        8.973110   -1.382358   -5.303421
    118          1           0       11.735018   -0.441535   -3.067702
    119          1           0       10.945555   -0.471807   -1.538025
    120          1           0        9.942570    1.836137   -2.080673
    121          1           0       11.057140    1.848920   -3.392168
    122          1           0       12.707400    2.261562   -2.229372
    123          1           0       12.567085    0.795579   -1.365221
    124          1           0       10.595727    2.479708   -0.105411
    125          1           0       12.874832    4.038587    0.717371
    126          1           0       11.390354    4.629777   -0.022709
    127          1           0       12.758671    4.145632   -1.052254
    128          1           0       13.192378    1.853475    1.147845
    129          1           0       12.149796    0.481984    0.772088
    130          1           0       10.312919    2.345692    2.056777
    131          1           0       11.853481    2.946938    2.572811
    132          1           0       12.128857    0.229792    3.106936
    133          1           0       10.394127    0.419301    3.192632
    134          1           0       11.230525    2.627639    4.564389
    135          1           0       13.319153    2.744233    5.283950
    136          1           0       13.712869    1.165143    4.586465
    137          1           0       13.175458    1.246873    6.243463
    138          1           0       11.183286    0.744248    6.712916
    139          1           0       10.122370    0.062622    5.415260
    140          1           0        9.790551    1.632004    6.033779
 ---------------------------------------------------------------------

 SCF Done:  E(RwB97XD) =  -3007.87761798     A.U. after   19 cycles

 Excitation energies and oscillator strengths:

 Excited State   1:      Singlet-A      1.6230 eV  763.93 nm  f=0.3582  <S**2>=0.000
     245 -> 248       -0.17761
     246 -> 247        0.68378
     245 <- 248       -0.11394
 This state for optimization and/or second-order correction.
 Total Energy, E(TD-HF/TD-DFT) =  -3007.81797470
 Copying the excited state density for this state as the 1-particle RhoCI density.

 Excited State   2:      Singlet-A      2.1703 eV  571.27 nm  f=0.1043  <S**2>=0.000
     245 -> 247        0.63142
     246 -> 248        0.30128

 Excited State   3:      Singlet-A      3.4526 eV  359.11 nm  f=0.1966  <S**2>=0.000
     243 -> 247       -0.14451
     244 -> 247        0.49168
     244 -> 249        0.14595
     244 -> 250        0.21215
     245 -> 247       -0.16393
     246 -> 248        0.36034

 Excited State   4:      Singlet-A      3.5340 eV  350.83 nm  f=0.5591  <S**2>=0.000
     244 -> 247       -0.35205
     244 -> 250       -0.14561
     245 -> 247       -0.24540
     246 -> 248        0.51223

 Excited State   5:      Singlet-A      3.5948 eV  344.90 nm  f=0.0296  <S**2>=0.000
     242 -> 247       -0.14841
     243 -> 247        0.65482

 The electronic state is 1-A.
 Alpha  occ. eigenvalues --  -46.94587 -19.31340 -19.29596 -19.25414 -19.24395
 Alpha  occ. eigenvalues --  -19.22560 -19.22094 -14.46626 -14.46412 -14.44976
 Alpha  occ. eigenvalues --  -14.43351 -10.43590 -10.41347 -10.39835 -10.36633
 Alpha  occ. eigenvalues --  -10.36432 -10.35380 -10.35339 -10.34786 -10.34718
 Alpha  occ. eigenvalues --  -10.34451 -10.34382 -10.34081 -10.33855 -10.33492
 Alpha  occ. eigenvalues --  -10.32798 -10.32550 -10.32311 -10.32053 -10.31815
 Alpha  occ. eigenvalues --  -10.31710 -10.31581 -10.31474 -10.31386 -10.31379
 Alpha  occ. eigenvalues --  -10.31295 -10.31131 -10.31063 -10.31018 -10.30897
 Alpha  occ. eigenvalues --  -10.30416 -10.30403 -10.30372 -10.30291 -10.30169
 Alpha  occ. eigenvalues --  -10.29958 -10.29932 -10.29928 -10.29810 -10.29671
 Alpha  occ. eigenvalues --  -10.29637 -10.29543 -10.29314 -10.29050 -10.28962
 Alpha  occ. eigenvalues --  -10.28930 -10.28913 -10.28877 -10.28766 -10.28732
 Alpha  occ. eigenvalues --  -10.28570 -10.28565 -10.28136 -10.28055 -10.27835
 Alpha  occ. eigenvalues --  -10.27555  -3.20585  -1.94200  -1.93677  -1.93590
 Alpha  occ. eigenvalues --   -1.20153  -1.18594  -1.13011  -1.12358  -1.11117
 Alpha  occ. eigenvalues --   -1.09197  -1.07231  -1.05827  -1.04747  -1.03436
 Alpha  occ. eigenvalues --   -0.94093  -0.93016  -0.92231  -0.91466  -0.90618
 Alpha  occ. eigenvalues --   -0.90146  -0.89949  -0.89827  -0.89185  -0.88917
 Alpha  occ. eigenvalues --   -0.87941  -0.87541  -0.86784  -0.85550  -0.84931
 Alpha  occ. eigenvalues --   -0.84565  -0.83859  -0.83190  -0.82749  -0.82064
 Alpha  occ. eigenvalues --   -0.81856  -0.80557  -0.80105  -0.78866  -0.78413
 Alpha  occ. eigenvalues --   -0.77696  -0.77034  -0.76875  -0.76570  -0.76136
 Alpha  occ. eigenvalues --   -0.75597  -0.74377  -0.73648  -0.72604  -0.70804
 Alpha  occ. eigenvalues --   -0.70358  -0.70134  -0.69567  -0.69110  -0.67574
 Alpha  occ. eigenvalues --   -0.67029  -0.66620  -0.66464  -0.66027  -0.65807
 Alpha  occ. eigenvalues --   -0.65411  -0.65404  -0.64820  -0.63765  -0.62501
 Alpha  occ. eigenvalues --   -0.62070  -0.61443  -0.60805  -0.60118  -0.59377
 Alpha  occ. eigenvalues --   -0.59105  -0.58960  -0.58569  -0.57805  -0.57549
 Alpha  occ. eigenvalues --   -0.57166  -0.56969  -0.56558  -0.56392  -0.56234
 Alpha  occ. eigenvalues --   -0.55939  -0.55796  -0.55540  -0.54848  -0.54764
 Alpha  occ. eigenvalues --   -0.54584  -0.54346  -0.54297  -0.53823  -0.53781
 Alpha  occ. eigenvalues --   -0.53385  -0.53315  -0.53021  -0.52724  -0.52572
 Alpha  occ. eigenvalues --   -0.52456  -0.52141  -0.52022  -0.51907  -0.51616
 Alpha  occ. eigenvalues --   -0.51453  -0.51350  -0.51294  -0.50777  -0.50582
 Alpha  occ. eigenvalues --   -0.50375  -0.50266  -0.50192  -0.49984  -0.49743
 Alpha  occ. eigenvalues --   -0.49501  -0.49389  -0.48973  -0.48550  -0.48310
 Alpha  occ. eigenvalues --   -0.48260  -0.48120  -0.47797  -0.47713  -0.47483
 Alpha  occ. eigenvalues --   -0.47370  -0.47159  -0.47102  -0.47079  -0.46846
 Alpha  occ. eigenvalues --   -0.46677  -0.46457  -0.46398  -0.46181  -0.45993
 Alpha  occ. eigenvalues --   -0.45760  -0.45554  -0.45406  -0.45240  -0.45172
 Alpha  occ. eigenvalues --   -0.44859  -0.44597  -0.44542  -0.44077  -0.43865
 Alpha  occ. eigenvalues --   -0.43803  -0.43533  -0.43373  -0.43265  -0.42797
 Alpha  occ. eigenvalues --   -0.42612  -0.42540  -0.42490  -0.42441  -0.42166
 Alpha  occ. eigenvalues --   -0.42088  -0.41462  -0.41384  -0.40992  -0.40959
 Alpha  occ. eigenvalues --   -0.40682  -0.40178  -0.40019  -0.39965  -0.39726
 Alpha  occ. eigenvalues --   -0.39403  -0.39331  -0.38863  -0.38351  -0.38347
 Alpha  occ. eigenvalues --   -0.38244  -0.37632  -0.36832  -0.36245  -0.35965
 Alpha  occ. eigenvalues --   -0.35498  -0.35097  -0.34262  -0.33573  -0.33249
 Alpha  occ. eigenvalues --   -0.33013  -0.32755  -0.31607  -0.31018  -0.25537
 Alpha  occ. eigenvalues --   -0.22413
 Alpha virt. eigenvalues --   -0.06584   0.00414   0.02673   0.05357   0.06237
 Alpha virt. eigenvalues --    0.06756   0.07048   0.07696   0.08890   0.09428
 Alpha virt. eigenvalues --    0.10373   0.11470   0.11720   0.12349   0.12497

 Mulliken charges:
               1
     1  Mg   0.978599
     2  C    0.028979
     3  C   -0.121658
     4  C   -0.076970
     5  C   -0.084512
     6  N   -0.371908
     7  C   -0.014405
     8  C   -0.088239
     9  C   -0.100276
    10  C    0.082664
    11  C    0.031271
    12  C    0.032558
    13  C    0.030603
    14  C    0.174463
    15  O   -0.267926
    16  O   -0.348065
    17  N   -0.419242
    18  C    0.128067
    19  C   -0.172207
    20  C   -0.069326
    21  C    0.125785
    22  C    0.070328
    23  C    0.046752
    24  O   -0.226561
    25  C   -0.010258
    26  N   -0.381786
    27  C    0.044524
    28  C   -0.065684
    29  C   -0.105149
    30  C    0.067766
    31  C    0.053547
    32  C   -0.051645
    33  C   -0.035443
    34  N   -0.413913
    35  C    0.137070
    36  C   -0.195512
    37  C   -0.011469
    38  C    0.107839
    39  C    0.072772
    40  C    0.075306
    41  O   -0.183517
    42  C   -0.109648
    43  C    0.241771
    44  O   -0.249198
    45  O   -0.338103
    46  C    0.141361
    47  C    0.293263
    48  C   -0.169709
    49  C   -0.190447
    50  C    0.017883
    51  C    0.000243
    52  C   -0.011162
    53  C    0.061906
    54  C   -0.168428
    55  C   -0.030078
    56  C   -0.019390
    57  C   -0.053982
    58  C    0.042720
    59  C   -0.171104
    60  C   -0.001766
    61  C   -0.008384
    62  C   -0.077064
    63  C    0.026635
    64  C   -0.237789
    65  C    0.004800
    66  C   -0.010172
    67  H    0.005575
    68  H    0.023437
    69  H    0.008745
    70  H    0.059850
    71  H    0.030206
    72  H    0.048255
    73  H    0.049234
    74  H    0.048596
    75  H    0.019590
    76  H    0.051297
    77  H    0.048914
    78  H    0.068568
    79  H    0.048048
    80  H    0.040529
    81  H    0.047876
    82  H    0.040878
    83  H    0.063761
    84  H    0.063414
    85  H    0.033427
    86  H    0.029445
    87  H    0.035185
    88  H    0.050826
    89  H    0.041769
    90  H    0.022595
    91  H    0.035833
    92  H    0.033895
    93  H    0.044385
    94  H    0.054941
    95  H    0.036409
    96  H    0.054540
    97  H    0.054667
    98  H    0.073109
    99  H    0.052870
   100  H    0.065421
   101  H    0.053949
   102  H    0.031770
   103  H    0.055933
   104  H    0.013037
   105  H    0.048997
   106  H    0.049493
   107  H    0.043529
   108  H    0.029456
   109  H    0.025030
   110  H    0.035052
   111  H    0.024750
   112  H    0.008179
   113  H    0.019254
   114  H    0.021301
   115  H    0.021690
   116  H    0.028418
   117  H    0.019692
   118  H    0.025219
   119  H    0.016068
   120  H    0.017784
   121  H    0.008426
   122  H    0.010495
   123  H    0.004470
   124  H    0.019405
   125  H    0.027484
   126  H    0.032772
   127  H    0.029193
   128  H    0.019706
   129  H    0.032381
   130  H    0.023873
   131  H    0.019833
   132  H    0.015013
   133  H    0.023498
   134  H    0.029058
   135  H    0.034972
   136  H    0.024006
   137  H    0.032943
   138  H    0.026119
   139  H    0.026624
   140  H    0.027658
 Sum of Mulliken charges =  -0.00000

 Dipole moment (field-independent basis, Debye):
    X=              6.0910    Y=              4.2640    Z=             -4.1577  Tot=              8.5187
 Quadrupole moment (field-independent basis, Debye-Ang):
   XX=           -376.7328   YY=           -425.4738   ZZ=           -409.0770
   XY=            -25.6036   XZ=              4.4494   YZ=             22.8636

 Normal termination of Gaussian 16 at Fri Apr 29 17:02:12 2022.
