 Gaussian 16, Revision A.03,
 Gaussian 16:  ES64L-G16RevA.03 25-Dec-2016

 --------------------
 #p ZINDO=(nstates=5)
 --------------------

 ----------------------------
 step_351_chromophore_9 ZINDO
 ----------------------------
 Symbolic Z-matrix:
 Charge =  0 Multiplicity = 1

                         Standard orientation:
 ---------------------------------------------------------------------
 Center     Atomic      Atomic             Coordinates (Angstroms)
 Number     Number       Type             X           Y           Z
 ---------------------------------------------------------------------
      1         12           0       -5.253175    0.813232    0.134573
      2          6           0       -4.367486   -2.540549    0.491254
      3          6           0       -1.989070    1.647078    0.162971
      4          6           0       -6.243249    4.023688   -0.044239
      5          6           0       -8.714590   -0.160073    0.614677
      6          7           0       -3.396754   -0.340390    0.160472
      7          6           0       -3.270432   -1.730038    0.230019
      8          6           0       -1.806299   -2.183112   -0.052147
      9          6           0       -1.084951   -0.799812    0.147077
     10          6           0       -2.168874    0.229269    0.095373
     11          6           0       -0.031397   -0.713912    1.268298
     12          6           0       -1.682601   -2.851945   -1.506420
     13          6           0       -0.249019   -3.071098   -2.032376
     14          6           0        0.795086   -3.275858   -0.999043
     15          8           0        0.803650   -4.156384   -0.160798
     16          8           0        1.848734   -2.476608   -1.264043
     17          7           0       -4.214657    2.568033   -0.018645
     18          6           0       -2.933556    2.737622    0.085649
     19          6           0       -2.608810    4.193216   -0.283290
     20          6           0       -3.828058    4.841743   -0.495681
     21          6           0       -4.827500    3.782266   -0.152223
     22          6           0       -1.149155    4.533193   -0.445065
     23          6           0       -4.062520    6.256625   -1.016243
     24          8           0       -5.164423    6.734451   -1.226310
     25          6           0       -2.897486    7.202128   -1.255376
     26          7           0       -7.198868    1.764581    0.185837
     27          6           0       -7.337267    3.172627    0.050702
     28          6           0       -8.741877    3.667882    0.355558
     29          6           0       -9.538827    2.270088    0.370848
     30          6           0       -8.446079    1.213284    0.345562
     31          6           0       -8.842741    4.528888    1.628420
     32          6           0      -10.470034    2.090922   -0.846068
     33          6           0       -9.907250    1.947489   -2.282773
     34          7           0       -6.283404   -0.956488    0.500568
     35          6           0       -7.655111   -1.170862    0.576360
     36          6           0       -7.915949   -2.595812    0.736020
     37          6           0       -6.624693   -3.156151    0.758111
     38          6           0       -5.689878   -2.123474    0.603203
     39          6           0       -9.264150   -3.292610    0.876073
     40          6           0       -5.844062   -4.314098    0.941167
     41          8           0       -6.169561   -5.409567    1.268825
     42          6           0       -4.360481   -4.037812    0.475757
     43          6           0       -3.365081   -4.743402    1.337413
     44          8           0       -3.129346   -4.346643    2.457668
     45          8           0       -2.684778   -5.623511    0.627935
     46          6           0       -1.419050   -6.178979    1.100219
     47          6           0        3.006579   -2.617663   -0.360378
     48          6           0        4.160449   -2.005344   -1.064708
     49          6           0        5.283734   -2.537877   -1.605987
     50          6           0        5.656795   -4.074905   -1.580064
     51          6           0        6.173058   -1.704056   -2.504577
     52          6           0        7.466506   -1.176810   -1.825905
     53          6           0        8.744503   -1.623970   -2.539989
     54          6           0        9.475980   -0.561829   -3.306469
     55          6           0        9.825968   -0.988812   -4.749450
     56          6           0       10.828748   -0.110917   -2.559884
     57          6           0       10.874401    1.385575   -2.422474
     58          6           0       12.046558    1.738464   -1.537191
     59          6           0       11.677058    2.407327   -0.217364
     60          6           0       12.209743    3.920560   -0.137661
     61          6           0       12.165400    1.560289    0.928149
     62          6           0       11.348991    2.048547    2.215280
     63          6           0       11.338422    0.951908    3.308470
     64          6           0       11.577728    1.605995    4.721496
     65          6           0       13.035714    1.691796    5.257815
     66          6           0       10.612530    0.953620    5.807905
     67          1           0       -0.976173    1.931633    0.453675
     68          1           0       -6.505699    5.081709   -0.109550
     69          1           0       -9.767622   -0.354874    0.831327
     70          1           0       -1.487490   -2.931629    0.674336
     71          1           0       -0.529689   -0.563194   -0.760335
     72          1           0        0.371534   -1.720004    1.384240
     73          1           0       -0.636989   -0.495378    2.148471
     74          1           0        0.751704    0.019493    1.075446
     75          1           0       -2.089234   -2.040128   -2.110147
     76          1           0       -2.371044   -3.657192   -1.762038
     77          1           0        0.067393   -2.222101   -2.639215
     78          1           0       -0.188769   -3.934133   -2.695543
     79          1           0       -1.048261    5.148619   -1.338794
     80          1           0       -0.443431    3.719041   -0.280829
     81          1           0       -0.847667    5.205457    0.358536
     82          1           0       -2.146585    6.968545   -0.500578
     83          1           0       -3.221714    8.241768   -1.282586
     84          1           0       -2.496979    6.981224   -2.245370
     85          1           0       -9.113592    4.177526   -0.533421
     86          1           0      -10.166824    2.172753    1.257995
     87          1           0       -9.254530    3.929654    2.439610
     88          1           0       -9.447461    5.417775    1.448344
     89          1           0       -7.799586    4.728019    1.877576
     90          1           0      -10.893289    3.092865   -0.916100
     91          1           0      -11.191746    1.325372   -0.563622
     92          1           0      -10.195030    2.829290   -2.854875
     93          1           0      -10.472070    1.113879   -2.699470
     94          1           0       -8.821957    1.879642   -2.210947
     95          1           0       -9.915088   -3.034093    0.040901
     96          1           0       -9.823383   -3.139313    1.799364
     97          1           0       -9.023853   -4.352392    0.782148
     98          1           0       -4.314938   -4.493626   -0.513839
     99          1           0       -1.587348   -6.864535    1.931372
    100          1           0       -0.749335   -5.378478    1.413834
    101          1           0       -0.898545   -6.709952    0.303546
    102          1           0        3.260493   -3.670209   -0.244115
    103          1           0        2.896711   -2.107152    0.596057
    104          1           0        4.028340   -0.931846   -1.204856
    105          1           0        5.544690   -4.385357   -2.618797
    106          1           0        5.066716   -4.708742   -0.917491
    107          1           0        6.719533   -4.132719   -1.342779
    108          1           0        5.648681   -0.841660   -2.915714
    109          1           0        6.339177   -2.364323   -3.356442
    110          1           0        7.481788   -1.421033   -0.764214
    111          1           0        7.390785   -0.094614   -1.938563
    112          1           0        8.409732   -2.413733   -3.212462
    113          1           0        9.526222   -1.948615   -1.852986
    114          1           0        8.926828    0.340818   -3.574685
    115          1           0       10.539525   -1.812881   -4.789264
    116          1           0       10.204266   -0.165992   -5.356395
    117          1           0        8.973110   -1.382358   -5.303421
    118          1           0       11.735018   -0.441535   -3.067702
    119          1           0       10.945555   -0.471807   -1.538025
    120          1           0        9.942570    1.836137   -2.080673
    121          1           0       11.057140    1.848920   -3.392168
    122          1           0       12.707400    2.261562   -2.229372
    123          1           0       12.567085    0.795579   -1.365221
    124          1           0       10.595727    2.479708   -0.105411
    125          1           0       12.874832    4.038587    0.717371
    126          1           0       11.390354    4.629777   -0.022709
    127          1           0       12.758671    4.145632   -1.052254
    128          1           0       13.192378    1.853475    1.147845
    129          1           0       12.149796    0.481984    0.772088
    130          1           0       10.312919    2.345692    2.056777
    131          1           0       11.853481    2.946938    2.572811
    132          1           0       12.128857    0.229792    3.106936
    133          1           0       10.394127    0.419301    3.192632
    134          1           0       11.230525    2.627639    4.564389
    135          1           0       13.319153    2.744233    5.283950
    136          1           0       13.712869    1.165143    4.586465
    137          1           0       13.175458    1.246873    6.243463
    138          1           0       11.183286    0.744248    6.712916
    139          1           0       10.122370    0.062622    5.415260
    140          1           0        9.790551    1.632004    6.033779
 ---------------------------------------------------------------------

 SCF Done:  E(RZINDO/S) =  -474.429127707     A.U. after   19 cycles

 Excitation energies and oscillator strengths:

 Excited State   1:      Singlet-A      1.2410 eV  999.10 nm  f=0.5821  <S**2>=0.000
     175 ->178         0.17409
     176 ->177         0.66641
 This state for optimization and/or second-order correction.
 Total Energy, E(CIS/TDA) =  -474.383523347
 Copying the excited state density for this state as the 1-particle RhoCI density.

 Excited State   2:      Singlet-A      1.9065 eV  650.31 nm  f=0.0324  <S**2>=0.000
     175 ->177         0.53581
     176 ->178        -0.42730

 Excited State   3:      Singlet-A      2.9509 eV  420.15 nm  f=0.3218  <S**2>=0.000
     170 ->181        -0.10257
     171 ->177         0.21240
     171 ->179         0.13178
     171 ->181         0.24974
     171 ->186         0.11693
     171 ->188        -0.10079
     175 ->177         0.22093
     176 ->178         0.34111
     176 ->179         0.27186

 Excited State   4:      Singlet-A      2.9893 eV  414.75 nm  f=0.0927  <S**2>=0.000
     168 ->177        -0.16526
     168 ->178         0.15959
     168 ->179         0.32365
     168 ->181        -0.13127
     168 ->186         0.15864
     171 ->177         0.13230
     171 ->179         0.10867
     171 ->181         0.19962
     171 ->186         0.10029
     175 ->177        -0.12105
     176 ->178        -0.19538
     176 ->179        -0.20245

 Excited State   5:      Singlet-A      2.9909 eV  414.54 nm  f=0.1642  <S**2>=0.000
     168 ->177        -0.17340
     168 ->178         0.15512
     168 ->179         0.33067
     168 ->181        -0.11575
     168 ->186         0.16377
     171 ->177        -0.14186
     171 ->181        -0.18708
     175 ->177         0.15612
     176 ->178         0.24064
     176 ->179         0.20841

 The electronic state is 1-A.
 Alpha  occ. eigenvalues --   -1.84784  -1.82031  -1.78927  -1.75496  -1.73026
 Alpha  occ. eigenvalues --   -1.70839  -1.67003  -1.60982  -1.60337  -1.59978
 Alpha  occ. eigenvalues --   -1.55241  -1.51743  -1.48570  -1.48407  -1.45687
 Alpha  occ. eigenvalues --   -1.44118  -1.42748  -1.40542  -1.39576  -1.38737
 Alpha  occ. eigenvalues --   -1.36541  -1.33343  -1.32054  -1.31460  -1.27939
 Alpha  occ. eigenvalues --   -1.27420  -1.23541  -1.22754  -1.21346  -1.19290
 Alpha  occ. eigenvalues --   -1.17520  -1.15936  -1.15297  -1.15125  -1.13159
 Alpha  occ. eigenvalues --   -1.12465  -1.11543  -1.10321  -1.04594  -1.03888
 Alpha  occ. eigenvalues --   -1.03085  -1.00832  -0.99722  -0.97715  -0.96692
 Alpha  occ. eigenvalues --   -0.95578  -0.94523  -0.94255  -0.93105  -0.92362
 Alpha  occ. eigenvalues --   -0.92033  -0.89128  -0.88876  -0.87853  -0.86771
 Alpha  occ. eigenvalues --   -0.84889  -0.83990  -0.83901  -0.81396  -0.80054
 Alpha  occ. eigenvalues --   -0.79546  -0.79044  -0.77525  -0.76225  -0.76155
 Alpha  occ. eigenvalues --   -0.75277  -0.74697  -0.74475  -0.73266  -0.73103
 Alpha  occ. eigenvalues --   -0.72962  -0.72723  -0.72308  -0.71694  -0.71389
 Alpha  occ. eigenvalues --   -0.70759  -0.69985  -0.69115  -0.67969  -0.67768
 Alpha  occ. eigenvalues --   -0.67403  -0.66894  -0.66492  -0.65953  -0.65653
 Alpha  occ. eigenvalues --   -0.65495  -0.64529  -0.64414  -0.63319  -0.63151
 Alpha  occ. eigenvalues --   -0.62640  -0.62547  -0.62121  -0.61748  -0.61428
 Alpha  occ. eigenvalues --   -0.61278  -0.61060  -0.60984  -0.60766  -0.59980
 Alpha  occ. eigenvalues --   -0.59878  -0.59050  -0.58984  -0.58573  -0.58522
 Alpha  occ. eigenvalues --   -0.58253  -0.58029  -0.57532  -0.56669  -0.56339
 Alpha  occ. eigenvalues --   -0.56051  -0.55607  -0.55509  -0.55207  -0.54802
 Alpha  occ. eigenvalues --   -0.54625  -0.54078  -0.53987  -0.53469  -0.53146
 Alpha  occ. eigenvalues --   -0.52627  -0.52464  -0.52061  -0.51674  -0.51504
 Alpha  occ. eigenvalues --   -0.51328  -0.51031  -0.50553  -0.50431  -0.50349
 Alpha  occ. eigenvalues --   -0.50151  -0.49954  -0.49266  -0.49100  -0.48966
 Alpha  occ. eigenvalues --   -0.48839  -0.48532  -0.48429  -0.47905  -0.47705
 Alpha  occ. eigenvalues --   -0.47299  -0.46988  -0.46709  -0.46510  -0.46253
 Alpha  occ. eigenvalues --   -0.46125  -0.46084  -0.45668  -0.45524  -0.45437
 Alpha  occ. eigenvalues --   -0.45068  -0.44852  -0.44472  -0.44391  -0.44214
 Alpha  occ. eigenvalues --   -0.43869  -0.43819  -0.42642  -0.42114  -0.41562
 Alpha  occ. eigenvalues --   -0.41416  -0.41200  -0.40342  -0.39076  -0.37967
 Alpha  occ. eigenvalues --   -0.37007  -0.36469  -0.36121  -0.34617  -0.33279
 Alpha  occ. eigenvalues --   -0.33080  -0.32834  -0.32185  -0.31759  -0.26404
 Alpha  occ. eigenvalues --   -0.21263
 Alpha virt. eigenvalues --   -0.08115  -0.01783  -0.00421   0.01587   0.02117
 Alpha virt. eigenvalues --    0.02994   0.03363   0.03643   0.04202   0.04901
 Alpha virt. eigenvalues --    0.05901   0.06691   0.07023   0.07708   0.08115

 Mulliken charges:
               1
     1  Mg   0.421259
     2  C   -0.020548
     3  C   -0.110531
     4  C   -0.071409
     5  C   -0.085099
     6  N   -0.288008
     7  C    0.086990
     8  C    0.006151
     9  C    0.014898
    10  C    0.162578
    11  C   -0.047902
    12  C   -0.025928
    13  C    0.010295
    14  C    0.478372
    15  O   -0.530976
    16  O   -0.264321
    17  N   -0.279556
    18  C    0.124798
    19  C    0.019063
    20  C   -0.038572
    21  C    0.135496
    22  C   -0.044393
    23  C    0.331958
    24  O   -0.513347
    25  C   -0.028620
    26  N   -0.292507
    27  C    0.140395
    28  C    0.002081
    29  C   -0.001768
    30  C    0.109965
    31  C   -0.048334
    32  C   -0.038101
    33  C   -0.057629
    34  N   -0.305368
    35  C    0.071581
    36  C    0.005600
    37  C   -0.057947
    38  C    0.117890
    39  C   -0.038861
    40  C    0.336072
    41  O   -0.526024
    42  C    0.044905
    43  C    0.499222
    44  O   -0.530659
    45  O   -0.261676
    46  C    0.076664
    47  C    0.107111
    48  C   -0.092355
    49  C   -0.011705
    50  C   -0.047642
    51  C   -0.019202
    52  C   -0.029120
    53  C   -0.029379
    54  C   -0.016024
    55  C   -0.059171
    56  C   -0.036505
    57  C   -0.035315
    58  C   -0.039757
    59  C   -0.007244
    60  C   -0.063721
    61  C   -0.034286
    62  C   -0.048933
    63  C   -0.037073
    64  C   -0.019396
    65  C   -0.053091
    66  C   -0.065652
    67  H    0.019569
    68  H    0.038325
    69  H    0.040552
    70  H    0.048902
    71  H    0.016286
    72  H    0.030796
    73  H    0.027892
    74  H    0.027643
    75  H    0.009191
    76  H    0.041462
    77  H    0.028841
    78  H    0.046744
    79  H    0.034293
    80  H    0.039987
    81  H    0.023691
    82  H    0.030219
    83  H    0.046218
    84  H    0.039397
    85  H    0.034473
    86  H    0.027328
    87  H    0.023692
    88  H    0.029158
    89  H    0.029650
    90  H    0.010135
    91  H    0.025027
    92  H    0.017733
    93  H    0.025103
    94  H    0.036301
    95  H    0.022276
    96  H    0.036411
    97  H    0.027135
    98  H    0.049111
    99  H    0.044442
   100  H    0.048746
   101  H    0.034956
   102  H    0.050324
   103  H    0.051094
   104  H    0.016581
   105  H    0.028237
   106  H    0.032820
   107  H    0.025387
   108  H    0.017990
   109  H    0.024276
   110  H    0.025375
   111  H    0.017161
   112  H    0.021657
   113  H    0.023761
   114  H    0.024401
   115  H    0.012836
   116  H    0.014871
   117  H    0.008676
   118  H    0.023231
   119  H    0.019953
   120  H    0.019089
   121  H    0.008337
   122  H    0.016022
   123  H    0.013936
   124  H    0.021459
   125  H    0.021223
   126  H    0.019529
   127  H    0.021009
   128  H    0.017070
   129  H    0.028420
   130  H    0.022172
   131  H    0.018637
   132  H    0.016775
   133  H    0.021053
   134  H    0.017264
   135  H    0.018945
   136  H    0.016863
   137  H    0.024236
   138  H    0.022829
   139  H    0.019575
   140  H    0.015547
 Sum of Mulliken charges =  -0.00000

 Dipole moment (field-independent basis, Debye):
    X=              7.8444    Y=              7.1069    Z=             -6.0074  Tot=             12.1709
 N-N= 4.311604175214D+03 E-N= 0.000000000000D+00  KE=-9.297852501636D+03
 Leave Link  601 at Fri Apr 29 17:19:09 2022, MaxMem=  6710886400 cpu:               0.8 elap:               0.0
 (Enter /sw/apps/gaussian-16.0/g16/l9999.exe)
 1\1\GINC-BP1-COMPUTE139\SP\RZINDO CIS\STO-3G\C55H74Mg1N4O6\OF15641\29-
 Apr-2022\0\\#p ZINDO=(nstates=5)\\step_351_chromophore_9 ZINDO\\0,1\Mg
 ,0,35.006,1.776,29.461\C,0,32.722,2.995,31.797\C,0,37.442,1.984,31.779
 \C,0,37.139,0.75,27.07\C,0,32.418,2.069,26.936\N,0,35.032,2.279,31.588
 \C,0,33.947,2.681,32.371\C,0,34.308,2.68,33.887\C,0,35.875,2.636,33.76
 \C,0,36.152,2.225,32.349\C,0,36.66,3.82,34.357\C,0,33.616,1.443,34.641
 \C,0,34.123,1.149,36.068\C,0,34.648,2.314,36.821\O,0,34.031,3.328,37.0

 Normal termination of Gaussian 16 at Fri Apr 29 17:19:09 2022.
