 Gaussian 16, Revision A.03,
 Gaussian 16:  ES64L-G16RevA.03 25-Dec-2016

 ------------------------------
 #p blyp/Def2SVP td=(nstates=5)
 ------------------------------

 -------------------------------------------------
 step_801_chromophore_5 TDDFT with blyp functional
 -------------------------------------------------
 Symbolic Z-matrix:
 Charge =  0 Multiplicity = 1

                         Standard orientation:
 ---------------------------------------------------------------------
 Center     Atomic      Atomic             Coordinates (Angstroms)
 Number     Number       Type             X           Y           Z
 ---------------------------------------------------------------------
      1         12           0        5.297134    0.596974   -0.312773
      2          6           0        4.341792   -2.757674   -0.148203
      3          6           0        2.865596    1.201711   -2.612875
      4          6           0        5.717979    3.924892    0.031629
      5          6           0        7.327933   -0.016803    2.381488
      6          7           0        3.863449   -0.641602   -1.320910
      7          6           0        3.577685   -1.985467   -0.973790
      8          6           0        2.265568   -2.491074   -1.655596
      9          6           0        1.991685   -1.278261   -2.728092
     10          6           0        2.962219   -0.160542   -2.247892
     11          6           0        2.374595   -1.738044   -4.131207
     12          6           0        1.032661   -2.802342   -0.722451
     13          6           0        0.028550   -3.887622   -1.020556
     14          6           0       -1.359532   -3.386294   -1.503709
     15          8           0       -1.603130   -2.829034   -2.611784
     16          8           0       -2.300109   -3.622912   -0.540097
     17          7           0        4.477221    2.336963   -1.238942
     18          6           0        3.540337    2.377867   -2.253488
     19          6           0        3.325917    3.728353   -2.652077
     20          6           0        4.243262    4.539467   -1.946105
     21          6           0        4.926505    3.588524   -1.071100
     22          6           0        2.258847    4.215356   -3.710355
     23          6           0        4.370576    5.968663   -2.141563
     24          8           0        3.625660    6.547564   -2.883358
     25          6           0        5.435639    6.730759   -1.396907
     26          7           0        6.263674    1.788815    1.092203
     27          6           0        6.342213    3.175551    0.989799
     28          6           0        7.333040    3.787299    1.964174
     29          6           0        7.788667    2.484513    2.797716
     30          6           0        7.118876    1.355231    2.086768
     31          6           0        8.527283    4.716710    1.391341
     32          6           0        7.485797    2.569437    4.314457
     33          6           0        8.594404    2.648459    5.360436
     34          7           0        5.861347   -1.030734    0.826914
     35          6           0        6.696295   -1.160346    1.897744
     36          6           0        6.774546   -2.498734    2.399112
     37          6           0        5.823742   -3.141276    1.577322
     38          6           0        5.355504   -2.218399    0.599637
     39          6           0        7.591131   -3.053817    3.538255
     40          6           0        5.183924   -4.475020    1.364055
     41          8           0        5.380374   -5.545774    1.837784
     42          6           0        4.079648   -4.188252    0.323061
     43          6           0        4.226171   -5.145243   -0.743675
     44          8           0        3.551974   -6.148893   -0.813594
     45          8           0        5.277686   -4.741991   -1.547055
     46          6           0        5.526500   -5.514967   -2.733381
     47          6           0       -3.669783   -3.204704   -0.947084
     48          6           0       -3.781729   -1.731424   -0.959618
     49          6           0       -3.909686   -0.844807    0.013124
     50          6           0       -3.481288   -1.213591    1.411356
     51          6           0       -4.065449    0.607171   -0.301134
     52          6           0       -5.493532    0.860816   -0.689114
     53          6           0       -6.000874    1.828459    0.362214
     54          6           0       -7.413131    2.274904   -0.147499
     55          6           0       -7.448190    3.842061   -0.436998
     56          6           0       -8.438234    1.944193    0.909017
     57          6           0       -9.380083    0.792418    0.487429
     58          6           0       -9.967379    0.100013    1.774847
     59          6           0      -11.400587   -0.477046    1.743424
     60          6           0      -11.474341   -1.873887    2.406117
     61          6           0      -12.568806    0.548158    1.981514
     62          6           0      -13.208663    1.029434    0.700863
     63          6           0      -14.385464    0.114785    0.309222
     64          6           0      -15.724449    0.865902    0.220911
     65          6           0      -16.512493    0.837126    1.578453
     66          6           0      -16.634694    0.335375   -0.902365
     67          1           0        2.118546    1.498110   -3.352361
     68          1           0        5.850258    4.971735    0.313175
     69          1           0        8.021217   -0.259712    3.189952
     70          1           0        2.515594   -3.434397   -2.140513
     71          1           0        0.957703   -0.943498   -2.810609
     72          1           0        2.242255   -2.818243   -4.198398
     73          1           0        3.419840   -1.593933   -4.404446
     74          1           0        1.631270   -1.350149   -4.826518
     75          1           0        0.543195   -1.838013   -0.583953
     76          1           0        1.477576   -2.947735    0.261925
     77          1           0       -0.126981   -4.416514   -0.080534
     78          1           0        0.538332   -4.543238   -1.726024
     79          1           0        1.550864    4.976895   -3.382460
     80          1           0        1.582743    3.393280   -3.944108
     81          1           0        2.842091    4.513200   -4.582669
     82          1           0        6.386633    6.235732   -1.595007
     83          1           0        5.260589    6.938125   -0.341022
     84          1           0        5.592371    7.748398   -1.753303
     85          1           0        6.687382    4.470710    2.515053
     86          1           0        8.870921    2.353561    2.768453
     87          1           0        9.399778    4.077135    1.257512
     88          1           0        8.707254    5.512586    2.115222
     89          1           0        8.239510    5.005620    0.380555
     90          1           0        6.997585    1.673750    4.698300
     91          1           0        6.821818    3.413570    4.498945
     92          1           0        9.520505    3.001065    4.905310
     93          1           0        8.841372    1.617944    5.611279
     94          1           0        8.230140    3.187635    6.235296
     95          1           0        7.505778   -4.138583    3.590111
     96          1           0        7.335839   -2.556300    4.473211
     97          1           0        8.653286   -2.823258    3.449945
     98          1           0        3.071043   -4.323288    0.712386
     99          1           0        5.569208   -4.815177   -3.568621
    100          1           0        4.693860   -6.178167   -2.972013
    101          1           0        6.419156   -6.135540   -2.654526
    102          1           0       -4.435685   -3.595730   -0.277798
    103          1           0       -3.954302   -3.515294   -1.952069
    104          1           0       -3.951321   -1.403098   -1.985020
    105          1           0       -4.319634   -1.211682    2.107546
    106          1           0       -2.734291   -0.499734    1.757900
    107          1           0       -2.982321   -2.182571    1.421566
    108          1           0       -3.348178    0.779509   -1.103971
    109          1           0       -3.653300    1.240902    0.483569
    110          1           0       -6.095019   -0.046414   -0.651597
    111          1           0       -5.429920    1.349523   -1.661908
    112          1           0       -5.371902    2.689275    0.588293
    113          1           0       -6.125154    1.257724    1.283221
    114          1           0       -7.654144    1.888747   -1.137359
    115          1           0       -8.483245    4.165625   -0.541705
    116          1           0       -7.072572    3.991472   -1.449988
    117          1           0       -6.996934    4.324559    0.429443
    118          1           0       -9.009547    2.838475    1.158436
    119          1           0       -8.182805    1.696295    1.938477
    120          1           0       -8.717802    0.099028   -0.030737
    121          1           0      -10.210020    1.131297   -0.133031
    122          1           0      -10.126572    0.955650    2.431935
    123          1           0       -9.358772   -0.662843    2.259531
    124          1           0      -11.439321   -0.735516    0.685236
    125          1           0      -11.138996   -2.656466    1.724634
    126          1           0      -12.449631   -2.053403    2.858731
    127          1           0      -10.638246   -1.987800    3.096014
    128          1           0      -12.394010    1.374328    2.671563
    129          1           0      -13.341969    0.060196    2.575337
    130          1           0      -12.449865    1.204199   -0.061991
    131          1           0      -13.554782    2.044802    0.892017
    132          1           0      -14.481755   -0.721870    1.000633
    133          1           0      -14.210557   -0.223277   -0.712419
    134          1           0      -15.594047    1.925764    0.005224
    135          1           0      -17.111250    1.716158    1.818059
    136          1           0      -15.762233    0.567741    2.321094
    137          1           0      -17.201711    0.002916    1.446095
    138          1           0      -16.372761    0.836276   -1.833948
    139          1           0      -17.671852    0.532133   -0.634233
    140          1           0      -16.527421   -0.747489   -0.974982
 ---------------------------------------------------------------------

 SCF Done:  E(RB-LYP) =  -3007.34366019     A.U. after   20 cycles

 Excitation energies and oscillator strengths:

 Excited State   1:      Singlet-A      1.8120 eV  684.25 nm  f=0.2741  <S**2>=0.000
     244 -> 247       -0.17187
     245 -> 248       -0.17029
     246 -> 247        0.67223
     246 <- 247       -0.14786
 This state for optimization and/or second-order correction.
 Total Energy, E(TD-HF/TD-DFT) =  -3007.27707169
 Copying the excited state density for this state as the 1-particle RhoCI density.

 Excited State   2:      Singlet-A      1.8456 eV  671.77 nm  f=0.0249  <S**2>=0.000
     244 -> 247        0.68210
     246 -> 247        0.17014

 Excited State   3:      Singlet-A      2.0469 eV  605.72 nm  f=0.0856  <S**2>=0.000
     243 -> 247        0.15940
     245 -> 247        0.63216
     246 -> 248        0.23333

 Excited State   4:      Singlet-A      2.1681 eV  571.84 nm  f=0.0057  <S**2>=0.000
     243 -> 247        0.68607
     245 -> 247       -0.13719

 Excited State   5:      Singlet-A      2.1969 eV  564.35 nm  f=0.0005  <S**2>=0.000
     242 -> 247        0.70599

 The electronic state is 1-A.
 Alpha  occ. eigenvalues --  -46.26703 -18.83086 -18.82488 -18.77069 -18.77018
 Alpha  occ. eigenvalues --  -18.76727 -18.74891 -14.03752 -14.03200 -14.00795
 Alpha  occ. eigenvalues --  -14.00789 -10.04768 -10.03724 -10.00237  -9.99033
 Alpha  occ. eigenvalues --   -9.97734  -9.97717  -9.97157  -9.96939  -9.96588
 Alpha  occ. eigenvalues --   -9.96183  -9.95584  -9.95281  -9.95133  -9.94776
 Alpha  occ. eigenvalues --   -9.94546  -9.94542  -9.94142  -9.94089  -9.93884
 Alpha  occ. eigenvalues --   -9.93770  -9.93599  -9.93530  -9.93521  -9.93311
 Alpha  occ. eigenvalues --   -9.93174  -9.92965  -9.92814  -9.92743  -9.92568
 Alpha  occ. eigenvalues --   -9.92235  -9.92001  -9.91996  -9.91953  -9.91736
 Alpha  occ. eigenvalues --   -9.91718  -9.91602  -9.91533  -9.91500  -9.91491
 Alpha  occ. eigenvalues --   -9.91397  -9.91354  -9.91343  -9.91266  -9.91024
 Alpha  occ. eigenvalues --   -9.90987  -9.90925  -9.90880  -9.90880  -9.90845
 Alpha  occ. eigenvalues --   -9.90840  -9.90789  -9.90651  -9.90535  -9.90311
 Alpha  occ. eigenvalues --   -9.90200  -2.91449  -1.71877  -1.71288  -1.71197
 Alpha  occ. eigenvalues --   -0.98212  -0.97546  -0.93966  -0.92479  -0.91036
 Alpha  occ. eigenvalues --   -0.88438  -0.87673  -0.86162  -0.84998  -0.84041
 Alpha  occ. eigenvalues --   -0.76544  -0.74554  -0.73044  -0.72559  -0.72521
 Alpha  occ. eigenvalues --   -0.72103  -0.71903  -0.70825  -0.70790  -0.70320
 Alpha  occ. eigenvalues --   -0.69465  -0.69329  -0.68588  -0.68143  -0.67559
 Alpha  occ. eigenvalues --   -0.66761  -0.66113  -0.65476  -0.65254  -0.64859
 Alpha  occ. eigenvalues --   -0.64142  -0.62843  -0.62302  -0.61681  -0.61284
 Alpha  occ. eigenvalues --   -0.60423  -0.60151  -0.59635  -0.59474  -0.58675
 Alpha  occ. eigenvalues --   -0.58376  -0.57482  -0.57257  -0.55260  -0.54513
 Alpha  occ. eigenvalues --   -0.54300  -0.53606  -0.53246  -0.52430  -0.51794
 Alpha  occ. eigenvalues --   -0.51320  -0.51243  -0.51067  -0.50733  -0.50372
 Alpha  occ. eigenvalues --   -0.50068  -0.49961  -0.48902  -0.48537  -0.46720
 Alpha  occ. eigenvalues --   -0.46230  -0.45907  -0.45511  -0.45147  -0.44895
 Alpha  occ. eigenvalues --   -0.44493  -0.43856  -0.43390  -0.43076  -0.42556
 Alpha  occ. eigenvalues --   -0.42102  -0.41832  -0.41617  -0.41469  -0.41023
 Alpha  occ. eigenvalues --   -0.40928  -0.40776  -0.40504  -0.40366  -0.39976
 Alpha  occ. eigenvalues --   -0.39789  -0.39657  -0.39625  -0.39374  -0.39162
 Alpha  occ. eigenvalues --   -0.38997  -0.38767  -0.38703  -0.38303  -0.38246
 Alpha  occ. eigenvalues --   -0.37942  -0.37900  -0.37719  -0.37450  -0.37384
 Alpha  occ. eigenvalues --   -0.37156  -0.37111  -0.36848  -0.36561  -0.36390
 Alpha  occ. eigenvalues --   -0.36214  -0.36104  -0.36043  -0.35945  -0.35705
 Alpha  occ. eigenvalues --   -0.35475  -0.35289  -0.35050  -0.34916  -0.34689
 Alpha  occ. eigenvalues --   -0.34509  -0.34346  -0.34131  -0.34006  -0.33926
 Alpha  occ. eigenvalues --   -0.33656  -0.33589  -0.33499  -0.33332  -0.33202
 Alpha  occ. eigenvalues --   -0.33154  -0.33126  -0.32894  -0.32749  -0.32452
 Alpha  occ. eigenvalues --   -0.32215  -0.32081  -0.31957  -0.31766  -0.31718
 Alpha  occ. eigenvalues --   -0.31588  -0.31314  -0.30944  -0.30846  -0.30652
 Alpha  occ. eigenvalues --   -0.30613  -0.30429  -0.30156  -0.30005  -0.29798
 Alpha  occ. eigenvalues --   -0.29697  -0.29669  -0.29347  -0.29302  -0.28807
 Alpha  occ. eigenvalues --   -0.28709  -0.28476  -0.28297  -0.27967  -0.27883
 Alpha  occ. eigenvalues --   -0.27750  -0.27228  -0.26852  -0.26665  -0.26644
 Alpha  occ. eigenvalues --   -0.26490  -0.25655  -0.25621  -0.25608  -0.25104
 Alpha  occ. eigenvalues --   -0.24879  -0.24416  -0.24203  -0.23942  -0.23694
 Alpha  occ. eigenvalues --   -0.23573  -0.22598  -0.22007  -0.21875  -0.21160
 Alpha  occ. eigenvalues --   -0.20609  -0.19735  -0.19504  -0.18362  -0.17498
 Alpha  occ. eigenvalues --   -0.15922
 Alpha virt. eigenvalues --   -0.11665  -0.06816  -0.05982  -0.04649  -0.03898
 Alpha virt. eigenvalues --   -0.02692  -0.02656  -0.02241  -0.01450   0.00509
 Alpha virt. eigenvalues --    0.00858   0.01848   0.02186   0.02762   0.02919

 Mulliken charges:
               1
     1  Mg   0.701044
     2  C    0.004034
     3  C   -0.043999
     4  C   -0.059460
     5  C   -0.093312
     6  N   -0.261202
     7  C   -0.093138
     8  C    0.005048
     9  C   -0.002144
    10  C    0.083547
    11  C    0.129769
    12  C    0.087177
    13  C    0.198219
    14  C    0.101478
    15  O   -0.235552
    16  O   -0.256547
    17  N   -0.263176
    18  C    0.092054
    19  C   -0.137078
    20  C    0.061340
    21  C    0.147971
    22  C    0.187404
    23  C   -0.117352
    24  O   -0.138715
    25  C    0.122010
    26  N   -0.263524
    27  C   -0.020556
    28  C    0.013415
    29  C    0.071736
    30  C    0.066433
    31  C    0.127733
    32  C    0.059672
    33  C    0.064720
    34  N   -0.218333
    35  C    0.088245
    36  C   -0.153028
    37  C   -0.003635
    38  C    0.110505
    39  C    0.180296
    40  C   -0.023930
    41  O   -0.076042
    42  C    0.107975
    43  C    0.071591
    44  O   -0.146443
    45  O   -0.282144
    46  C    0.208528
    47  C    0.368713
    48  C   -0.160972
    49  C   -0.160795
    50  C    0.133803
    51  C    0.176556
    52  C    0.085452
    53  C    0.101793
    54  C   -0.062565
    55  C    0.088530
    56  C    0.098351
    57  C    0.075871
    58  C    0.087133
    59  C   -0.071831
    60  C    0.112345
    61  C    0.109089
    62  C    0.084925
    63  C    0.140660
    64  C   -0.136250
    65  C    0.103709
    66  C    0.112167
    67  H   -0.074903
    68  H   -0.078754
    69  H   -0.079787
    70  H   -0.022965
    71  H   -0.012654
    72  H   -0.022675
    73  H   -0.005247
    74  H   -0.003255
    75  H   -0.024168
    76  H   -0.031148
    77  H   -0.010049
    78  H    0.003958
    79  H    0.009603
    80  H   -0.034423
    81  H    0.014606
    82  H    0.001645
    83  H    0.022584
    84  H   -0.028754
    85  H   -0.014067
    86  H   -0.029106
    87  H   -0.011128
    88  H    0.010030
    89  H   -0.003054
    90  H   -0.020774
    91  H   -0.026249
    92  H   -0.016910
    93  H   -0.014960
    94  H    0.004370
    95  H    0.014100
    96  H   -0.004206
    97  H   -0.011523
    98  H   -0.000859
    99  H    0.010644
   100  H    0.009010
   101  H    0.022531
   102  H   -0.005376
   103  H   -0.009973
   104  H   -0.038247
   105  H   -0.007463
   106  H   -0.007409
   107  H   -0.007812
   108  H   -0.025418
   109  H   -0.044690
   110  H   -0.006790
   111  H   -0.024054
   112  H   -0.028483
   113  H   -0.035197
   114  H   -0.027716
   115  H   -0.023749
   116  H   -0.018768
   117  H   -0.003472
   118  H   -0.057495
   119  H   -0.035774
   120  H   -0.031019
   121  H   -0.020850
   122  H   -0.040442
   123  H   -0.037998
   124  H   -0.040488
   125  H   -0.024411
   126  H   -0.006824
   127  H   -0.035383
   128  H   -0.045022
   129  H   -0.056285
   130  H   -0.032948
   131  H   -0.043404
   132  H   -0.023045
   133  H   -0.041761
   134  H   -0.036959
   135  H   -0.006274
   136  H   -0.020637
   137  H   -0.026925
   138  H   -0.011467
   139  H   -0.024437
   140  H   -0.016322
 Sum of Mulliken charges =  -0.00000

 Dipole moment (field-independent basis, Debye):
    X=              1.8972    Y=              2.6752    Z=              1.8215  Tot=              3.7515
 Quadrupole moment (field-independent basis, Debye-Ang):
   XX=           -359.2812   YY=           -449.1539   ZZ=           -401.7569
   XY=             18.9695   XZ=              7.3367   YZ=             29.3410

 Normal termination of Gaussian 16 at Thu May  5 11:37:37 2022.
