 Gaussian 16, Revision A.03,
 Gaussian 16:  ES64L-G16RevA.03 25-Dec-2016

 -----------------------------------
 #p cam-b3lyp/Def2SVP td=(nstates=5)
 -----------------------------------

 ------------------------------------------------------
 step_801_chromophore_5 TDDFT with cam-b3lyp functional
 ------------------------------------------------------
 Symbolic Z-matrix:
 Charge =  0 Multiplicity = 1

                         Standard orientation:
 ---------------------------------------------------------------------
 Center     Atomic      Atomic             Coordinates (Angstroms)
 Number     Number       Type             X           Y           Z
 ---------------------------------------------------------------------
      1         12           0        5.297134    0.596974   -0.312773
      2          6           0        4.341792   -2.757674   -0.148203
      3          6           0        2.865596    1.201711   -2.612875
      4          6           0        5.717979    3.924892    0.031629
      5          6           0        7.327933   -0.016803    2.381488
      6          7           0        3.863449   -0.641602   -1.320910
      7          6           0        3.577685   -1.985467   -0.973790
      8          6           0        2.265568   -2.491074   -1.655596
      9          6           0        1.991685   -1.278261   -2.728092
     10          6           0        2.962219   -0.160542   -2.247892
     11          6           0        2.374595   -1.738044   -4.131207
     12          6           0        1.032661   -2.802342   -0.722451
     13          6           0        0.028550   -3.887622   -1.020556
     14          6           0       -1.359532   -3.386294   -1.503709
     15          8           0       -1.603130   -2.829034   -2.611784
     16          8           0       -2.300109   -3.622912   -0.540097
     17          7           0        4.477221    2.336963   -1.238942
     18          6           0        3.540337    2.377867   -2.253488
     19          6           0        3.325917    3.728353   -2.652077
     20          6           0        4.243262    4.539467   -1.946105
     21          6           0        4.926505    3.588524   -1.071100
     22          6           0        2.258847    4.215356   -3.710355
     23          6           0        4.370576    5.968663   -2.141563
     24          8           0        3.625660    6.547564   -2.883358
     25          6           0        5.435639    6.730759   -1.396907
     26          7           0        6.263674    1.788815    1.092203
     27          6           0        6.342213    3.175551    0.989799
     28          6           0        7.333040    3.787299    1.964174
     29          6           0        7.788667    2.484513    2.797716
     30          6           0        7.118876    1.355231    2.086768
     31          6           0        8.527283    4.716710    1.391341
     32          6           0        7.485797    2.569437    4.314457
     33          6           0        8.594404    2.648459    5.360436
     34          7           0        5.861347   -1.030734    0.826914
     35          6           0        6.696295   -1.160346    1.897744
     36          6           0        6.774546   -2.498734    2.399112
     37          6           0        5.823742   -3.141276    1.577322
     38          6           0        5.355504   -2.218399    0.599637
     39          6           0        7.591131   -3.053817    3.538255
     40          6           0        5.183924   -4.475020    1.364055
     41          8           0        5.380374   -5.545774    1.837784
     42          6           0        4.079648   -4.188252    0.323061
     43          6           0        4.226171   -5.145243   -0.743675
     44          8           0        3.551974   -6.148893   -0.813594
     45          8           0        5.277686   -4.741991   -1.547055
     46          6           0        5.526500   -5.514967   -2.733381
     47          6           0       -3.669783   -3.204704   -0.947084
     48          6           0       -3.781729   -1.731424   -0.959618
     49          6           0       -3.909686   -0.844807    0.013124
     50          6           0       -3.481288   -1.213591    1.411356
     51          6           0       -4.065449    0.607171   -0.301134
     52          6           0       -5.493532    0.860816   -0.689114
     53          6           0       -6.000874    1.828459    0.362214
     54          6           0       -7.413131    2.274904   -0.147499
     55          6           0       -7.448190    3.842061   -0.436998
     56          6           0       -8.438234    1.944193    0.909017
     57          6           0       -9.380083    0.792418    0.487429
     58          6           0       -9.967379    0.100013    1.774847
     59          6           0      -11.400587   -0.477046    1.743424
     60          6           0      -11.474341   -1.873887    2.406117
     61          6           0      -12.568806    0.548158    1.981514
     62          6           0      -13.208663    1.029434    0.700863
     63          6           0      -14.385464    0.114785    0.309222
     64          6           0      -15.724449    0.865902    0.220911
     65          6           0      -16.512493    0.837126    1.578453
     66          6           0      -16.634694    0.335375   -0.902365
     67          1           0        2.118546    1.498110   -3.352361
     68          1           0        5.850258    4.971735    0.313175
     69          1           0        8.021217   -0.259712    3.189952
     70          1           0        2.515594   -3.434397   -2.140513
     71          1           0        0.957703   -0.943498   -2.810609
     72          1           0        2.242255   -2.818243   -4.198398
     73          1           0        3.419840   -1.593933   -4.404446
     74          1           0        1.631270   -1.350149   -4.826518
     75          1           0        0.543195   -1.838013   -0.583953
     76          1           0        1.477576   -2.947735    0.261925
     77          1           0       -0.126981   -4.416514   -0.080534
     78          1           0        0.538332   -4.543238   -1.726024
     79          1           0        1.550864    4.976895   -3.382460
     80          1           0        1.582743    3.393280   -3.944108
     81          1           0        2.842091    4.513200   -4.582669
     82          1           0        6.386633    6.235732   -1.595007
     83          1           0        5.260589    6.938125   -0.341022
     84          1           0        5.592371    7.748398   -1.753303
     85          1           0        6.687382    4.470710    2.515053
     86          1           0        8.870921    2.353561    2.768453
     87          1           0        9.399778    4.077135    1.257512
     88          1           0        8.707254    5.512586    2.115222
     89          1           0        8.239510    5.005620    0.380555
     90          1           0        6.997585    1.673750    4.698300
     91          1           0        6.821818    3.413570    4.498945
     92          1           0        9.520505    3.001065    4.905310
     93          1           0        8.841372    1.617944    5.611279
     94          1           0        8.230140    3.187635    6.235296
     95          1           0        7.505778   -4.138583    3.590111
     96          1           0        7.335839   -2.556300    4.473211
     97          1           0        8.653286   -2.823258    3.449945
     98          1           0        3.071043   -4.323288    0.712386
     99          1           0        5.569208   -4.815177   -3.568621
    100          1           0        4.693860   -6.178167   -2.972013
    101          1           0        6.419156   -6.135540   -2.654526
    102          1           0       -4.435685   -3.595730   -0.277798
    103          1           0       -3.954302   -3.515294   -1.952069
    104          1           0       -3.951321   -1.403098   -1.985020
    105          1           0       -4.319634   -1.211682    2.107546
    106          1           0       -2.734291   -0.499734    1.757900
    107          1           0       -2.982321   -2.182571    1.421566
    108          1           0       -3.348178    0.779509   -1.103971
    109          1           0       -3.653300    1.240902    0.483569
    110          1           0       -6.095019   -0.046414   -0.651597
    111          1           0       -5.429920    1.349523   -1.661908
    112          1           0       -5.371902    2.689275    0.588293
    113          1           0       -6.125154    1.257724    1.283221
    114          1           0       -7.654144    1.888747   -1.137359
    115          1           0       -8.483245    4.165625   -0.541705
    116          1           0       -7.072572    3.991472   -1.449988
    117          1           0       -6.996934    4.324559    0.429443
    118          1           0       -9.009547    2.838475    1.158436
    119          1           0       -8.182805    1.696295    1.938477
    120          1           0       -8.717802    0.099028   -0.030737
    121          1           0      -10.210020    1.131297   -0.133031
    122          1           0      -10.126572    0.955650    2.431935
    123          1           0       -9.358772   -0.662843    2.259531
    124          1           0      -11.439321   -0.735516    0.685236
    125          1           0      -11.138996   -2.656466    1.724634
    126          1           0      -12.449631   -2.053403    2.858731
    127          1           0      -10.638246   -1.987800    3.096014
    128          1           0      -12.394010    1.374328    2.671563
    129          1           0      -13.341969    0.060196    2.575337
    130          1           0      -12.449865    1.204199   -0.061991
    131          1           0      -13.554782    2.044802    0.892017
    132          1           0      -14.481755   -0.721870    1.000633
    133          1           0      -14.210557   -0.223277   -0.712419
    134          1           0      -15.594047    1.925764    0.005224
    135          1           0      -17.111250    1.716158    1.818059
    136          1           0      -15.762233    0.567741    2.321094
    137          1           0      -17.201711    0.002916    1.446095
    138          1           0      -16.372761    0.836276   -1.833948
    139          1           0      -17.671852    0.532133   -0.634233
    140          1           0      -16.527421   -0.747489   -0.974982
 ---------------------------------------------------------------------

 SCF Done:  E(RCAM-B3LYP) =  -3007.14629715     A.U. after   18 cycles

 Excitation energies and oscillator strengths:

 Excited State   1:      Singlet-A      1.7048 eV  727.27 nm  f=0.3757  <S**2>=0.000
     245 -> 248       -0.17127
     246 -> 247        0.68798
     245 <- 248       -0.10589
 This state for optimization and/or second-order correction.
 Total Energy, E(TD-HF/TD-DFT) =  -3007.08364713
 Copying the excited state density for this state as the 1-particle RhoCI density.

 Excited State   2:      Singlet-A      2.2666 eV  547.01 nm  f=0.1100  <S**2>=0.000
     245 -> 247        0.63723
     246 -> 248        0.29342

 Excited State   3:      Singlet-A      3.4304 eV  361.43 nm  f=0.0121  <S**2>=0.000
     243 -> 247        0.67030
     246 -> 248        0.16744

 Excited State   4:      Singlet-A      3.5859 eV  345.75 nm  f=0.1707  <S**2>=0.000
     241 -> 247       -0.33071
     241 -> 248        0.10232
     241 -> 249       -0.17603
     241 -> 250        0.16807
     242 -> 247        0.39787
     243 -> 247        0.11842
     245 -> 247        0.13858
     246 -> 248       -0.33171

 Excited State   5:      Singlet-A      3.5929 eV  345.08 nm  f=0.2877  <S**2>=0.000
     241 -> 247        0.42283
     241 -> 248       -0.10447
     241 -> 249        0.17976
     241 -> 250       -0.17758
     242 -> 247        0.13808
     245 -> 247        0.17828
     246 -> 248       -0.41694

 The electronic state is 1-A.
 Alpha  occ. eigenvalues --  -46.88213 -19.25986 -19.25495 -19.20307 -19.20004
 Alpha  occ. eigenvalues --  -19.19914 -19.18124 -14.42770 -14.42042 -14.39290
 Alpha  occ. eigenvalues --  -14.39181 -10.40142 -10.39257 -10.35553 -10.34122
 Alpha  occ. eigenvalues --  -10.31851 -10.31696 -10.31681 -10.31343 -10.31086
 Alpha  occ. eigenvalues --  -10.30646 -10.30039 -10.29442 -10.29407 -10.28766
 Alpha  occ. eigenvalues --  -10.28727 -10.28441 -10.28292 -10.28240 -10.28181
 Alpha  occ. eigenvalues --  -10.28142 -10.27865 -10.27862 -10.27462 -10.27298
 Alpha  occ. eigenvalues --  -10.27221 -10.27021 -10.26759 -10.26673 -10.26233
 Alpha  occ. eigenvalues --  -10.26059 -10.25977 -10.25957 -10.25880 -10.25847
 Alpha  occ. eigenvalues --  -10.25604 -10.25513 -10.25378 -10.25197 -10.25193
 Alpha  occ. eigenvalues --  -10.25191 -10.25072 -10.25062 -10.24812 -10.24635
 Alpha  occ. eigenvalues --  -10.24622 -10.24551 -10.24522 -10.24479 -10.24467
 Alpha  occ. eigenvalues --  -10.24465 -10.24449 -10.24256 -10.24114 -10.24013
 Alpha  occ. eigenvalues --  -10.23931  -3.16867  -1.91770  -1.91291  -1.91202
 Alpha  occ. eigenvalues --   -1.16866  -1.15909  -1.12513  -1.10955  -1.09143
 Alpha  occ. eigenvalues --   -1.06206  -1.05351  -1.03842  -1.02574  -1.01608
 Alpha  occ. eigenvalues --   -0.93767  -0.91455  -0.89853  -0.89285  -0.89263
 Alpha  occ. eigenvalues --   -0.88814  -0.88480  -0.87419  -0.87361  -0.86826
 Alpha  occ. eigenvalues --   -0.86125  -0.85703  -0.84880  -0.84366  -0.83743
 Alpha  occ. eigenvalues --   -0.82840  -0.82214  -0.81446  -0.81078  -0.80817
 Alpha  occ. eigenvalues --   -0.79933  -0.78425  -0.77879  -0.77240  -0.76847
 Alpha  occ. eigenvalues --   -0.75761  -0.75471  -0.74958  -0.74772  -0.73862
 Alpha  occ. eigenvalues --   -0.73455  -0.72428  -0.72191  -0.70064  -0.69065
 Alpha  occ. eigenvalues --   -0.68994  -0.68144  -0.67774  -0.66794  -0.65889
 Alpha  occ. eigenvalues --   -0.65484  -0.65428  -0.65128  -0.64654  -0.64372
 Alpha  occ. eigenvalues --   -0.64048  -0.63724  -0.62852  -0.62423  -0.60408
 Alpha  occ. eigenvalues --   -0.59852  -0.59464  -0.58920  -0.58529  -0.58418
 Alpha  occ. eigenvalues --   -0.57848  -0.57473  -0.56735  -0.56294  -0.55779
 Alpha  occ. eigenvalues --   -0.55263  -0.55137  -0.54755  -0.54353  -0.53936
 Alpha  occ. eigenvalues --   -0.53732  -0.53554  -0.53223  -0.52895  -0.52573
 Alpha  occ. eigenvalues --   -0.52510  -0.52411  -0.52269  -0.51833  -0.51802
 Alpha  occ. eigenvalues --   -0.51676  -0.51375  -0.51190  -0.50935  -0.50725
 Alpha  occ. eigenvalues --   -0.50616  -0.50227  -0.50053  -0.49853  -0.49686
 Alpha  occ. eigenvalues --   -0.49583  -0.49329  -0.49294  -0.49124  -0.48895
 Alpha  occ. eigenvalues --   -0.48644  -0.48444  -0.48208  -0.48055  -0.47626
 Alpha  occ. eigenvalues --   -0.47478  -0.47381  -0.47045  -0.46899  -0.46527
 Alpha  occ. eigenvalues --   -0.46408  -0.46234  -0.46005  -0.45948  -0.45880
 Alpha  occ. eigenvalues --   -0.45662  -0.45357  -0.45190  -0.45134  -0.44888
 Alpha  occ. eigenvalues --   -0.44827  -0.44738  -0.44711  -0.44537  -0.44169
 Alpha  occ. eigenvalues --   -0.44075  -0.43663  -0.43540  -0.43194  -0.43096
 Alpha  occ. eigenvalues --   -0.43060  -0.42956  -0.42456  -0.42414  -0.42108
 Alpha  occ. eigenvalues --   -0.41965  -0.41853  -0.41726  -0.41407  -0.41038
 Alpha  occ. eigenvalues --   -0.40990  -0.40861  -0.40489  -0.40413  -0.39765
 Alpha  occ. eigenvalues --   -0.39721  -0.39601  -0.39294  -0.39070  -0.38917
 Alpha  occ. eigenvalues --   -0.38659  -0.38289  -0.37980  -0.37650  -0.37490
 Alpha  occ. eigenvalues --   -0.37401  -0.37211  -0.36356  -0.36298  -0.36068
 Alpha  occ. eigenvalues --   -0.35436  -0.35129  -0.34887  -0.34858  -0.34234
 Alpha  occ. eigenvalues --   -0.34063  -0.33755  -0.33303  -0.31456  -0.31305
 Alpha  occ. eigenvalues --   -0.30801  -0.30535  -0.29959  -0.29437  -0.24346
 Alpha  occ. eigenvalues --   -0.21190
 Alpha virt. eigenvalues --   -0.08769  -0.01596   0.00579   0.02343   0.02471
 Alpha virt. eigenvalues --    0.03943   0.04615   0.05034   0.05773   0.06589
 Alpha virt. eigenvalues --    0.07910   0.08389   0.08832   0.08985   0.09159

 Mulliken charges:
               1
     1  Mg   0.834911
     2  C   -0.023096
     3  C   -0.053021
     4  C   -0.089004
     5  C   -0.098070
     6  N   -0.331456
     7  C   -0.044215
     8  C   -0.038348
     9  C   -0.055155
    10  C    0.096617
    11  C    0.073815
    12  C    0.034226
    13  C    0.125451
    14  C    0.181999
    15  O   -0.279191
    16  O   -0.322129
    17  N   -0.346309
    18  C    0.090794
    19  C   -0.138400
    20  C   -0.015728
    21  C    0.180385
    22  C    0.140480
    23  C   -0.037831
    24  O   -0.179326
    25  C    0.036569
    26  N   -0.338256
    27  C    0.011193
    28  C   -0.041846
    29  C    0.010210
    30  C    0.085070
    31  C    0.073694
    32  C    0.006339
    33  C    0.005803
    34  N   -0.309738
    35  C    0.091837
    36  C   -0.149458
    37  C   -0.082243
    38  C    0.147618
    39  C    0.128110
    40  C    0.078727
    41  O   -0.113979
    42  C    0.020196
    43  C    0.164696
    44  O   -0.184661
    45  O   -0.343570
    46  C    0.171088
    47  C    0.322504
    48  C   -0.177794
    49  C   -0.176868
    50  C    0.071651
    51  C    0.110246
    52  C    0.027262
    53  C    0.052759
    54  C   -0.126854
    55  C    0.035851
    56  C    0.041190
    57  C    0.028969
    58  C    0.035407
    59  C   -0.130457
    60  C    0.056561
    61  C    0.053574
    62  C    0.029199
    63  C    0.078436
    64  C   -0.188850
    65  C    0.046414
    66  C    0.049139
    67  H   -0.039840
    68  H   -0.043603
    69  H   -0.045073
    70  H    0.005645
    71  H    0.023169
    72  H    0.001502
    73  H    0.020092
    74  H    0.021818
    75  H    0.007552
    76  H   -0.000533
    77  H    0.027300
    78  H    0.035127
    79  H    0.037457
    80  H   -0.009115
    81  H    0.040630
    82  H    0.029139
    83  H    0.050294
    84  H    0.008695
    85  H    0.018719
    86  H    0.005743
    87  H    0.013157
    88  H    0.033438
    89  H    0.018932
    90  H    0.009302
    91  H    0.001812
    92  H    0.005344
    93  H    0.006485
    94  H    0.028607
    95  H    0.041258
    96  H    0.021386
    97  H    0.014378
    98  H    0.040502
    99  H    0.031806
   100  H    0.034892
   101  H    0.044048
   102  H    0.025821
   103  H    0.024531
   104  H   -0.005092
   105  H    0.015980
   106  H    0.016319
   107  H    0.018861
   108  H    0.007636
   109  H   -0.012316
   110  H    0.020149
   111  H    0.004925
   112  H    0.000123
   113  H   -0.007584
   114  H    0.004812
   115  H    0.000684
   116  H    0.005568
   117  H    0.018123
   118  H   -0.026537
   119  H   -0.004537
   120  H   -0.004968
   121  H    0.003132
   122  H   -0.013074
   123  H   -0.009122
   124  H   -0.007438
   125  H    0.000987
   126  H    0.016135
   127  H   -0.010994
   128  H   -0.013527
   129  H   -0.028727
   130  H   -0.006302
   131  H   -0.012395
   132  H    0.003908
   133  H   -0.009706
   134  H   -0.005311
   135  H    0.018243
   136  H    0.000158
   137  H   -0.002890
   138  H    0.012801
   139  H    0.001175
   140  H    0.007245
 Sum of Mulliken charges =  -0.00000

 Dipole moment (field-independent basis, Debye):
    X=              1.9911    Y=              2.9145    Z=              1.7557  Tot=              3.9422
 Quadrupole moment (field-independent basis, Debye-Ang):
   XX=           -357.2650   YY=           -446.0502   ZZ=           -400.3794
   XY=             21.1926   XZ=              7.2344   YZ=             30.1130

 Normal termination of Gaussian 16 at Thu May  5 10:11:35 2022.
