 Gaussian 16, Revision A.03,
 Gaussian 16:  ES64L-G16RevA.03 25-Dec-2016

 ---------------------------------
 #p PBE1PBE/Def2SVP td=(nstates=5)
 ---------------------------------

 ----------------------------------------------------
 step_801_chromophore_5 TDDFT with PBE1PBE functional
 ----------------------------------------------------
 Symbolic Z-matrix:
 Charge =  0 Multiplicity = 1

                         Standard orientation:
 ---------------------------------------------------------------------
 Center     Atomic      Atomic             Coordinates (Angstroms)
 Number     Number       Type             X           Y           Z
 ---------------------------------------------------------------------
      1         12           0        5.297134    0.596974   -0.312773
      2          6           0        4.341792   -2.757674   -0.148203
      3          6           0        2.865596    1.201711   -2.612875
      4          6           0        5.717979    3.924892    0.031629
      5          6           0        7.327933   -0.016803    2.381488
      6          7           0        3.863449   -0.641602   -1.320910
      7          6           0        3.577685   -1.985467   -0.973790
      8          6           0        2.265568   -2.491074   -1.655596
      9          6           0        1.991685   -1.278261   -2.728092
     10          6           0        2.962219   -0.160542   -2.247892
     11          6           0        2.374595   -1.738044   -4.131207
     12          6           0        1.032661   -2.802342   -0.722451
     13          6           0        0.028550   -3.887622   -1.020556
     14          6           0       -1.359532   -3.386294   -1.503709
     15          8           0       -1.603130   -2.829034   -2.611784
     16          8           0       -2.300109   -3.622912   -0.540097
     17          7           0        4.477221    2.336963   -1.238942
     18          6           0        3.540337    2.377867   -2.253488
     19          6           0        3.325917    3.728353   -2.652077
     20          6           0        4.243262    4.539467   -1.946105
     21          6           0        4.926505    3.588524   -1.071100
     22          6           0        2.258847    4.215356   -3.710355
     23          6           0        4.370576    5.968663   -2.141563
     24          8           0        3.625660    6.547564   -2.883358
     25          6           0        5.435639    6.730759   -1.396907
     26          7           0        6.263674    1.788815    1.092203
     27          6           0        6.342213    3.175551    0.989799
     28          6           0        7.333040    3.787299    1.964174
     29          6           0        7.788667    2.484513    2.797716
     30          6           0        7.118876    1.355231    2.086768
     31          6           0        8.527283    4.716710    1.391341
     32          6           0        7.485797    2.569437    4.314457
     33          6           0        8.594404    2.648459    5.360436
     34          7           0        5.861347   -1.030734    0.826914
     35          6           0        6.696295   -1.160346    1.897744
     36          6           0        6.774546   -2.498734    2.399112
     37          6           0        5.823742   -3.141276    1.577322
     38          6           0        5.355504   -2.218399    0.599637
     39          6           0        7.591131   -3.053817    3.538255
     40          6           0        5.183924   -4.475020    1.364055
     41          8           0        5.380374   -5.545774    1.837784
     42          6           0        4.079648   -4.188252    0.323061
     43          6           0        4.226171   -5.145243   -0.743675
     44          8           0        3.551974   -6.148893   -0.813594
     45          8           0        5.277686   -4.741991   -1.547055
     46          6           0        5.526500   -5.514967   -2.733381
     47          6           0       -3.669783   -3.204704   -0.947084
     48          6           0       -3.781729   -1.731424   -0.959618
     49          6           0       -3.909686   -0.844807    0.013124
     50          6           0       -3.481288   -1.213591    1.411356
     51          6           0       -4.065449    0.607171   -0.301134
     52          6           0       -5.493532    0.860816   -0.689114
     53          6           0       -6.000874    1.828459    0.362214
     54          6           0       -7.413131    2.274904   -0.147499
     55          6           0       -7.448190    3.842061   -0.436998
     56          6           0       -8.438234    1.944193    0.909017
     57          6           0       -9.380083    0.792418    0.487429
     58          6           0       -9.967379    0.100013    1.774847
     59          6           0      -11.400587   -0.477046    1.743424
     60          6           0      -11.474341   -1.873887    2.406117
     61          6           0      -12.568806    0.548158    1.981514
     62          6           0      -13.208663    1.029434    0.700863
     63          6           0      -14.385464    0.114785    0.309222
     64          6           0      -15.724449    0.865902    0.220911
     65          6           0      -16.512493    0.837126    1.578453
     66          6           0      -16.634694    0.335375   -0.902365
     67          1           0        2.118546    1.498110   -3.352361
     68          1           0        5.850258    4.971735    0.313175
     69          1           0        8.021217   -0.259712    3.189952
     70          1           0        2.515594   -3.434397   -2.140513
     71          1           0        0.957703   -0.943498   -2.810609
     72          1           0        2.242255   -2.818243   -4.198398
     73          1           0        3.419840   -1.593933   -4.404446
     74          1           0        1.631270   -1.350149   -4.826518
     75          1           0        0.543195   -1.838013   -0.583953
     76          1           0        1.477576   -2.947735    0.261925
     77          1           0       -0.126981   -4.416514   -0.080534
     78          1           0        0.538332   -4.543238   -1.726024
     79          1           0        1.550864    4.976895   -3.382460
     80          1           0        1.582743    3.393280   -3.944108
     81          1           0        2.842091    4.513200   -4.582669
     82          1           0        6.386633    6.235732   -1.595007
     83          1           0        5.260589    6.938125   -0.341022
     84          1           0        5.592371    7.748398   -1.753303
     85          1           0        6.687382    4.470710    2.515053
     86          1           0        8.870921    2.353561    2.768453
     87          1           0        9.399778    4.077135    1.257512
     88          1           0        8.707254    5.512586    2.115222
     89          1           0        8.239510    5.005620    0.380555
     90          1           0        6.997585    1.673750    4.698300
     91          1           0        6.821818    3.413570    4.498945
     92          1           0        9.520505    3.001065    4.905310
     93          1           0        8.841372    1.617944    5.611279
     94          1           0        8.230140    3.187635    6.235296
     95          1           0        7.505778   -4.138583    3.590111
     96          1           0        7.335839   -2.556300    4.473211
     97          1           0        8.653286   -2.823258    3.449945
     98          1           0        3.071043   -4.323288    0.712386
     99          1           0        5.569208   -4.815177   -3.568621
    100          1           0        4.693860   -6.178167   -2.972013
    101          1           0        6.419156   -6.135540   -2.654526
    102          1           0       -4.435685   -3.595730   -0.277798
    103          1           0       -3.954302   -3.515294   -1.952069
    104          1           0       -3.951321   -1.403098   -1.985020
    105          1           0       -4.319634   -1.211682    2.107546
    106          1           0       -2.734291   -0.499734    1.757900
    107          1           0       -2.982321   -2.182571    1.421566
    108          1           0       -3.348178    0.779509   -1.103971
    109          1           0       -3.653300    1.240902    0.483569
    110          1           0       -6.095019   -0.046414   -0.651597
    111          1           0       -5.429920    1.349523   -1.661908
    112          1           0       -5.371902    2.689275    0.588293
    113          1           0       -6.125154    1.257724    1.283221
    114          1           0       -7.654144    1.888747   -1.137359
    115          1           0       -8.483245    4.165625   -0.541705
    116          1           0       -7.072572    3.991472   -1.449988
    117          1           0       -6.996934    4.324559    0.429443
    118          1           0       -9.009547    2.838475    1.158436
    119          1           0       -8.182805    1.696295    1.938477
    120          1           0       -8.717802    0.099028   -0.030737
    121          1           0      -10.210020    1.131297   -0.133031
    122          1           0      -10.126572    0.955650    2.431935
    123          1           0       -9.358772   -0.662843    2.259531
    124          1           0      -11.439321   -0.735516    0.685236
    125          1           0      -11.138996   -2.656466    1.724634
    126          1           0      -12.449631   -2.053403    2.858731
    127          1           0      -10.638246   -1.987800    3.096014
    128          1           0      -12.394010    1.374328    2.671563
    129          1           0      -13.341969    0.060196    2.575337
    130          1           0      -12.449865    1.204199   -0.061991
    131          1           0      -13.554782    2.044802    0.892017
    132          1           0      -14.481755   -0.721870    1.000633
    133          1           0      -14.210557   -0.223277   -0.712419
    134          1           0      -15.594047    1.925764    0.005224
    135          1           0      -17.111250    1.716158    1.818059
    136          1           0      -15.762233    0.567741    2.321094
    137          1           0      -17.201711    0.002916    1.446095
    138          1           0      -16.372761    0.836276   -1.833948
    139          1           0      -17.671852    0.532133   -0.634233
    140          1           0      -16.527421   -0.747489   -0.974982
 ---------------------------------------------------------------------

 SCF Done:  E(RPBE1PBE) =  -3005.33477065     A.U. after   15 cycles

 Excitation energies and oscillator strengths:

 Excited State   1:      Singlet-A      1.8604 eV  666.42 nm  f=0.3614  <S**2>=0.000
     245 -> 248       -0.16362
     246 -> 247        0.69550
     246 <- 247       -0.11127
 This state for optimization and/or second-order correction.
 Total Energy, E(TD-HF/TD-DFT) =  -3005.26640051
 Copying the excited state density for this state as the 1-particle RhoCI density.

 Excited State   2:      Singlet-A      2.2738 eV  545.28 nm  f=0.1108  <S**2>=0.000
     245 -> 247        0.64886
     246 -> 248        0.26713

 Excited State   3:      Singlet-A      2.9938 eV  414.13 nm  f=0.0004  <S**2>=0.000
     242 -> 247        0.15473
     243 -> 247        0.65948
     243 -> 249        0.10510

 Excited State   4:      Singlet-A      3.1259 eV  396.63 nm  f=0.0014  <S**2>=0.000
     242 -> 247        0.67225
     243 -> 247       -0.17272

 Excited State   5:      Singlet-A      3.1872 eV  389.01 nm  f=0.0012  <S**2>=0.000
     240 -> 247        0.50139
     240 -> 249       -0.13345
     241 -> 247        0.45162

 The electronic state is 1-A.
 Alpha  occ. eigenvalues --  -46.91615 -19.26655 -19.26096 -19.20494 -19.20226
 Alpha  occ. eigenvalues --  -19.20175 -19.18300 -14.42260 -14.41615 -14.38900
 Alpha  occ. eigenvalues --  -14.38820 -10.37198 -10.36203 -10.32691 -10.31194
 Alpha  occ. eigenvalues --  -10.29405 -10.29207 -10.29108 -10.28875 -10.28858
 Alpha  occ. eigenvalues --  -10.28338 -10.27634 -10.27171 -10.27061 -10.26638
 Alpha  occ. eigenvalues --  -10.26561 -10.26301 -10.25976 -10.25975 -10.25884
 Alpha  occ. eigenvalues --  -10.25875 -10.25466 -10.25325 -10.25210 -10.24814
 Alpha  occ. eigenvalues --  -10.24812 -10.24587 -10.24432 -10.24127 -10.23884
 Alpha  occ. eigenvalues --  -10.23711 -10.23664 -10.23618 -10.23308 -10.23289
 Alpha  occ. eigenvalues --  -10.23280 -10.22933 -10.22896 -10.22862 -10.22835
 Alpha  occ. eigenvalues --  -10.22781 -10.22598 -10.22562 -10.22375 -10.22214
 Alpha  occ. eigenvalues --  -10.22171 -10.22121 -10.22041 -10.22036 -10.22000
 Alpha  occ. eigenvalues --  -10.21960 -10.21846 -10.21647 -10.21559 -10.21500
 Alpha  occ. eigenvalues --  -10.21498  -3.13844  -1.86689  -1.86188  -1.86102
 Alpha  occ. eigenvalues --   -1.11565  -1.10697  -1.07266  -1.05675  -1.03927
 Alpha  occ. eigenvalues --   -1.01037  -1.00076  -0.98481  -0.97177  -0.96165
 Alpha  occ. eigenvalues --   -0.88109  -0.85609  -0.83938  -0.83590  -0.83427
 Alpha  occ. eigenvalues --   -0.82950  -0.82786  -0.81764  -0.81479  -0.81164
 Alpha  occ. eigenvalues --   -0.80426  -0.79933  -0.79106  -0.78659  -0.78002
 Alpha  occ. eigenvalues --   -0.77010  -0.76444  -0.75639  -0.75429  -0.75068
 Alpha  occ. eigenvalues --   -0.74080  -0.72747  -0.72160  -0.71495  -0.71108
 Alpha  occ. eigenvalues --   -0.69979  -0.69735  -0.69043  -0.68904  -0.68063
 Alpha  occ. eigenvalues --   -0.67863  -0.66786  -0.66614  -0.64353  -0.63472
 Alpha  occ. eigenvalues --   -0.63445  -0.62381  -0.62240  -0.60988  -0.60278
 Alpha  occ. eigenvalues --   -0.59859  -0.59689  -0.59644  -0.59036  -0.58901
 Alpha  occ. eigenvalues --   -0.58294  -0.58256  -0.57016  -0.56605  -0.54978
 Alpha  occ. eigenvalues --   -0.54375  -0.54047  -0.53273  -0.53101  -0.52999
 Alpha  occ. eigenvalues --   -0.52168  -0.51839  -0.51282  -0.50829  -0.50412
 Alpha  occ. eigenvalues --   -0.49827  -0.49671  -0.49157  -0.48835  -0.48521
 Alpha  occ. eigenvalues --   -0.48147  -0.48054  -0.47857  -0.47342  -0.47196
 Alpha  occ. eigenvalues --   -0.47007  -0.46794  -0.46736  -0.46408  -0.46268
 Alpha  occ. eigenvalues --   -0.46234  -0.45943  -0.45763  -0.45475  -0.45280
 Alpha  occ. eigenvalues --   -0.45143  -0.44843  -0.44626  -0.44448  -0.44214
 Alpha  occ. eigenvalues --   -0.44160  -0.43905  -0.43894  -0.43722  -0.43529
 Alpha  occ. eigenvalues --   -0.43270  -0.43061  -0.42882  -0.42700  -0.42222
 Alpha  occ. eigenvalues --   -0.42099  -0.42030  -0.41732  -0.41581  -0.41213
 Alpha  occ. eigenvalues --   -0.41033  -0.40874  -0.40697  -0.40631  -0.40536
 Alpha  occ. eigenvalues --   -0.40369  -0.40111  -0.39907  -0.39710  -0.39682
 Alpha  occ. eigenvalues --   -0.39523  -0.39392  -0.39391  -0.39296  -0.38903
 Alpha  occ. eigenvalues --   -0.38797  -0.38448  -0.38309  -0.38044  -0.37901
 Alpha  occ. eigenvalues --   -0.37754  -0.37736  -0.37249  -0.37127  -0.36990
 Alpha  occ. eigenvalues --   -0.36768  -0.36643  -0.36573  -0.36196  -0.35959
 Alpha  occ. eigenvalues --   -0.35880  -0.35617  -0.35311  -0.35192  -0.34660
 Alpha  occ. eigenvalues --   -0.34510  -0.34424  -0.34071  -0.33991  -0.33668
 Alpha  occ. eigenvalues --   -0.33464  -0.33267  -0.32953  -0.32669  -0.32332
 Alpha  occ. eigenvalues --   -0.32157  -0.32120  -0.31432  -0.31149  -0.30972
 Alpha  occ. eigenvalues --   -0.30333  -0.30176  -0.29885  -0.29836  -0.29125
 Alpha  occ. eigenvalues --   -0.28917  -0.28823  -0.28594  -0.27079  -0.26290
 Alpha  occ. eigenvalues --   -0.26137  -0.25693  -0.25341  -0.24723  -0.21235
 Alpha  occ. eigenvalues --   -0.18839
 Alpha virt. eigenvalues --   -0.11245  -0.05119  -0.03665  -0.02076  -0.00753
 Alpha virt. eigenvalues --   -0.00190   0.00298   0.00670   0.01351   0.03243
 Alpha virt. eigenvalues --    0.03821   0.04874   0.04988   0.05705   0.05797

 Mulliken charges:
               1
     1  Mg   0.984714
     2  C   -0.034530
     3  C   -0.053675
     4  C   -0.092103
     5  C   -0.084934
     6  N   -0.435754
     7  C    0.037460
     8  C   -0.103378
     9  C   -0.136313
    10  C    0.133345
    11  C    0.022193
    12  C   -0.012716
    13  C    0.046540
    14  C    0.244679
    15  O   -0.308936
    16  O   -0.350228
    17  N   -0.456933
    18  C    0.111465
    19  C   -0.156602
    20  C   -0.066996
    21  C    0.212333
    22  C    0.083545
    23  C    0.013355
    24  O   -0.216518
    25  C   -0.039617
    26  N   -0.441881
    27  C    0.050522
    28  C   -0.110569
    29  C   -0.069287
    30  C    0.119694
    31  C    0.010714
    32  C   -0.047082
    33  C   -0.067971
    34  N   -0.444127
    35  C    0.101457
    36  C   -0.156797
    37  C   -0.136272
    38  C    0.205122
    39  C    0.074164
    40  C    0.181165
    41  O   -0.162375
    42  C   -0.108348
    43  C    0.262843
    44  O   -0.224144
    45  O   -0.372780
    46  C    0.119006
    47  C    0.264717
    48  C   -0.178107
    49  C   -0.221390
    50  C    0.007171
    51  C    0.051815
    52  C   -0.043514
    53  C    0.003726
    54  C   -0.217923
    55  C   -0.025977
    56  C   -0.007810
    57  C   -0.041569
    58  C   -0.020065
    59  C   -0.211756
    60  C   -0.003977
    61  C   -0.003306
    62  C   -0.036372
    63  C    0.015903
    64  C   -0.272175
    65  C   -0.019255
    66  C   -0.017782
    67  H   -0.005107
    68  H   -0.008671
    69  H   -0.011164
    70  H    0.046890
    71  H    0.057071
    72  H    0.029936
    73  H    0.047014
    74  H    0.048972
    75  H    0.040825
    76  H    0.033235
    77  H    0.059379
    78  H    0.066270
    79  H    0.063948
    80  H    0.018002
    81  H    0.068324
    82  H    0.057620
    83  H    0.074826
    84  H    0.037460
    85  H    0.054809
    86  H    0.043420
    87  H    0.041049
    88  H    0.060274
    89  H    0.047489
    90  H    0.042250
    91  H    0.034589
    92  H    0.033407
    93  H    0.034376
    94  H    0.055907
    95  H    0.068537
    96  H    0.049001
    97  H    0.042087
    98  H    0.078316
    99  H    0.053192
   100  H    0.054977
   101  H    0.065657
   102  H    0.053245
   103  H    0.052274
   104  H    0.024663
   105  H    0.044242
   106  H    0.043876
   107  H    0.047331
   108  H    0.040569
   109  H    0.018955
   110  H    0.053975
   111  H    0.038741
   112  H    0.030658
   113  H    0.027850
   114  H    0.041130
   115  H    0.029590
   116  H    0.034129
   117  H    0.045453
   118  H    0.006218
   119  H    0.026887
   120  H    0.031761
   121  H    0.038261
   122  H    0.022853
   123  H    0.022355
   124  H    0.034636
   125  H    0.028619
   126  H    0.042442
   127  H    0.016619
   128  H    0.017213
   129  H    0.005095
   130  H    0.028155
   131  H    0.020561
   132  H    0.035956
   133  H    0.024960
   134  H    0.032269
   135  H    0.045464
   136  H    0.030689
   137  H    0.025900
   138  H    0.041142
   139  H    0.029884
   140  H    0.035408
 Sum of Mulliken charges =  -0.00000

 Dipole moment (field-independent basis, Debye):
    X=              2.0447    Y=              2.9914    Z=              1.8798  Tot=              4.0820
 Quadrupole moment (field-independent basis, Debye-Ang):
   XX=           -352.3908   YY=           -443.5749   ZZ=           -396.6009
   XY=             21.5222   XZ=              9.1417   YZ=             30.3993

 Normal termination of Gaussian 16 at Thu May  5 10:34:53 2022.
