 Gaussian 16, Revision A.03,
 Gaussian 16:  ES64L-G16RevA.03 25-Dec-2016

 --------------------------------
 #p wB97XD/Def2SVP td=(nstates=5)
 --------------------------------

 ---------------------------------------------------
 step_801_chromophore_5 TDDFT with wB97XD functional
 ---------------------------------------------------
 Symbolic Z-matrix:
 Charge =  0 Multiplicity = 1

                         Standard orientation:
 ---------------------------------------------------------------------
 Center     Atomic      Atomic             Coordinates (Angstroms)
 Number     Number       Type             X           Y           Z
 ---------------------------------------------------------------------
      1         12           0        5.297134    0.596974   -0.312773
      2          6           0        4.341792   -2.757674   -0.148203
      3          6           0        2.865596    1.201711   -2.612875
      4          6           0        5.717979    3.924892    0.031629
      5          6           0        7.327933   -0.016803    2.381488
      6          7           0        3.863449   -0.641602   -1.320910
      7          6           0        3.577685   -1.985467   -0.973790
      8          6           0        2.265568   -2.491074   -1.655596
      9          6           0        1.991685   -1.278261   -2.728092
     10          6           0        2.962219   -0.160542   -2.247892
     11          6           0        2.374595   -1.738044   -4.131207
     12          6           0        1.032661   -2.802342   -0.722451
     13          6           0        0.028550   -3.887622   -1.020556
     14          6           0       -1.359532   -3.386294   -1.503709
     15          8           0       -1.603130   -2.829034   -2.611784
     16          8           0       -2.300109   -3.622912   -0.540097
     17          7           0        4.477221    2.336963   -1.238942
     18          6           0        3.540337    2.377867   -2.253488
     19          6           0        3.325917    3.728353   -2.652077
     20          6           0        4.243262    4.539467   -1.946105
     21          6           0        4.926505    3.588524   -1.071100
     22          6           0        2.258847    4.215356   -3.710355
     23          6           0        4.370576    5.968663   -2.141563
     24          8           0        3.625660    6.547564   -2.883358
     25          6           0        5.435639    6.730759   -1.396907
     26          7           0        6.263674    1.788815    1.092203
     27          6           0        6.342213    3.175551    0.989799
     28          6           0        7.333040    3.787299    1.964174
     29          6           0        7.788667    2.484513    2.797716
     30          6           0        7.118876    1.355231    2.086768
     31          6           0        8.527283    4.716710    1.391341
     32          6           0        7.485797    2.569437    4.314457
     33          6           0        8.594404    2.648459    5.360436
     34          7           0        5.861347   -1.030734    0.826914
     35          6           0        6.696295   -1.160346    1.897744
     36          6           0        6.774546   -2.498734    2.399112
     37          6           0        5.823742   -3.141276    1.577322
     38          6           0        5.355504   -2.218399    0.599637
     39          6           0        7.591131   -3.053817    3.538255
     40          6           0        5.183924   -4.475020    1.364055
     41          8           0        5.380374   -5.545774    1.837784
     42          6           0        4.079648   -4.188252    0.323061
     43          6           0        4.226171   -5.145243   -0.743675
     44          8           0        3.551974   -6.148893   -0.813594
     45          8           0        5.277686   -4.741991   -1.547055
     46          6           0        5.526500   -5.514967   -2.733381
     47          6           0       -3.669783   -3.204704   -0.947084
     48          6           0       -3.781729   -1.731424   -0.959618
     49          6           0       -3.909686   -0.844807    0.013124
     50          6           0       -3.481288   -1.213591    1.411356
     51          6           0       -4.065449    0.607171   -0.301134
     52          6           0       -5.493532    0.860816   -0.689114
     53          6           0       -6.000874    1.828459    0.362214
     54          6           0       -7.413131    2.274904   -0.147499
     55          6           0       -7.448190    3.842061   -0.436998
     56          6           0       -8.438234    1.944193    0.909017
     57          6           0       -9.380083    0.792418    0.487429
     58          6           0       -9.967379    0.100013    1.774847
     59          6           0      -11.400587   -0.477046    1.743424
     60          6           0      -11.474341   -1.873887    2.406117
     61          6           0      -12.568806    0.548158    1.981514
     62          6           0      -13.208663    1.029434    0.700863
     63          6           0      -14.385464    0.114785    0.309222
     64          6           0      -15.724449    0.865902    0.220911
     65          6           0      -16.512493    0.837126    1.578453
     66          6           0      -16.634694    0.335375   -0.902365
     67          1           0        2.118546    1.498110   -3.352361
     68          1           0        5.850258    4.971735    0.313175
     69          1           0        8.021217   -0.259712    3.189952
     70          1           0        2.515594   -3.434397   -2.140513
     71          1           0        0.957703   -0.943498   -2.810609
     72          1           0        2.242255   -2.818243   -4.198398
     73          1           0        3.419840   -1.593933   -4.404446
     74          1           0        1.631270   -1.350149   -4.826518
     75          1           0        0.543195   -1.838013   -0.583953
     76          1           0        1.477576   -2.947735    0.261925
     77          1           0       -0.126981   -4.416514   -0.080534
     78          1           0        0.538332   -4.543238   -1.726024
     79          1           0        1.550864    4.976895   -3.382460
     80          1           0        1.582743    3.393280   -3.944108
     81          1           0        2.842091    4.513200   -4.582669
     82          1           0        6.386633    6.235732   -1.595007
     83          1           0        5.260589    6.938125   -0.341022
     84          1           0        5.592371    7.748398   -1.753303
     85          1           0        6.687382    4.470710    2.515053
     86          1           0        8.870921    2.353561    2.768453
     87          1           0        9.399778    4.077135    1.257512
     88          1           0        8.707254    5.512586    2.115222
     89          1           0        8.239510    5.005620    0.380555
     90          1           0        6.997585    1.673750    4.698300
     91          1           0        6.821818    3.413570    4.498945
     92          1           0        9.520505    3.001065    4.905310
     93          1           0        8.841372    1.617944    5.611279
     94          1           0        8.230140    3.187635    6.235296
     95          1           0        7.505778   -4.138583    3.590111
     96          1           0        7.335839   -2.556300    4.473211
     97          1           0        8.653286   -2.823258    3.449945
     98          1           0        3.071043   -4.323288    0.712386
     99          1           0        5.569208   -4.815177   -3.568621
    100          1           0        4.693860   -6.178167   -2.972013
    101          1           0        6.419156   -6.135540   -2.654526
    102          1           0       -4.435685   -3.595730   -0.277798
    103          1           0       -3.954302   -3.515294   -1.952069
    104          1           0       -3.951321   -1.403098   -1.985020
    105          1           0       -4.319634   -1.211682    2.107546
    106          1           0       -2.734291   -0.499734    1.757900
    107          1           0       -2.982321   -2.182571    1.421566
    108          1           0       -3.348178    0.779509   -1.103971
    109          1           0       -3.653300    1.240902    0.483569
    110          1           0       -6.095019   -0.046414   -0.651597
    111          1           0       -5.429920    1.349523   -1.661908
    112          1           0       -5.371902    2.689275    0.588293
    113          1           0       -6.125154    1.257724    1.283221
    114          1           0       -7.654144    1.888747   -1.137359
    115          1           0       -8.483245    4.165625   -0.541705
    116          1           0       -7.072572    3.991472   -1.449988
    117          1           0       -6.996934    4.324559    0.429443
    118          1           0       -9.009547    2.838475    1.158436
    119          1           0       -8.182805    1.696295    1.938477
    120          1           0       -8.717802    0.099028   -0.030737
    121          1           0      -10.210020    1.131297   -0.133031
    122          1           0      -10.126572    0.955650    2.431935
    123          1           0       -9.358772   -0.662843    2.259531
    124          1           0      -11.439321   -0.735516    0.685236
    125          1           0      -11.138996   -2.656466    1.724634
    126          1           0      -12.449631   -2.053403    2.858731
    127          1           0      -10.638246   -1.987800    3.096014
    128          1           0      -12.394010    1.374328    2.671563
    129          1           0      -13.341969    0.060196    2.575337
    130          1           0      -12.449865    1.204199   -0.061991
    131          1           0      -13.554782    2.044802    0.892017
    132          1           0      -14.481755   -0.721870    1.000633
    133          1           0      -14.210557   -0.223277   -0.712419
    134          1           0      -15.594047    1.925764    0.005224
    135          1           0      -17.111250    1.716158    1.818059
    136          1           0      -15.762233    0.567741    2.321094
    137          1           0      -17.201711    0.002916    1.446095
    138          1           0      -16.372761    0.836276   -1.833948
    139          1           0      -17.671852    0.532133   -0.634233
    140          1           0      -16.527421   -0.747489   -0.974982
 ---------------------------------------------------------------------

 SCF Done:  E(RwB97XD) =  -3007.84299584     A.U. after   20 cycles

 Excitation energies and oscillator strengths:

 Excited State   1:      Singlet-A      1.6480 eV  752.35 nm  f=0.3748  <S**2>=0.000
     245 -> 248       -0.17687
     246 -> 247        0.68577
     245 <- 248       -0.11498
 This state for optimization and/or second-order correction.
 Total Energy, E(TD-HF/TD-DFT) =  -3007.78243409
 Copying the excited state density for this state as the 1-particle RhoCI density.

 Excited State   2:      Singlet-A      2.2110 eV  560.75 nm  f=0.1069  <S**2>=0.000
     245 -> 247        0.63538
     246 -> 248        0.29597

 Excited State   3:      Singlet-A      3.4570 eV  358.65 nm  f=0.0214  <S**2>=0.000
     243 -> 247        0.65623
     246 -> 248        0.19087

 Excited State   4:      Singlet-A      3.6035 eV  344.06 nm  f=0.3493  <S**2>=0.000
     241 -> 249        0.11366
     242 -> 247        0.44141
     243 -> 247       -0.13777
     245 -> 247       -0.19490
     246 -> 248        0.45500

 Excited State   5:      Singlet-A      3.6082 eV  343.61 nm  f=0.1362  <S**2>=0.000
     241 -> 247        0.42997
     241 -> 248       -0.10116
     241 -> 249        0.18902
     241 -> 250       -0.18414
     242 -> 247        0.23419
     242 -> 249        0.17075
     242 -> 250       -0.14978
     245 -> 247        0.12019
     246 -> 248       -0.27744

 The electronic state is 1-A.
 Alpha  occ. eigenvalues --  -46.94579 -19.31206 -19.30704 -19.25255 -19.25028
 Alpha  occ. eigenvalues --  -19.24864 -19.23139 -14.47414 -14.46643 -14.43906
 Alpha  occ. eigenvalues --  -14.43763 -10.43965 -10.43101 -10.39559 -10.38061
 Alpha  occ. eigenvalues --  -10.35740 -10.35709 -10.35392 -10.35336 -10.35118
 Alpha  occ. eigenvalues --  -10.34670 -10.34076 -10.33455 -10.33434 -10.32827
 Alpha  occ. eigenvalues --  -10.32811 -10.32480 -10.32418 -10.32259 -10.32251
 Alpha  occ. eigenvalues --  -10.32228 -10.31904 -10.31752 -10.31557 -10.31182
 Alpha  occ. eigenvalues --  -10.31177 -10.31090 -10.30769 -10.30548 -10.30147
 Alpha  occ. eigenvalues --  -10.30070 -10.30019 -10.29992 -10.29835 -10.29648
 Alpha  occ. eigenvalues --  -10.29578 -10.29478 -10.29225 -10.29187 -10.29131
 Alpha  occ. eigenvalues --  -10.29050 -10.28999 -10.28976 -10.28731 -10.28566
 Alpha  occ. eigenvalues --  -10.28531 -10.28476 -10.28395 -10.28389 -10.28372
 Alpha  occ. eigenvalues --  -10.28367 -10.28270 -10.28069 -10.27923 -10.27906
 Alpha  occ. eigenvalues --  -10.27857  -3.20649  -1.94244  -1.93746  -1.93658
 Alpha  occ. eigenvalues --   -1.19023  -1.18076  -1.14751  -1.13170  -1.11341
 Alpha  occ. eigenvalues --   -1.08384  -1.07377  -1.05893  -1.04571  -1.03621
 Alpha  occ. eigenvalues --   -0.95740  -0.93246  -0.91600  -0.91183  -0.91085
 Alpha  occ. eigenvalues --   -0.90601  -0.90348  -0.89354  -0.89132  -0.88770
 Alpha  occ. eigenvalues --   -0.88118  -0.87571  -0.86746  -0.86272  -0.85630
 Alpha  occ. eigenvalues --   -0.84657  -0.84117  -0.83324  -0.83030  -0.82734
 Alpha  occ. eigenvalues --   -0.81747  -0.80349  -0.79782  -0.79166  -0.78782
 Alpha  occ. eigenvalues --   -0.77622  -0.77374  -0.76743  -0.76579  -0.75705
 Alpha  occ. eigenvalues --   -0.75426  -0.74358  -0.74162  -0.71975  -0.71030
 Alpha  occ. eigenvalues --   -0.70961  -0.70002  -0.69776  -0.68632  -0.67790
 Alpha  occ. eigenvalues --   -0.67401  -0.67299  -0.67123  -0.66555  -0.66364
 Alpha  occ. eigenvalues --   -0.65906  -0.65697  -0.64666  -0.64242  -0.62422
 Alpha  occ. eigenvalues --   -0.61805  -0.61463  -0.60792  -0.60501  -0.60397
 Alpha  occ. eigenvalues --   -0.59695  -0.59392  -0.58710  -0.58230  -0.57780
 Alpha  occ. eigenvalues --   -0.57208  -0.57077  -0.56616  -0.56245  -0.55875
 Alpha  occ. eigenvalues --   -0.55585  -0.55464  -0.55137  -0.54746  -0.54488
 Alpha  occ. eigenvalues --   -0.54446  -0.54340  -0.54129  -0.53772  -0.53657
 Alpha  occ. eigenvalues --   -0.53622  -0.53303  -0.53097  -0.52840  -0.52660
 Alpha  occ. eigenvalues --   -0.52497  -0.52116  -0.51925  -0.51794  -0.51632
 Alpha  occ. eigenvalues --   -0.51465  -0.51253  -0.51208  -0.51028  -0.50832
 Alpha  occ. eigenvalues --   -0.50550  -0.50331  -0.50128  -0.49954  -0.49502
 Alpha  occ. eigenvalues --   -0.49380  -0.49304  -0.48978  -0.48816  -0.48444
 Alpha  occ. eigenvalues --   -0.48281  -0.48135  -0.47924  -0.47858  -0.47758
 Alpha  occ. eigenvalues --   -0.47589  -0.47281  -0.47105  -0.46965  -0.46804
 Alpha  occ. eigenvalues --   -0.46729  -0.46595  -0.46579  -0.46451  -0.46102
 Alpha  occ. eigenvalues --   -0.45966  -0.45601  -0.45441  -0.45119  -0.45017
 Alpha  occ. eigenvalues --   -0.44948  -0.44903  -0.44365  -0.44337  -0.44032
 Alpha  occ. eigenvalues --   -0.43850  -0.43747  -0.43652  -0.43281  -0.42942
 Alpha  occ. eigenvalues --   -0.42878  -0.42719  -0.42376  -0.42278  -0.41626
 Alpha  occ. eigenvalues --   -0.41598  -0.41461  -0.41138  -0.40975  -0.40758
 Alpha  occ. eigenvalues --   -0.40504  -0.40243  -0.39921  -0.39684  -0.39387
 Alpha  occ. eigenvalues --   -0.39233  -0.39222  -0.38323  -0.38147  -0.37970
 Alpha  occ. eigenvalues --   -0.37261  -0.37121  -0.36848  -0.36734  -0.36107
 Alpha  occ. eigenvalues --   -0.35900  -0.35627  -0.35545  -0.33647  -0.33314
 Alpha  occ. eigenvalues --   -0.32783  -0.32668  -0.32149  -0.31425  -0.26273
 Alpha  occ. eigenvalues --   -0.22995
 Alpha virt. eigenvalues --   -0.07113   0.00319   0.02631   0.04449   0.05550
 Alpha virt. eigenvalues --    0.06248   0.07003   0.07310   0.08073   0.09472
 Alpha virt. eigenvalues --    0.10585   0.11623   0.11773   0.12410   0.12550

 Mulliken charges:
               1
     1  Mg   0.973231
     2  C   -0.030837
     3  C   -0.062749
     4  C   -0.101196
     5  C   -0.103894
     6  N   -0.402906
     7  C    0.001186
     8  C   -0.073621
     9  C   -0.109247
    10  C    0.116759
    11  C    0.028278
    12  C   -0.004436
    13  C    0.064057
    14  C    0.233176
    15  O   -0.307059
    16  O   -0.351417
    17  N   -0.424774
    18  C    0.103973
    19  C   -0.151711
    20  C   -0.061343
    21  C    0.205876
    22  C    0.095829
    23  C    0.009731
    24  O   -0.211195
    25  C   -0.026132
    26  N   -0.411706
    27  C    0.039216
    28  C   -0.089052
    29  C   -0.042093
    30  C    0.109037
    31  C    0.026390
    32  C   -0.036125
    33  C   -0.050394
    34  N   -0.402095
    35  C    0.098423
    36  C   -0.157146
    37  C   -0.130133
    38  C    0.181571
    39  C    0.083544
    40  C    0.159411
    41  O   -0.152596
    42  C   -0.061217
    43  C    0.236484
    44  O   -0.217361
    45  O   -0.372950
    46  C    0.134430
    47  C    0.285349
    48  C   -0.193435
    49  C   -0.205157
    50  C    0.022750
    51  C    0.065260
    52  C   -0.022995
    53  C    0.016942
    54  C   -0.188157
    55  C   -0.010984
    56  C    0.007284
    57  C   -0.020632
    58  C    0.000148
    59  C   -0.184369
    60  C    0.010791
    61  C    0.015258
    62  C   -0.017508
    63  C    0.033505
    64  C   -0.246634
    65  C   -0.003628
    66  C   -0.003812
    67  H   -0.014058
    68  H   -0.023213
    69  H   -0.017906
    70  H    0.027067
    71  H    0.051218
    72  H    0.023066
    73  H    0.041830
    74  H    0.044618
    75  H    0.032694
    76  H    0.023045
    77  H    0.055327
    78  H    0.061628
    79  H    0.060791
    80  H    0.012932
    81  H    0.063994
    82  H    0.049905
    83  H    0.071773
    84  H    0.035869
    85  H    0.043903
    86  H    0.030986
    87  H    0.034851
    88  H    0.055717
    89  H    0.038909
    90  H    0.033146
    91  H    0.026263
    92  H    0.026113
    93  H    0.027301
    94  H    0.051455
    95  H    0.065756
    96  H    0.043894
    97  H    0.036670
    98  H    0.070268
    99  H    0.049298
   100  H    0.050787
   101  H    0.062005
   102  H    0.049357
   103  H    0.047919
   104  H    0.020929
   105  H    0.038639
   106  H    0.038070
   107  H    0.040699
   108  H    0.033867
   109  H    0.010279
   110  H    0.042056
   111  H    0.030452
   112  H    0.022679
   113  H    0.015574
   114  H    0.028742
   115  H    0.022448
   116  H    0.028482
   117  H    0.038706
   118  H   -0.003411
   119  H    0.016206
   120  H    0.020023
   121  H    0.026212
   122  H    0.007486
   123  H    0.014229
   124  H    0.017543
   125  H    0.023077
   126  H    0.037314
   127  H    0.008889
   128  H    0.011252
   129  H   -0.009603
   130  H    0.016915
   131  H    0.011773
   132  H    0.024366
   133  H    0.016499
   134  H    0.020945
   135  H    0.041281
   136  H    0.021222
   137  H    0.017919
   138  H    0.035821
   139  H    0.023570
   140  H    0.028478
 Sum of Mulliken charges =  -0.00000

 Dipole moment (field-independent basis, Debye):
    X=              2.0220    Y=              3.0278    Z=              1.7412  Tot=              4.0358
 Quadrupole moment (field-independent basis, Debye-Ang):
   XX=           -352.6039   YY=           -442.1422   ZZ=           -396.4448
   XY=             21.6761   XZ=              7.9186   YZ=             30.0396

 Normal termination of Gaussian 16 at Thu May  5 11:18:24 2022.
