 Gaussian 16, Revision A.03,
 Gaussian 16:  ES64L-G16RevA.03 25-Dec-2016

 --------------------
 #p ZINDO=(nstates=5)
 --------------------

 ----------------------------
 step_801_chromophore_5 ZINDO
 ----------------------------
 Symbolic Z-matrix:
 Charge =  0 Multiplicity = 1

                         Standard orientation:
 ---------------------------------------------------------------------
 Center     Atomic      Atomic             Coordinates (Angstroms)
 Number     Number       Type             X           Y           Z
 ---------------------------------------------------------------------
      1         12           0        5.297134    0.596974   -0.312773
      2          6           0        4.341792   -2.757674   -0.148203
      3          6           0        2.865596    1.201711   -2.612875
      4          6           0        5.717979    3.924892    0.031629
      5          6           0        7.327933   -0.016803    2.381488
      6          7           0        3.863449   -0.641602   -1.320910
      7          6           0        3.577685   -1.985467   -0.973790
      8          6           0        2.265568   -2.491074   -1.655596
      9          6           0        1.991685   -1.278261   -2.728092
     10          6           0        2.962219   -0.160542   -2.247892
     11          6           0        2.374595   -1.738044   -4.131207
     12          6           0        1.032661   -2.802342   -0.722451
     13          6           0        0.028550   -3.887622   -1.020556
     14          6           0       -1.359532   -3.386294   -1.503709
     15          8           0       -1.603130   -2.829034   -2.611784
     16          8           0       -2.300109   -3.622912   -0.540097
     17          7           0        4.477221    2.336963   -1.238942
     18          6           0        3.540337    2.377867   -2.253488
     19          6           0        3.325917    3.728353   -2.652077
     20          6           0        4.243262    4.539467   -1.946105
     21          6           0        4.926505    3.588524   -1.071100
     22          6           0        2.258847    4.215356   -3.710355
     23          6           0        4.370576    5.968663   -2.141563
     24          8           0        3.625660    6.547564   -2.883358
     25          6           0        5.435639    6.730759   -1.396907
     26          7           0        6.263674    1.788815    1.092203
     27          6           0        6.342213    3.175551    0.989799
     28          6           0        7.333040    3.787299    1.964174
     29          6           0        7.788667    2.484513    2.797716
     30          6           0        7.118876    1.355231    2.086768
     31          6           0        8.527283    4.716710    1.391341
     32          6           0        7.485797    2.569437    4.314457
     33          6           0        8.594404    2.648459    5.360436
     34          7           0        5.861347   -1.030734    0.826914
     35          6           0        6.696295   -1.160346    1.897744
     36          6           0        6.774546   -2.498734    2.399112
     37          6           0        5.823742   -3.141276    1.577322
     38          6           0        5.355504   -2.218399    0.599637
     39          6           0        7.591131   -3.053817    3.538255
     40          6           0        5.183924   -4.475020    1.364055
     41          8           0        5.380374   -5.545774    1.837784
     42          6           0        4.079648   -4.188252    0.323061
     43          6           0        4.226171   -5.145243   -0.743675
     44          8           0        3.551974   -6.148893   -0.813594
     45          8           0        5.277686   -4.741991   -1.547055
     46          6           0        5.526500   -5.514967   -2.733381
     47          6           0       -3.669783   -3.204704   -0.947084
     48          6           0       -3.781729   -1.731424   -0.959618
     49          6           0       -3.909686   -0.844807    0.013124
     50          6           0       -3.481288   -1.213591    1.411356
     51          6           0       -4.065449    0.607171   -0.301134
     52          6           0       -5.493532    0.860816   -0.689114
     53          6           0       -6.000874    1.828459    0.362214
     54          6           0       -7.413131    2.274904   -0.147499
     55          6           0       -7.448190    3.842061   -0.436998
     56          6           0       -8.438234    1.944193    0.909017
     57          6           0       -9.380083    0.792418    0.487429
     58          6           0       -9.967379    0.100013    1.774847
     59          6           0      -11.400587   -0.477046    1.743424
     60          6           0      -11.474341   -1.873887    2.406117
     61          6           0      -12.568806    0.548158    1.981514
     62          6           0      -13.208663    1.029434    0.700863
     63          6           0      -14.385464    0.114785    0.309222
     64          6           0      -15.724449    0.865902    0.220911
     65          6           0      -16.512493    0.837126    1.578453
     66          6           0      -16.634694    0.335375   -0.902365
     67          1           0        2.118546    1.498110   -3.352361
     68          1           0        5.850258    4.971735    0.313175
     69          1           0        8.021217   -0.259712    3.189952
     70          1           0        2.515594   -3.434397   -2.140513
     71          1           0        0.957703   -0.943498   -2.810609
     72          1           0        2.242255   -2.818243   -4.198398
     73          1           0        3.419840   -1.593933   -4.404446
     74          1           0        1.631270   -1.350149   -4.826518
     75          1           0        0.543195   -1.838013   -0.583953
     76          1           0        1.477576   -2.947735    0.261925
     77          1           0       -0.126981   -4.416514   -0.080534
     78          1           0        0.538332   -4.543238   -1.726024
     79          1           0        1.550864    4.976895   -3.382460
     80          1           0        1.582743    3.393280   -3.944108
     81          1           0        2.842091    4.513200   -4.582669
     82          1           0        6.386633    6.235732   -1.595007
     83          1           0        5.260589    6.938125   -0.341022
     84          1           0        5.592371    7.748398   -1.753303
     85          1           0        6.687382    4.470710    2.515053
     86          1           0        8.870921    2.353561    2.768453
     87          1           0        9.399778    4.077135    1.257512
     88          1           0        8.707254    5.512586    2.115222
     89          1           0        8.239510    5.005620    0.380555
     90          1           0        6.997585    1.673750    4.698300
     91          1           0        6.821818    3.413570    4.498945
     92          1           0        9.520505    3.001065    4.905310
     93          1           0        8.841372    1.617944    5.611279
     94          1           0        8.230140    3.187635    6.235296
     95          1           0        7.505778   -4.138583    3.590111
     96          1           0        7.335839   -2.556300    4.473211
     97          1           0        8.653286   -2.823258    3.449945
     98          1           0        3.071043   -4.323288    0.712386
     99          1           0        5.569208   -4.815177   -3.568621
    100          1           0        4.693860   -6.178167   -2.972013
    101          1           0        6.419156   -6.135540   -2.654526
    102          1           0       -4.435685   -3.595730   -0.277798
    103          1           0       -3.954302   -3.515294   -1.952069
    104          1           0       -3.951321   -1.403098   -1.985020
    105          1           0       -4.319634   -1.211682    2.107546
    106          1           0       -2.734291   -0.499734    1.757900
    107          1           0       -2.982321   -2.182571    1.421566
    108          1           0       -3.348178    0.779509   -1.103971
    109          1           0       -3.653300    1.240902    0.483569
    110          1           0       -6.095019   -0.046414   -0.651597
    111          1           0       -5.429920    1.349523   -1.661908
    112          1           0       -5.371902    2.689275    0.588293
    113          1           0       -6.125154    1.257724    1.283221
    114          1           0       -7.654144    1.888747   -1.137359
    115          1           0       -8.483245    4.165625   -0.541705
    116          1           0       -7.072572    3.991472   -1.449988
    117          1           0       -6.996934    4.324559    0.429443
    118          1           0       -9.009547    2.838475    1.158436
    119          1           0       -8.182805    1.696295    1.938477
    120          1           0       -8.717802    0.099028   -0.030737
    121          1           0      -10.210020    1.131297   -0.133031
    122          1           0      -10.126572    0.955650    2.431935
    123          1           0       -9.358772   -0.662843    2.259531
    124          1           0      -11.439321   -0.735516    0.685236
    125          1           0      -11.138996   -2.656466    1.724634
    126          1           0      -12.449631   -2.053403    2.858731
    127          1           0      -10.638246   -1.987800    3.096014
    128          1           0      -12.394010    1.374328    2.671563
    129          1           0      -13.341969    0.060196    2.575337
    130          1           0      -12.449865    1.204199   -0.061991
    131          1           0      -13.554782    2.044802    0.892017
    132          1           0      -14.481755   -0.721870    1.000633
    133          1           0      -14.210557   -0.223277   -0.712419
    134          1           0      -15.594047    1.925764    0.005224
    135          1           0      -17.111250    1.716158    1.818059
    136          1           0      -15.762233    0.567741    2.321094
    137          1           0      -17.201711    0.002916    1.446095
    138          1           0      -16.372761    0.836276   -1.833948
    139          1           0      -17.671852    0.532133   -0.634233
    140          1           0      -16.527421   -0.747489   -0.974982
 ---------------------------------------------------------------------

 SCF Done:  E(RZINDO/S) =  -474.589908835     A.U. after   18 cycles

 Excitation energies and oscillator strengths:

 Excited State   1:      Singlet-A      1.2457 eV  995.32 nm  f=0.6168  <S**2>=0.000
     175 ->178         0.18521
     176 ->177         0.66530
 This state for optimization and/or second-order correction.
 Total Energy, E(CIS/TDA) =  -474.544131076
 Copying the excited state density for this state as the 1-particle RhoCI density.

 Excited State   2:      Singlet-A      1.9481 eV  636.43 nm  f=0.0318  <S**2>=0.000
     175 ->177         0.53660
     176 ->178        -0.43713

 Excited State   3:      Singlet-A      2.9571 eV  419.27 nm  f=0.0001  <S**2>=0.000
     168 ->177         0.17661
     168 ->179        -0.20432
     168 ->181        -0.19549
     168 ->185        -0.11849
     169 ->177         0.25187
     169 ->178         0.13245
     169 ->179        -0.27143
     169 ->181        -0.26561
     169 ->185        -0.15647
     169 ->187        -0.13224

 Excited State   4:      Singlet-A      3.0521 eV  406.22 nm  f=0.0219  <S**2>=0.000
     168 ->177         0.14105
     168 ->179         0.17265
     168 ->181        -0.13007
     170 ->177         0.28336
     170 ->179         0.35607
     170 ->181        -0.23963
     170 ->185         0.18286

 Excited State   5:      Singlet-A      3.0728 eV  403.49 nm  f=1.0903  <S**2>=0.000
     171 ->177        -0.11452
     175 ->177         0.37718
     176 ->178         0.49960
     176 ->179        -0.19628
     176 ->181        -0.11930

 The electronic state is 1-A.
 Alpha  occ. eigenvalues --   -1.87246  -1.82120  -1.78632  -1.74190  -1.72966
 Alpha  occ. eigenvalues --   -1.69597  -1.66399  -1.63091  -1.61814  -1.59659
 Alpha  occ. eigenvalues --   -1.56375  -1.51800  -1.49880  -1.48883  -1.47913
 Alpha  occ. eigenvalues --   -1.47031  -1.42201  -1.40958  -1.38751  -1.37372
 Alpha  occ. eigenvalues --   -1.36184  -1.34399  -1.33979  -1.31626  -1.28801
 Alpha  occ. eigenvalues --   -1.27723  -1.27566  -1.24227  -1.22026  -1.18969
 Alpha  occ. eigenvalues --   -1.17137  -1.15340  -1.14338  -1.13978  -1.13205
 Alpha  occ. eigenvalues --   -1.12738  -1.10336  -1.09038  -1.06264  -1.05063
 Alpha  occ. eigenvalues --   -1.02601  -1.00727  -0.98673  -0.98535  -0.97058
 Alpha  occ. eigenvalues --   -0.95571  -0.94955  -0.94405  -0.92576  -0.92379
 Alpha  occ. eigenvalues --   -0.91711  -0.90660  -0.89003  -0.88662  -0.87301
 Alpha  occ. eigenvalues --   -0.86521  -0.85687  -0.84560  -0.82835  -0.81449
 Alpha  occ. eigenvalues --   -0.80310  -0.79916  -0.78333  -0.77210  -0.76826
 Alpha  occ. eigenvalues --   -0.75682  -0.75105  -0.74226  -0.74060  -0.73552
 Alpha  occ. eigenvalues --   -0.72699  -0.72258  -0.71319  -0.70635  -0.70023
 Alpha  occ. eigenvalues --   -0.69859  -0.69416  -0.68992  -0.68430  -0.68225
 Alpha  occ. eigenvalues --   -0.67878  -0.67030  -0.66316  -0.66061  -0.65815
 Alpha  occ. eigenvalues --   -0.65530  -0.65065  -0.64637  -0.63713  -0.63404
 Alpha  occ. eigenvalues --   -0.62986  -0.62395  -0.62259  -0.62019  -0.61782
 Alpha  occ. eigenvalues --   -0.61616  -0.61299  -0.60801  -0.60545  -0.60205
 Alpha  occ. eigenvalues --   -0.59493  -0.59037  -0.58800  -0.58161  -0.57682
 Alpha  occ. eigenvalues --   -0.57197  -0.56903  -0.56737  -0.56363  -0.56347
 Alpha  occ. eigenvalues --   -0.56090  -0.55895  -0.55475  -0.55296  -0.55061
 Alpha  occ. eigenvalues --   -0.54977  -0.54301  -0.53621  -0.53309  -0.53104
 Alpha  occ. eigenvalues --   -0.52919  -0.52602  -0.52159  -0.51880  -0.51505
 Alpha  occ. eigenvalues --   -0.51335  -0.51003  -0.50838  -0.50344  -0.50293
 Alpha  occ. eigenvalues --   -0.50223  -0.49582  -0.49491  -0.49413  -0.48740
 Alpha  occ. eigenvalues --   -0.48694  -0.48468  -0.48152  -0.47875  -0.47724
 Alpha  occ. eigenvalues --   -0.47449  -0.47290  -0.46930  -0.46732  -0.46587
 Alpha  occ. eigenvalues --   -0.46232  -0.45946  -0.45746  -0.45601  -0.45596
 Alpha  occ. eigenvalues --   -0.45410  -0.44911  -0.44061  -0.43876  -0.43460
 Alpha  occ. eigenvalues --   -0.43291  -0.42926  -0.42527  -0.42321  -0.41904
 Alpha  occ. eigenvalues --   -0.41463  -0.40976  -0.40236  -0.39665  -0.39102
 Alpha  occ. eigenvalues --   -0.38304  -0.37651  -0.35348  -0.35147  -0.34981
 Alpha  occ. eigenvalues --   -0.33598  -0.33097  -0.32864  -0.31520  -0.27207
 Alpha  occ. eigenvalues --   -0.21959
 Alpha virt. eigenvalues --   -0.08760  -0.02213  -0.00458   0.01038   0.01144
 Alpha virt. eigenvalues --    0.01829   0.02573   0.02886   0.05101   0.05355
 Alpha virt. eigenvalues --    0.06118   0.06902   0.07368   0.07678   0.07957

 Mulliken charges:
               1
     1  Mg   0.424382
     2  C   -0.022030
     3  C   -0.061372
     4  C   -0.084653
     5  C   -0.072227
     6  N   -0.287029
     7  C    0.095263
     8  C   -0.008769
     9  C    0.006570
    10  C    0.140090
    11  C   -0.049914
    12  C   -0.019673
    13  C    0.016505
    14  C    0.472075
    15  O   -0.532150
    16  O   -0.251709
    17  N   -0.322831
    18  C    0.108045
    19  C    0.040945
    20  C   -0.050748
    21  C    0.142555
    22  C   -0.039490
    23  C    0.341350
    24  O   -0.517470
    25  C   -0.035522
    26  N   -0.285675
    27  C    0.131293
    28  C   -0.012029
    29  C    0.014814
    30  C    0.123928
    31  C   -0.054532
    32  C   -0.034996
    33  C   -0.058128
    34  N   -0.309659
    35  C    0.102445
    36  C    0.017147
    37  C   -0.070183
    38  C    0.115832
    39  C   -0.033145
    40  C    0.338942
    41  O   -0.488343
    42  C    0.052954
    43  C    0.495604
    44  O   -0.520696
    45  O   -0.270503
    46  C    0.074033
    47  C    0.107363
    48  C   -0.078358
    49  C   -0.003718
    50  C   -0.044315
    51  C   -0.022772
    52  C   -0.022248
    53  C   -0.033887
    54  C   -0.022585
    55  C   -0.071132
    56  C   -0.038655
    57  C   -0.038060
    58  C   -0.048089
    59  C   -0.021045
    60  C   -0.060516
    61  C   -0.029885
    62  C   -0.031462
    63  C   -0.024259
    64  C   -0.017846
    65  C   -0.067155
    66  C   -0.057942
    67  H    0.020751
    68  H    0.017949
    69  H    0.015002
    70  H    0.034114
    71  H    0.045355
    72  H    0.012678
    73  H    0.028979
    74  H    0.025009
    75  H    0.020700
    76  H    0.016698
    77  H    0.035650
    78  H    0.052184
    79  H    0.044552
    80  H    0.012969
    81  H    0.042417
    82  H    0.028858
    83  H    0.043029
    84  H    0.024695
    85  H    0.031937
    86  H    0.031571
    87  H    0.022172
    88  H    0.032944
    89  H    0.029249
    90  H    0.019960
    91  H    0.015798
    92  H    0.019023
    93  H    0.014179
    94  H    0.030285
    95  H    0.036938
    96  H    0.030297
    97  H    0.024918
    98  H    0.061975
    99  H    0.029851
   100  H    0.042247
   101  H    0.045519
   102  H    0.034689
   103  H    0.046603
   104  H    0.018748
   105  H    0.026664
   106  H    0.021967
   107  H    0.021584
   108  H    0.017274
   109  H    0.018797
   110  H    0.035496
   111  H    0.024952
   112  H    0.028496
   113  H    0.017458
   114  H    0.027947
   115  H    0.010851
   116  H    0.021419
   117  H    0.030385
   118  H    0.006384
   119  H    0.023788
   120  H    0.019012
   121  H    0.029840
   122  H    0.011103
   123  H    0.029070
   124  H    0.007257
   125  H    0.018463
   126  H    0.026959
   127  H    0.015103
   128  H    0.018406
   129  H    0.008343
   130  H    0.022705
   131  H    0.009512
   132  H    0.030943
   133  H    0.013153
   134  H    0.016648
   135  H    0.026722
   136  H    0.020315
   137  H    0.015065
   138  H    0.017858
   139  H    0.015879
   140  H    0.018955
 Sum of Mulliken charges =  -0.00000

 Dipole moment (field-independent basis, Debye):
    X=              2.9526    Y=              4.0690    Z=              3.0394  Tot=              5.8747
 N-N= 4.332404448807D+03 E-N= 0.000000000000D+00  KE=-9.339126463522D+03
 Leave Link  601 at Thu May  5 11:37:46 2022, MaxMem=  6710886400 cpu:               1.6 elap:               0.1
 (Enter /sw/apps/gaussian-16.0/g16/l9999.exe)
 1\1\GINC-BP1-COMPUTE176\SP\RZINDO CIS\STO-3G\C55H74Mg1N4O6\OF15641\05-
 May-2022\0\\#p ZINDO=(nstates=5)\\step_801_chromophore_5 ZINDO\\0,1\Mg
 ,0,25.372,-5.769,46.487\C,0,27.132,-2.888,45.595\C,0,22.792,-4.846,44.
 472\C,0,23.983,-8.829,46.766\C,0,28.235,-6.842,48.04\N,0,24.976,-4.042
 ,45.276\C,0,25.931,-3.042,44.966\C,0,25.444,-2.12,43.802\C,0,23.871,-2
 .577,43.688\C,0,23.823,-3.881,44.536\C,0,22.98,-1.51,44.316\C,0,26.227
 ,-2.197,42.435\C,0,26.407,-1.01,41.522\C,0,25.552,-1.04,40.226\O,0,24.

 Normal termination of Gaussian 16 at Thu May  5 11:37:47 2022.
