 Gaussian 16, Revision A.03,
 Gaussian 16:  ES64L-G16RevA.03 25-Dec-2016

 ------------------------------
 #p blyp/Def2SVP td=(nstates=5)
 ------------------------------

 -------------------------------------------------
 step_351_chromophore_4 TDDFT with blyp functional
 -------------------------------------------------
 Symbolic Z-matrix:
 Charge =  0 Multiplicity = 1

                         Standard orientation:
 ---------------------------------------------------------------------
 Center     Atomic      Atomic             Coordinates (Angstroms)
 Number     Number       Type             X           Y           Z
 ---------------------------------------------------------------------
      1         12           0        5.930255    0.486748    0.067760
      2          6           0        3.680357   -2.150052    0.119746
      3          6           0        3.346174    2.641368   -0.511720
      4          6           0        8.193754    2.939663   -0.066215
      5          6           0        8.485516   -1.828925    0.556756
      6          7           0        3.710674    0.257309   -0.339755
      7          6           0        3.023772   -0.914555   -0.145503
      8          6           0        1.495497   -0.676194   -0.343009
      9          6           0        1.460656    0.889482   -0.552497
     10          6           0        2.898293    1.307765   -0.467129
     11          6           0        0.798516    1.379113   -1.925501
     12          6           0        0.567459   -1.250357    0.714491
     13          6           0       -0.921630   -0.889285    0.622745
     14          6           0       -1.835545   -2.067118    0.464754
     15          8           0       -1.811584   -3.072044    1.189462
     16          8           0       -2.699320   -1.859615   -0.614997
     17          7           0        5.783745    2.594239   -0.237226
     18          6           0        4.624942    3.311055   -0.424881
     19          6           0        4.985034    4.717253   -0.497186
     20          6           0        6.372146    4.863458   -0.435921
     21          6           0        6.855201    3.417812   -0.273538
     22          6           0        3.965339    5.826419   -0.710153
     23          6           0        7.274897    6.095177   -0.536104
     24          8           0        8.468643    5.955767   -0.371637
     25          6           0        6.767685    7.497148   -0.806370
     26          7           0        7.979616    0.526242    0.185685
     27          6           0        8.730030    1.591951   -0.013979
     28          6           0       10.254944    1.368468    0.108338
     29          6           0       10.289163   -0.137711    0.469077
     30          6           0        8.781371   -0.494979    0.419042
     31          6           0       10.938291    1.747165   -1.300780
     32          6           0       10.898476   -0.319286    1.833781
     33          6           0       12.426435   -0.066995    1.851409
     34          7           0        6.107756   -1.562604    0.176238
     35          6           0        7.243205   -2.353460    0.497769
     36          6           0        6.789624   -3.747746    0.644693
     37          6           0        5.431059   -3.709930    0.490726
     38          6           0        5.016654   -2.351257    0.277847
     39          6           0        7.568717   -4.913457    0.967323
     40          6           0        4.264606   -4.491963    0.508358
     41          8           0        4.067414   -5.718480    0.631292
     42          6           0        3.049895   -3.508503    0.422967
     43          6           0        2.251186   -4.143490   -0.669840
     44          8           0        2.439667   -4.204919   -1.888276
     45          8           0        1.098442   -4.653410   -0.104061
     46          6           0       -0.042383   -4.838152   -0.980387
     47          6           0       -3.716680   -2.854637   -0.874324
     48          6           0       -4.974123   -2.226428   -0.341482
     49          6           0       -6.130832   -2.907121   -0.061990
     50          6           0       -6.410738   -4.404443   -0.420206
     51          6           0       -7.373730   -2.188498    0.538460
     52          6           0       -8.008650   -1.232778   -0.524695
     53          6           0       -8.162804    0.262354   -0.096168
     54          6           0       -9.372762    1.131332   -0.589404
     55          6           0       -9.628020    1.040819   -2.102632
     56          6           0       -9.357881    2.560727    0.007283
     57          6           0       -9.959814    2.723382    1.409628
     58          6           0      -11.237264    3.539068    1.572489
     59          6           0      -12.534963    2.906279    2.193106
     60          6           0      -13.063942    3.786052    3.383602
     61          6           0      -13.691391    2.586740    1.147990
     62          6           0      -14.128209    1.160143    1.091039
     63          6           0      -13.399784    0.376487   -0.101710
     64          6           0      -14.369086    0.049279   -1.230550
     65          6           0      -15.143760   -1.209390   -0.839293
     66          6           0      -13.558055   -0.189126   -2.533611
     67          1           0        2.468787    3.289653   -0.545238
     68          1           0        8.958839    3.706835   -0.202493
     69          1           0        9.204817   -2.612436    0.802494
     70          1           0        1.081779   -1.107268   -1.254170
     71          1           0        1.016604    1.386415    0.310295
     72          1           0        0.125328    2.207285   -1.703462
     73          1           0        0.266053    0.581289   -2.445160
     74          1           0        1.554049    1.808290   -2.584806
     75          1           0        1.051576   -0.805719    1.583773
     76          1           0        0.637490   -2.336536    0.770949
     77          1           0       -1.156538   -0.238913   -0.218696
     78          1           0       -1.277484   -0.296561    1.465013
     79          1           0        3.977835    6.646957    0.008469
     80          1           0        2.943640    5.446934   -0.738158
     81          1           0        4.227078    6.182276   -1.706943
     82          1           0        6.480108    8.010456    0.111054
     83          1           0        5.943826    7.481746   -1.520317
     84          1           0        7.605233    8.017973   -1.270567
     85          1           0       10.633877    1.920955    0.967781
     86          1           0       10.796766   -0.622055   -0.364926
     87          1           0       10.439951    2.621417   -1.718574
     88          1           0       10.854655    0.885164   -1.962994
     89          1           0       12.009583    1.790392   -1.103636
     90          1           0       10.758287   -1.241850    2.396140
     91          1           0       10.422352    0.378736    2.521849
     92          1           0       12.707669    0.028936    0.802633
     93          1           0       12.953648   -0.887740    2.336048
     94          1           0       12.755276    0.824441    2.386273
     95          1           0        7.146509   -5.686549    0.325536
     96          1           0        7.731886   -5.135032    2.022134
     97          1           0        8.564585   -4.823200    0.533870
     98          1           0        2.570443   -3.559406    1.400951
     99          1           0       -0.455014   -3.939261   -1.436598
    100          1           0       -0.864872   -5.340319   -0.470026
    101          1           0        0.304858   -5.531384   -1.746426
    102          1           0       -3.476852   -3.881976   -0.600963
    103          1           0       -3.718822   -2.793773   -1.962484
    104          1           0       -4.965081   -1.162287   -0.106057
    105          1           0       -6.210991   -5.160100    0.339850
    106          1           0       -5.860623   -4.628713   -1.334786
    107          1           0       -7.446437   -4.450940   -0.755619
    108          1           0       -7.096500   -1.581796    1.400396
    109          1           0       -8.129344   -2.887034    0.898566
    110          1           0       -8.976247   -1.667531   -0.774597
    111          1           0       -7.542299   -1.184032   -1.508040
    112          1           0       -7.343731    0.805506   -0.566546
    113          1           0       -7.906742    0.387514    0.956057
    114          1           0      -10.185155    0.625461   -0.066780
    115          1           0       -9.342171    1.949879   -2.631602
    116          1           0      -10.691577    0.852270   -2.244344
    117          1           0       -9.070038    0.196428   -2.508569
    118          1           0       -9.839878    3.253064   -0.683365
    119          1           0       -8.327866    2.918527   -0.017906
    120          1           0       -9.195669    3.113794    2.081472
    121          1           0      -10.174842    1.711890    1.753769
    122          1           0      -11.568388    3.898929    0.598808
    123          1           0      -10.984533    4.528669    1.953132
    124          1           0      -12.103259    2.060189    2.728830
    125          1           0      -12.202646    4.128827    3.958458
    126          1           0      -13.761851    3.251868    4.028662
    127          1           0      -13.554390    4.638519    2.914807
    128          1           0      -13.383797    2.901654    0.151316
    129          1           0      -14.576346    3.102863    1.520438
    130          1           0      -15.215831    1.091042    1.105202
    131          1           0      -13.789251    0.601772    1.963164
    132          1           0      -12.963301   -0.518394    0.341048
    133          1           0      -12.523483    0.968127   -0.364144
    134          1           0      -15.057609    0.893797   -1.238217
    135          1           0      -16.028968   -0.755895   -0.393641
    136          1           0      -14.635584   -1.754261   -0.042883
    137          1           0      -15.404319   -1.869301   -1.666273
    138          1           0      -12.600558    0.331137   -2.568031
    139          1           0      -14.054842    0.273748   -3.385857
    140          1           0      -13.512426   -1.267763   -2.687128
 ---------------------------------------------------------------------

 SCF Done:  E(RB-LYP) =  -3007.37371449     A.U. after   22 cycles

 Excitation energies and oscillator strengths:

 Excited State   1:      Singlet-A      1.8383 eV  674.45 nm  f=0.3047  <S**2>=0.000
     245 -> 248        0.20824
     246 -> 247        0.67855
     246 <- 247       -0.13853
 This state for optimization and/or second-order correction.
 Total Energy, E(TD-HF/TD-DFT) =  -3007.30615783
 Copying the excited state density for this state as the 1-particle RhoCI density.

 Excited State   2:      Singlet-A      1.8965 eV  653.77 nm  f=0.0132  <S**2>=0.000
     244 -> 247        0.67439
     245 -> 247        0.18706

 Excited State   3:      Singlet-A      2.0334 eV  609.75 nm  f=0.0485  <S**2>=0.000
     244 -> 247       -0.19325
     245 -> 247        0.61018
     246 -> 248       -0.27914

 Excited State   4:      Singlet-A      2.1654 eV  572.57 nm  f=0.0002  <S**2>=0.000
     243 -> 247        0.70614

 Excited State   5:      Singlet-A      2.3973 eV  517.18 nm  f=0.0001  <S**2>=0.000
     242 -> 247        0.70710

 The electronic state is 1-A.
 Alpha  occ. eigenvalues --  -46.27315 -18.82566 -18.80258 -18.77262 -18.75929
 Alpha  occ. eigenvalues --  -18.75813 -18.74938 -14.03645 -14.03345 -14.01333
 Alpha  occ. eigenvalues --  -14.00712 -10.04467 -10.03253 -10.00350  -9.98688
 Alpha  occ. eigenvalues --   -9.98411  -9.97113  -9.96510  -9.96432  -9.96319
 Alpha  occ. eigenvalues --   -9.96226  -9.96211  -9.96036  -9.95063  -9.94435
 Alpha  occ. eigenvalues --   -9.94249  -9.94216  -9.94164  -9.93838  -9.93783
 Alpha  occ. eigenvalues --   -9.93753  -9.93494  -9.93433  -9.93391  -9.93268
 Alpha  occ. eigenvalues --   -9.93236  -9.93224  -9.93066  -9.93038  -9.92927
 Alpha  occ. eigenvalues --   -9.92735  -9.92705  -9.92677  -9.92635  -9.92390
 Alpha  occ. eigenvalues --   -9.92243  -9.92181  -9.92158  -9.92121  -9.92014
 Alpha  occ. eigenvalues --   -9.91955  -9.91942  -9.91907  -9.91904  -9.91392
 Alpha  occ. eigenvalues --   -9.91265  -9.91231  -9.91230  -9.91224  -9.90977
 Alpha  occ. eigenvalues --   -9.90854  -9.90822  -9.90803  -9.90783  -9.90754
 Alpha  occ. eigenvalues --   -9.90528  -2.91959  -1.72398  -1.71835  -1.71669
 Alpha  occ. eigenvalues --   -0.97490  -0.96254  -0.92516  -0.89998  -0.89579
 Alpha  occ. eigenvalues --   -0.88598  -0.88021  -0.86578  -0.85315  -0.84963
 Alpha  occ. eigenvalues --   -0.75767  -0.73430  -0.73220  -0.73133  -0.72711
 Alpha  occ. eigenvalues --   -0.71970  -0.71660  -0.71258  -0.70815  -0.70756
 Alpha  occ. eigenvalues --   -0.70244  -0.69264  -0.68043  -0.67542  -0.67081
 Alpha  occ. eigenvalues --   -0.66381  -0.65676  -0.65287  -0.64985  -0.64405
 Alpha  occ. eigenvalues --   -0.64234  -0.62992  -0.62337  -0.61796  -0.60550
 Alpha  occ. eigenvalues --   -0.60397  -0.60226  -0.59968  -0.59698  -0.58874
 Alpha  occ. eigenvalues --   -0.58673  -0.57579  -0.57424  -0.56241  -0.54836
 Alpha  occ. eigenvalues --   -0.54394  -0.53887  -0.52750  -0.52598  -0.52066
 Alpha  occ. eigenvalues --   -0.51610  -0.51196  -0.50930  -0.50136  -0.49969
 Alpha  occ. eigenvalues --   -0.49482  -0.49027  -0.48754  -0.47890  -0.46818
 Alpha  occ. eigenvalues --   -0.46605  -0.46147  -0.45832  -0.45463  -0.44965
 Alpha  occ. eigenvalues --   -0.44560  -0.44083  -0.43221  -0.42549  -0.42278
 Alpha  occ. eigenvalues --   -0.42150  -0.41999  -0.41636  -0.41290  -0.40988
 Alpha  occ. eigenvalues --   -0.40669  -0.40577  -0.40014  -0.39996  -0.39892
 Alpha  occ. eigenvalues --   -0.39663  -0.39468  -0.39301  -0.39242  -0.39181
 Alpha  occ. eigenvalues --   -0.38913  -0.38846  -0.38523  -0.38433  -0.38317
 Alpha  occ. eigenvalues --   -0.38129  -0.37941  -0.37857  -0.37721  -0.37352
 Alpha  occ. eigenvalues --   -0.37009  -0.36924  -0.36758  -0.36654  -0.36607
 Alpha  occ. eigenvalues --   -0.36389  -0.36102  -0.36004  -0.35782  -0.35621
 Alpha  occ. eigenvalues --   -0.35570  -0.35363  -0.35229  -0.34849  -0.34736
 Alpha  occ. eigenvalues --   -0.34662  -0.34552  -0.34312  -0.34109  -0.33958
 Alpha  occ. eigenvalues --   -0.33603  -0.33500  -0.33414  -0.33171  -0.33106
 Alpha  occ. eigenvalues --   -0.32968  -0.32779  -0.32691  -0.32549  -0.32449
 Alpha  occ. eigenvalues --   -0.32197  -0.31988  -0.31845  -0.31730  -0.31304
 Alpha  occ. eigenvalues --   -0.31254  -0.31164  -0.31056  -0.30937  -0.30924
 Alpha  occ. eigenvalues --   -0.30784  -0.30468  -0.30421  -0.30276  -0.29930
 Alpha  occ. eigenvalues --   -0.29909  -0.29577  -0.29253  -0.29099  -0.28870
 Alpha  occ. eigenvalues --   -0.28703  -0.28207  -0.28058  -0.27683  -0.27571
 Alpha  occ. eigenvalues --   -0.27537  -0.27238  -0.27032  -0.26569  -0.26465
 Alpha  occ. eigenvalues --   -0.26249  -0.26187  -0.25947  -0.25897  -0.25334
 Alpha  occ. eigenvalues --   -0.25090  -0.24236  -0.24008  -0.23973  -0.23743
 Alpha  occ. eigenvalues --   -0.23282  -0.22261  -0.22159  -0.21221  -0.21031
 Alpha  occ. eigenvalues --   -0.20604  -0.20087  -0.19134  -0.18142  -0.17289
 Alpha  occ. eigenvalues --   -0.15742
 Alpha virt. eigenvalues --   -0.11277  -0.07225  -0.06403  -0.04562  -0.03643
 Alpha virt. eigenvalues --   -0.02801  -0.02300  -0.02177  -0.01181   0.00256
 Alpha virt. eigenvalues --    0.00862   0.01806   0.02465   0.02558   0.03037

 Mulliken charges:
               1
     1  Mg   0.694489
     2  C    0.050172
     3  C   -0.026142
     4  C   -0.032942
     5  C   -0.114058
     6  N   -0.182428
     7  C   -0.060602
     8  C    0.028731
     9  C    0.017311
    10  C   -0.063846
    11  C    0.117374
    12  C    0.076389
    13  C    0.162743
    14  C    0.068276
    15  O   -0.200773
    16  O   -0.286203
    17  N   -0.263564
    18  C    0.134652
    19  C   -0.133192
    20  C    0.045873
    21  C    0.055461
    22  C    0.147828
    23  C   -0.083214
    24  O   -0.156189
    25  C    0.136651
    26  N   -0.174674
    27  C   -0.012548
    28  C   -0.013866
    29  C    0.065554
    30  C    0.060701
    31  C    0.126150
    32  C    0.073250
    33  C    0.070063
    34  N   -0.305965
    35  C    0.122317
    36  C   -0.181780
    37  C    0.181681
    38  C    0.068517
    39  C    0.180780
    40  C   -0.113739
    41  O   -0.161863
    42  C    0.047871
    43  C    0.122230
    44  O   -0.186034
    45  O   -0.274122
    46  C    0.219992
    47  C    0.337153
    48  C   -0.101782
    49  C   -0.152356
    50  C    0.122189
    51  C    0.147966
    52  C    0.065926
    53  C    0.041132
    54  C   -0.082975
    55  C    0.135026
    56  C    0.117982
    57  C    0.093754
    58  C    0.086034
    59  C   -0.065346
    60  C    0.076655
    61  C    0.148981
    62  C    0.052541
    63  C    0.036113
    64  C   -0.078536
    65  C    0.119335
    66  C    0.145809
    67  H   -0.080995
    68  H   -0.033273
    69  H   -0.066585
    70  H   -0.018910
    71  H   -0.023414
    72  H   -0.008760
    73  H    0.008071
    74  H    0.000530
    75  H   -0.038344
    76  H    0.032849
    77  H   -0.023769
    78  H    0.005666
    79  H    0.008684
    80  H   -0.019570
    81  H    0.015596
    82  H    0.021283
    83  H   -0.014797
    84  H   -0.001518
    85  H   -0.010051
    86  H   -0.030856
    87  H    0.018007
    88  H   -0.014789
    89  H   -0.002521
    90  H   -0.026623
    91  H   -0.030877
    92  H   -0.011282
    93  H   -0.008066
    94  H   -0.005276
    95  H    0.010980
    96  H    0.020839
    97  H   -0.033112
    98  H    0.020220
    99  H    0.003794
   100  H    0.014505
   101  H    0.006656
   102  H    0.017139
   103  H   -0.011165
   104  H   -0.029598
   105  H    0.024653
   106  H   -0.015513
   107  H   -0.011634
   108  H   -0.015898
   109  H   -0.029415
   110  H   -0.034204
   111  H   -0.009680
   112  H   -0.044927
   113  H   -0.037752
   114  H   -0.029301
   115  H   -0.012309
   116  H   -0.020929
   117  H   -0.023022
   118  H   -0.045309
   119  H   -0.048092
   120  H   -0.032565
   121  H   -0.031905
   122  H   -0.060121
   123  H   -0.048938
   124  H   -0.036091
   125  H   -0.013526
   126  H   -0.010292
   127  H   -0.013360
   128  H   -0.021925
   129  H   -0.040729
   130  H   -0.033638
   131  H   -0.039913
   132  H   -0.036891
   133  H   -0.023140
   134  H   -0.031374
   135  H   -0.019388
   136  H   -0.015344
   137  H   -0.009090
   138  H   -0.040282
   139  H   -0.031215
   140  H   -0.010527
 Sum of Mulliken charges =  -0.00000

 Dipole moment (field-independent basis, Debye):
    X=             -2.5934    Y=              4.9736    Z=              0.2749  Tot=              5.6159
 Quadrupole moment (field-independent basis, Debye-Ang):
   XX=           -363.5046   YY=           -432.8775   ZZ=           -408.3458
   XY=              3.7523   XZ=             15.4945   YZ=             -0.1157

 Normal termination of Gaussian 16 at Fri Apr 29 16:15:05 2022.
