 Gaussian 16, Revision A.03,
 Gaussian 16:  ES64L-G16RevA.03 25-Dec-2016

 -----------------------------------
 #p cam-b3lyp/Def2SVP td=(nstates=5)
 -----------------------------------

 ------------------------------------------------------
 step_351_chromophore_4 TDDFT with cam-b3lyp functional
 ------------------------------------------------------
 Symbolic Z-matrix:
 Charge =  0 Multiplicity = 1

                         Standard orientation:
 ---------------------------------------------------------------------
 Center     Atomic      Atomic             Coordinates (Angstroms)
 Number     Number       Type             X           Y           Z
 ---------------------------------------------------------------------
      1         12           0        5.930255    0.486748    0.067760
      2          6           0        3.680357   -2.150052    0.119746
      3          6           0        3.346174    2.641368   -0.511720
      4          6           0        8.193754    2.939663   -0.066215
      5          6           0        8.485516   -1.828925    0.556756
      6          7           0        3.710674    0.257309   -0.339755
      7          6           0        3.023772   -0.914555   -0.145503
      8          6           0        1.495497   -0.676194   -0.343009
      9          6           0        1.460656    0.889482   -0.552497
     10          6           0        2.898293    1.307765   -0.467129
     11          6           0        0.798516    1.379113   -1.925501
     12          6           0        0.567459   -1.250357    0.714491
     13          6           0       -0.921630   -0.889285    0.622745
     14          6           0       -1.835545   -2.067118    0.464754
     15          8           0       -1.811584   -3.072044    1.189462
     16          8           0       -2.699320   -1.859615   -0.614997
     17          7           0        5.783745    2.594239   -0.237226
     18          6           0        4.624942    3.311055   -0.424881
     19          6           0        4.985034    4.717253   -0.497186
     20          6           0        6.372146    4.863458   -0.435921
     21          6           0        6.855201    3.417812   -0.273538
     22          6           0        3.965339    5.826419   -0.710153
     23          6           0        7.274897    6.095177   -0.536104
     24          8           0        8.468643    5.955767   -0.371637
     25          6           0        6.767685    7.497148   -0.806370
     26          7           0        7.979616    0.526242    0.185685
     27          6           0        8.730030    1.591951   -0.013979
     28          6           0       10.254944    1.368468    0.108338
     29          6           0       10.289163   -0.137711    0.469077
     30          6           0        8.781371   -0.494979    0.419042
     31          6           0       10.938291    1.747165   -1.300780
     32          6           0       10.898476   -0.319286    1.833781
     33          6           0       12.426435   -0.066995    1.851409
     34          7           0        6.107756   -1.562604    0.176238
     35          6           0        7.243205   -2.353460    0.497769
     36          6           0        6.789624   -3.747746    0.644693
     37          6           0        5.431059   -3.709930    0.490726
     38          6           0        5.016654   -2.351257    0.277847
     39          6           0        7.568717   -4.913457    0.967323
     40          6           0        4.264606   -4.491963    0.508358
     41          8           0        4.067414   -5.718480    0.631292
     42          6           0        3.049895   -3.508503    0.422967
     43          6           0        2.251186   -4.143490   -0.669840
     44          8           0        2.439667   -4.204919   -1.888276
     45          8           0        1.098442   -4.653410   -0.104061
     46          6           0       -0.042383   -4.838152   -0.980387
     47          6           0       -3.716680   -2.854637   -0.874324
     48          6           0       -4.974123   -2.226428   -0.341482
     49          6           0       -6.130832   -2.907121   -0.061990
     50          6           0       -6.410738   -4.404443   -0.420206
     51          6           0       -7.373730   -2.188498    0.538460
     52          6           0       -8.008650   -1.232778   -0.524695
     53          6           0       -8.162804    0.262354   -0.096168
     54          6           0       -9.372762    1.131332   -0.589404
     55          6           0       -9.628020    1.040819   -2.102632
     56          6           0       -9.357881    2.560727    0.007283
     57          6           0       -9.959814    2.723382    1.409628
     58          6           0      -11.237264    3.539068    1.572489
     59          6           0      -12.534963    2.906279    2.193106
     60          6           0      -13.063942    3.786052    3.383602
     61          6           0      -13.691391    2.586740    1.147990
     62          6           0      -14.128209    1.160143    1.091039
     63          6           0      -13.399784    0.376487   -0.101710
     64          6           0      -14.369086    0.049279   -1.230550
     65          6           0      -15.143760   -1.209390   -0.839293
     66          6           0      -13.558055   -0.189126   -2.533611
     67          1           0        2.468787    3.289653   -0.545238
     68          1           0        8.958839    3.706835   -0.202493
     69          1           0        9.204817   -2.612436    0.802494
     70          1           0        1.081779   -1.107268   -1.254170
     71          1           0        1.016604    1.386415    0.310295
     72          1           0        0.125328    2.207285   -1.703462
     73          1           0        0.266053    0.581289   -2.445160
     74          1           0        1.554049    1.808290   -2.584806
     75          1           0        1.051576   -0.805719    1.583773
     76          1           0        0.637490   -2.336536    0.770949
     77          1           0       -1.156538   -0.238913   -0.218696
     78          1           0       -1.277484   -0.296561    1.465013
     79          1           0        3.977835    6.646957    0.008469
     80          1           0        2.943640    5.446934   -0.738158
     81          1           0        4.227078    6.182276   -1.706943
     82          1           0        6.480108    8.010456    0.111054
     83          1           0        5.943826    7.481746   -1.520317
     84          1           0        7.605233    8.017973   -1.270567
     85          1           0       10.633877    1.920955    0.967781
     86          1           0       10.796766   -0.622055   -0.364926
     87          1           0       10.439951    2.621417   -1.718574
     88          1           0       10.854655    0.885164   -1.962994
     89          1           0       12.009583    1.790392   -1.103636
     90          1           0       10.758287   -1.241850    2.396140
     91          1           0       10.422352    0.378736    2.521849
     92          1           0       12.707669    0.028936    0.802633
     93          1           0       12.953648   -0.887740    2.336048
     94          1           0       12.755276    0.824441    2.386273
     95          1           0        7.146509   -5.686549    0.325536
     96          1           0        7.731886   -5.135032    2.022134
     97          1           0        8.564585   -4.823200    0.533870
     98          1           0        2.570443   -3.559406    1.400951
     99          1           0       -0.455014   -3.939261   -1.436598
    100          1           0       -0.864872   -5.340319   -0.470026
    101          1           0        0.304858   -5.531384   -1.746426
    102          1           0       -3.476852   -3.881976   -0.600963
    103          1           0       -3.718822   -2.793773   -1.962484
    104          1           0       -4.965081   -1.162287   -0.106057
    105          1           0       -6.210991   -5.160100    0.339850
    106          1           0       -5.860623   -4.628713   -1.334786
    107          1           0       -7.446437   -4.450940   -0.755619
    108          1           0       -7.096500   -1.581796    1.400396
    109          1           0       -8.129344   -2.887034    0.898566
    110          1           0       -8.976247   -1.667531   -0.774597
    111          1           0       -7.542299   -1.184032   -1.508040
    112          1           0       -7.343731    0.805506   -0.566546
    113          1           0       -7.906742    0.387514    0.956057
    114          1           0      -10.185155    0.625461   -0.066780
    115          1           0       -9.342171    1.949879   -2.631602
    116          1           0      -10.691577    0.852270   -2.244344
    117          1           0       -9.070038    0.196428   -2.508569
    118          1           0       -9.839878    3.253064   -0.683365
    119          1           0       -8.327866    2.918527   -0.017906
    120          1           0       -9.195669    3.113794    2.081472
    121          1           0      -10.174842    1.711890    1.753769
    122          1           0      -11.568388    3.898929    0.598808
    123          1           0      -10.984533    4.528669    1.953132
    124          1           0      -12.103259    2.060189    2.728830
    125          1           0      -12.202646    4.128827    3.958458
    126          1           0      -13.761851    3.251868    4.028662
    127          1           0      -13.554390    4.638519    2.914807
    128          1           0      -13.383797    2.901654    0.151316
    129          1           0      -14.576346    3.102863    1.520438
    130          1           0      -15.215831    1.091042    1.105202
    131          1           0      -13.789251    0.601772    1.963164
    132          1           0      -12.963301   -0.518394    0.341048
    133          1           0      -12.523483    0.968127   -0.364144
    134          1           0      -15.057609    0.893797   -1.238217
    135          1           0      -16.028968   -0.755895   -0.393641
    136          1           0      -14.635584   -1.754261   -0.042883
    137          1           0      -15.404319   -1.869301   -1.666273
    138          1           0      -12.600558    0.331137   -2.568031
    139          1           0      -14.054842    0.273748   -3.385857
    140          1           0      -13.512426   -1.267763   -2.687128
 ---------------------------------------------------------------------

 SCF Done:  E(RCAM-B3LYP) =  -3007.17005133     A.U. after   19 cycles

 Excitation energies and oscillator strengths:

 Excited State   1:      Singlet-A      1.7496 eV  708.64 nm  f=0.3872  <S**2>=0.000
     245 -> 248        0.19991
     246 -> 247        0.68018
     245 <- 248        0.11022
 This state for optimization and/or second-order correction.
 Total Energy, E(TD-HF/TD-DFT) =  -3007.10575410
 Copying the excited state density for this state as the 1-particle RhoCI density.

 Excited State   2:      Singlet-A      2.2631 eV  547.85 nm  f=0.0514  <S**2>=0.000
     245 -> 247        0.60829
     246 -> 248       -0.35277

 Excited State   3:      Singlet-A      3.4009 eV  364.56 nm  f=0.1142  <S**2>=0.000
     241 -> 247        0.23958
     241 -> 249       -0.12761
     242 -> 247        0.46135
     242 -> 249       -0.28913
     242 -> 250        0.17856
     245 -> 247        0.12745
     246 -> 248        0.22747

 Excited State   4:      Singlet-A      3.4279 eV  361.69 nm  f=0.6193  <S**2>=0.000
     242 -> 247       -0.25390
     242 -> 249        0.11236
     245 -> 247        0.30957
     246 -> 248        0.55112
     245 <- 247       -0.10295

 Excited State   5:      Singlet-A      3.6362 eV  340.97 nm  f=0.0083  <S**2>=0.000
     243 -> 247        0.68789

 The electronic state is 1-A.
 Alpha  occ. eigenvalues --  -46.88843 -19.25472 -19.23178 -19.20316 -19.19116
 Alpha  occ. eigenvalues --  -19.19050 -19.18212 -14.42478 -14.42204 -14.39814
 Alpha  occ. eigenvalues --  -14.39159 -10.39915 -10.38757 -10.35583 -10.34112
 Alpha  occ. eigenvalues --  -10.32407 -10.31710 -10.30920 -10.30786 -10.30628
 Alpha  occ. eigenvalues --  -10.30527 -10.30344 -10.30315 -10.29342 -10.28746
 Alpha  occ. eigenvalues --  -10.28576 -10.28428 -10.28291 -10.27947 -10.27840
 Alpha  occ. eigenvalues --  -10.27801 -10.27792 -10.27766 -10.27725 -10.27490
 Alpha  occ. eigenvalues --  -10.27331 -10.27301 -10.27198 -10.26898 -10.26790
 Alpha  occ. eigenvalues --  -10.26513 -10.26420 -10.26417 -10.26388 -10.26302
 Alpha  occ. eigenvalues --  -10.26269 -10.26086 -10.26035 -10.25969 -10.25883
 Alpha  occ. eigenvalues --  -10.25704 -10.25681 -10.25560 -10.25527 -10.25113
 Alpha  occ. eigenvalues --  -10.24921 -10.24913 -10.24892 -10.24858 -10.24662
 Alpha  occ. eigenvalues --  -10.24595 -10.24510 -10.24507 -10.24432 -10.24406
 Alpha  occ. eigenvalues --  -10.24344  -3.17395  -1.92310  -1.91850  -1.91695
 Alpha  occ. eigenvalues --   -1.15934  -1.14793  -1.11030  -1.08003  -1.07930
 Alpha  occ. eigenvalues --   -1.06345  -1.05938  -1.04311  -1.02895  -1.02515
 Alpha  occ. eigenvalues --   -0.92966  -0.90290  -0.89968  -0.89920  -0.89486
 Alpha  occ. eigenvalues --   -0.88663  -0.88344  -0.87953  -0.87395  -0.87327
 Alpha  occ. eigenvalues --   -0.86847  -0.85592  -0.84300  -0.83726  -0.83200
 Alpha  occ. eigenvalues --   -0.82449  -0.81776  -0.81407  -0.80875  -0.80201
 Alpha  occ. eigenvalues --   -0.80036  -0.78714  -0.78010  -0.77300  -0.75927
 Alpha  occ. eigenvalues --   -0.75755  -0.75550  -0.75282  -0.74993  -0.74102
 Alpha  occ. eigenvalues --   -0.73747  -0.72613  -0.72366  -0.71076  -0.69422
 Alpha  occ. eigenvalues --   -0.69028  -0.68594  -0.67190  -0.67036  -0.66166
 Alpha  occ. eigenvalues --   -0.65777  -0.65440  -0.65033  -0.64046  -0.64012
 Alpha  occ. eigenvalues --   -0.63264  -0.62932  -0.62649  -0.61644  -0.60368
 Alpha  occ. eigenvalues --   -0.60223  -0.59816  -0.59266  -0.58900  -0.58429
 Alpha  occ. eigenvalues --   -0.57893  -0.57714  -0.56394  -0.55876  -0.55466
 Alpha  occ. eigenvalues --   -0.55176  -0.55077  -0.54514  -0.54239  -0.53978
 Alpha  occ. eigenvalues --   -0.53657  -0.53323  -0.52995  -0.52684  -0.52636
 Alpha  occ. eigenvalues --   -0.52509  -0.52161  -0.51869  -0.51786  -0.51743
 Alpha  occ. eigenvalues --   -0.51337  -0.51259  -0.51108  -0.50913  -0.50679
 Alpha  occ. eigenvalues --   -0.50504  -0.50377  -0.50130  -0.49959  -0.49735
 Alpha  occ. eigenvalues --   -0.49535  -0.49229  -0.49064  -0.49025  -0.48977
 Alpha  occ. eigenvalues --   -0.48625  -0.48578  -0.48432  -0.47974  -0.47856
 Alpha  occ. eigenvalues --   -0.47655  -0.47488  -0.47172  -0.47048  -0.46793
 Alpha  occ. eigenvalues --   -0.46588  -0.46498  -0.46104  -0.45918  -0.45781
 Alpha  occ. eigenvalues --   -0.45337  -0.45183  -0.45094  -0.45011  -0.44795
 Alpha  occ. eigenvalues --   -0.44650  -0.44577  -0.44196  -0.44094  -0.44028
 Alpha  occ. eigenvalues --   -0.43917  -0.43665  -0.43609  -0.43255  -0.42958
 Alpha  occ. eigenvalues --   -0.42856  -0.42714  -0.42570  -0.42557  -0.42316
 Alpha  occ. eigenvalues --   -0.42186  -0.41856  -0.41710  -0.41588  -0.41526
 Alpha  occ. eigenvalues --   -0.41085  -0.41070  -0.40330  -0.40169  -0.39878
 Alpha  occ. eigenvalues --   -0.39760  -0.39642  -0.39220  -0.39026  -0.38652
 Alpha  occ. eigenvalues --   -0.38343  -0.38100  -0.37824  -0.37417  -0.37214
 Alpha  occ. eigenvalues --   -0.37177  -0.36933  -0.36855  -0.36578  -0.36382
 Alpha  occ. eigenvalues --   -0.35930  -0.35157  -0.34728  -0.34622  -0.34421
 Alpha  occ. eigenvalues --   -0.34310  -0.33621  -0.33231  -0.31515  -0.31452
 Alpha  occ. eigenvalues --   -0.30650  -0.30313  -0.29977  -0.29648  -0.24074
 Alpha  occ. eigenvalues --   -0.20895
 Alpha virt. eigenvalues --   -0.08172  -0.02251   0.00014   0.02376   0.02917
 Alpha virt. eigenvalues --    0.04067   0.04625   0.05386   0.05527   0.06698
 Alpha virt. eigenvalues --    0.07728   0.08680   0.08869   0.08980   0.09339

 Mulliken charges:
               1
     1  Mg   0.829267
     2  C    0.017564
     3  C   -0.043158
     4  C   -0.045073
     5  C   -0.112947
     6  N   -0.253798
     7  C   -0.017537
     8  C   -0.008110
     9  C   -0.043762
    10  C   -0.035756
    11  C    0.058631
    12  C    0.021985
    13  C    0.089547
    14  C    0.152468
    15  O   -0.239684
    16  O   -0.351440
    17  N   -0.349264
    18  C    0.140230
    19  C   -0.140949
    20  C   -0.022059
    21  C    0.079833
    22  C    0.094662
    23  C   -0.006981
    24  O   -0.196750
    25  C    0.060632
    26  N   -0.250156
    27  C    0.007262
    28  C   -0.071110
    29  C    0.004085
    30  C    0.071375
    31  C    0.074686
    32  C    0.016248
    33  C    0.009977
    34  N   -0.393242
    35  C    0.124276
    36  C   -0.171438
    37  C    0.094266
    38  C    0.105388
    39  C    0.123259
    40  C   -0.008744
    41  O   -0.199592
    42  C   -0.031944
    43  C    0.211774
    44  O   -0.223223
    45  O   -0.336864
    46  C    0.181923
    47  C    0.297054
    48  C   -0.118872
    49  C   -0.175970
    50  C    0.062677
    51  C    0.087302
    52  C    0.010719
    53  C   -0.002375
    54  C   -0.137276
    55  C    0.082996
    56  C    0.062368
    57  C    0.038571
    58  C    0.031289
    59  C   -0.121940
    60  C    0.024616
    61  C    0.090525
    62  C   -0.000087
    63  C   -0.008564
    64  C   -0.136787
    65  C    0.057094
    66  C    0.086392
    67  H   -0.048001
    68  H    0.003046
    69  H   -0.029487
    70  H    0.012374
    71  H    0.010686
    72  H    0.014742
    73  H    0.031250
    74  H    0.027923
    75  H   -0.006391
    76  H    0.059991
    77  H    0.012361
    78  H    0.039253
    79  H    0.034250
    80  H    0.008547
    81  H    0.039030
    82  H    0.049267
    83  H    0.012861
    84  H    0.032365
    85  H    0.024400
    86  H    0.004894
    87  H    0.041247
    88  H    0.009136
    89  H    0.020638
    90  H    0.004082
    91  H   -0.000832
    92  H    0.009451
    93  H    0.016701
    94  H    0.018262
    95  H    0.039713
    96  H    0.048310
    97  H   -0.005861
    98  H    0.064154
    99  H    0.020311
   100  H    0.038161
   101  H    0.033776
   102  H    0.045661
   103  H    0.019069
   104  H    0.003733
   105  H    0.048753
   106  H    0.007672
   107  H    0.012386
   108  H    0.013873
   109  H    0.002619
   110  H   -0.006113
   111  H    0.017008
   112  H   -0.018225
   113  H   -0.010684
   114  H   -0.002547
   115  H    0.011915
   116  H   -0.005137
   117  H    0.000896
   118  H   -0.014758
   119  H   -0.017735
   120  H   -0.002507
   121  H   -0.005640
   122  H   -0.030345
   123  H   -0.016924
   124  H   -0.005717
   125  H    0.010245
   126  H    0.013464
   127  H    0.008427
   128  H    0.005122
   129  H   -0.009716
   130  H   -0.005369
   131  H   -0.009869
   132  H   -0.008997
   133  H   -0.003342
   134  H   -0.000695
   135  H    0.003945
   136  H    0.008801
   137  H    0.015755
   138  H   -0.019487
   139  H   -0.004469
   140  H    0.012829
 Sum of Mulliken charges =  -0.00000

 Dipole moment (field-independent basis, Debye):
    X=             -2.5935    Y=              5.5426    Z=              0.2942  Tot=              6.1264
 Quadrupole moment (field-independent basis, Debye-Ang):
   XX=           -362.4389   YY=           -428.3179   ZZ=           -408.7323
   XY=              5.4107   XZ=             15.7941   YZ=             -0.7894

 Normal termination of Gaussian 16 at Fri Apr 29 15:09:57 2022.
