 Gaussian 16, Revision A.03,
 Gaussian 16:  ES64L-G16RevA.03 25-Dec-2016

 ---------------------------------
 #p PBE1PBE/Def2SVP td=(nstates=5)
 ---------------------------------

 ----------------------------------------------------
 step_351_chromophore_4 TDDFT with PBE1PBE functional
 ----------------------------------------------------
 Symbolic Z-matrix:
 Charge =  0 Multiplicity = 1

                         Standard orientation:
 ---------------------------------------------------------------------
 Center     Atomic      Atomic             Coordinates (Angstroms)
 Number     Number       Type             X           Y           Z
 ---------------------------------------------------------------------
      1         12           0        5.930255    0.486748    0.067760
      2          6           0        3.680357   -2.150052    0.119746
      3          6           0        3.346174    2.641368   -0.511720
      4          6           0        8.193754    2.939663   -0.066215
      5          6           0        8.485516   -1.828925    0.556756
      6          7           0        3.710674    0.257309   -0.339755
      7          6           0        3.023772   -0.914555   -0.145503
      8          6           0        1.495497   -0.676194   -0.343009
      9          6           0        1.460656    0.889482   -0.552497
     10          6           0        2.898293    1.307765   -0.467129
     11          6           0        0.798516    1.379113   -1.925501
     12          6           0        0.567459   -1.250357    0.714491
     13          6           0       -0.921630   -0.889285    0.622745
     14          6           0       -1.835545   -2.067118    0.464754
     15          8           0       -1.811584   -3.072044    1.189462
     16          8           0       -2.699320   -1.859615   -0.614997
     17          7           0        5.783745    2.594239   -0.237226
     18          6           0        4.624942    3.311055   -0.424881
     19          6           0        4.985034    4.717253   -0.497186
     20          6           0        6.372146    4.863458   -0.435921
     21          6           0        6.855201    3.417812   -0.273538
     22          6           0        3.965339    5.826419   -0.710153
     23          6           0        7.274897    6.095177   -0.536104
     24          8           0        8.468643    5.955767   -0.371637
     25          6           0        6.767685    7.497148   -0.806370
     26          7           0        7.979616    0.526242    0.185685
     27          6           0        8.730030    1.591951   -0.013979
     28          6           0       10.254944    1.368468    0.108338
     29          6           0       10.289163   -0.137711    0.469077
     30          6           0        8.781371   -0.494979    0.419042
     31          6           0       10.938291    1.747165   -1.300780
     32          6           0       10.898476   -0.319286    1.833781
     33          6           0       12.426435   -0.066995    1.851409
     34          7           0        6.107756   -1.562604    0.176238
     35          6           0        7.243205   -2.353460    0.497769
     36          6           0        6.789624   -3.747746    0.644693
     37          6           0        5.431059   -3.709930    0.490726
     38          6           0        5.016654   -2.351257    0.277847
     39          6           0        7.568717   -4.913457    0.967323
     40          6           0        4.264606   -4.491963    0.508358
     41          8           0        4.067414   -5.718480    0.631292
     42          6           0        3.049895   -3.508503    0.422967
     43          6           0        2.251186   -4.143490   -0.669840
     44          8           0        2.439667   -4.204919   -1.888276
     45          8           0        1.098442   -4.653410   -0.104061
     46          6           0       -0.042383   -4.838152   -0.980387
     47          6           0       -3.716680   -2.854637   -0.874324
     48          6           0       -4.974123   -2.226428   -0.341482
     49          6           0       -6.130832   -2.907121   -0.061990
     50          6           0       -6.410738   -4.404443   -0.420206
     51          6           0       -7.373730   -2.188498    0.538460
     52          6           0       -8.008650   -1.232778   -0.524695
     53          6           0       -8.162804    0.262354   -0.096168
     54          6           0       -9.372762    1.131332   -0.589404
     55          6           0       -9.628020    1.040819   -2.102632
     56          6           0       -9.357881    2.560727    0.007283
     57          6           0       -9.959814    2.723382    1.409628
     58          6           0      -11.237264    3.539068    1.572489
     59          6           0      -12.534963    2.906279    2.193106
     60          6           0      -13.063942    3.786052    3.383602
     61          6           0      -13.691391    2.586740    1.147990
     62          6           0      -14.128209    1.160143    1.091039
     63          6           0      -13.399784    0.376487   -0.101710
     64          6           0      -14.369086    0.049279   -1.230550
     65          6           0      -15.143760   -1.209390   -0.839293
     66          6           0      -13.558055   -0.189126   -2.533611
     67          1           0        2.468787    3.289653   -0.545238
     68          1           0        8.958839    3.706835   -0.202493
     69          1           0        9.204817   -2.612436    0.802494
     70          1           0        1.081779   -1.107268   -1.254170
     71          1           0        1.016604    1.386415    0.310295
     72          1           0        0.125328    2.207285   -1.703462
     73          1           0        0.266053    0.581289   -2.445160
     74          1           0        1.554049    1.808290   -2.584806
     75          1           0        1.051576   -0.805719    1.583773
     76          1           0        0.637490   -2.336536    0.770949
     77          1           0       -1.156538   -0.238913   -0.218696
     78          1           0       -1.277484   -0.296561    1.465013
     79          1           0        3.977835    6.646957    0.008469
     80          1           0        2.943640    5.446934   -0.738158
     81          1           0        4.227078    6.182276   -1.706943
     82          1           0        6.480108    8.010456    0.111054
     83          1           0        5.943826    7.481746   -1.520317
     84          1           0        7.605233    8.017973   -1.270567
     85          1           0       10.633877    1.920955    0.967781
     86          1           0       10.796766   -0.622055   -0.364926
     87          1           0       10.439951    2.621417   -1.718574
     88          1           0       10.854655    0.885164   -1.962994
     89          1           0       12.009583    1.790392   -1.103636
     90          1           0       10.758287   -1.241850    2.396140
     91          1           0       10.422352    0.378736    2.521849
     92          1           0       12.707669    0.028936    0.802633
     93          1           0       12.953648   -0.887740    2.336048
     94          1           0       12.755276    0.824441    2.386273
     95          1           0        7.146509   -5.686549    0.325536
     96          1           0        7.731886   -5.135032    2.022134
     97          1           0        8.564585   -4.823200    0.533870
     98          1           0        2.570443   -3.559406    1.400951
     99          1           0       -0.455014   -3.939261   -1.436598
    100          1           0       -0.864872   -5.340319   -0.470026
    101          1           0        0.304858   -5.531384   -1.746426
    102          1           0       -3.476852   -3.881976   -0.600963
    103          1           0       -3.718822   -2.793773   -1.962484
    104          1           0       -4.965081   -1.162287   -0.106057
    105          1           0       -6.210991   -5.160100    0.339850
    106          1           0       -5.860623   -4.628713   -1.334786
    107          1           0       -7.446437   -4.450940   -0.755619
    108          1           0       -7.096500   -1.581796    1.400396
    109          1           0       -8.129344   -2.887034    0.898566
    110          1           0       -8.976247   -1.667531   -0.774597
    111          1           0       -7.542299   -1.184032   -1.508040
    112          1           0       -7.343731    0.805506   -0.566546
    113          1           0       -7.906742    0.387514    0.956057
    114          1           0      -10.185155    0.625461   -0.066780
    115          1           0       -9.342171    1.949879   -2.631602
    116          1           0      -10.691577    0.852270   -2.244344
    117          1           0       -9.070038    0.196428   -2.508569
    118          1           0       -9.839878    3.253064   -0.683365
    119          1           0       -8.327866    2.918527   -0.017906
    120          1           0       -9.195669    3.113794    2.081472
    121          1           0      -10.174842    1.711890    1.753769
    122          1           0      -11.568388    3.898929    0.598808
    123          1           0      -10.984533    4.528669    1.953132
    124          1           0      -12.103259    2.060189    2.728830
    125          1           0      -12.202646    4.128827    3.958458
    126          1           0      -13.761851    3.251868    4.028662
    127          1           0      -13.554390    4.638519    2.914807
    128          1           0      -13.383797    2.901654    0.151316
    129          1           0      -14.576346    3.102863    1.520438
    130          1           0      -15.215831    1.091042    1.105202
    131          1           0      -13.789251    0.601772    1.963164
    132          1           0      -12.963301   -0.518394    0.341048
    133          1           0      -12.523483    0.968127   -0.364144
    134          1           0      -15.057609    0.893797   -1.238217
    135          1           0      -16.028968   -0.755895   -0.393641
    136          1           0      -14.635584   -1.754261   -0.042883
    137          1           0      -15.404319   -1.869301   -1.666273
    138          1           0      -12.600558    0.331137   -2.568031
    139          1           0      -14.054842    0.273748   -3.385857
    140          1           0      -13.512426   -1.267763   -2.687128
 ---------------------------------------------------------------------

 SCF Done:  E(RPBE1PBE) =  -3005.35815945     A.U. after   16 cycles

 Excitation energies and oscillator strengths:

 Excited State   1:      Singlet-A      1.8991 eV  652.85 nm  f=0.3800  <S**2>=0.000
     245 -> 248        0.19149
     246 -> 247        0.68730
 This state for optimization and/or second-order correction.
 Total Energy, E(TD-HF/TD-DFT) =  -3005.28836808
 Copying the excited state density for this state as the 1-particle RhoCI density.

 Excited State   2:      Singlet-A      2.2628 eV  547.92 nm  f=0.0620  <S**2>=0.000
     245 -> 247        0.62960
     246 -> 248       -0.31392

 Excited State   3:      Singlet-A      2.9408 eV  421.61 nm  f=0.0015  <S**2>=0.000
     243 -> 247        0.66216
     243 -> 249       -0.20249
     243 -> 250        0.11106

 Excited State   4:      Singlet-A      3.2552 eV  380.88 nm  f=0.2418  <S**2>=0.000
     241 -> 247       -0.23191
     242 -> 247        0.44627
     245 -> 247       -0.20578
     246 -> 248       -0.42864

 Excited State   5:      Singlet-A      3.2725 eV  378.87 nm  f=0.2055  <S**2>=0.000
     240 -> 247       -0.16570
     242 -> 247        0.49236
     245 -> 247        0.17369
     246 -> 248        0.40662
     246 -> 249        0.12605

 The electronic state is 1-A.
 Alpha  occ. eigenvalues --  -46.92253 -19.26197 -19.23813 -19.20576 -19.19310
 Alpha  occ. eigenvalues --  -19.19252 -19.18431 -14.41952 -14.41715 -14.39470
 Alpha  occ. eigenvalues --  -14.38838 -10.36936 -10.35772 -10.32712 -10.31226
 Alpha  occ. eigenvalues --  -10.29811 -10.29460 -10.28709 -10.28516 -10.28377
 Alpha  occ. eigenvalues --  -10.28272 -10.28098 -10.27508 -10.27057 -10.26413
 Alpha  occ. eigenvalues --  -10.26260 -10.26230 -10.26094 -10.25654 -10.25638
 Alpha  occ. eigenvalues --  -10.25525 -10.25440 -10.25373 -10.25280 -10.25237
 Alpha  occ. eigenvalues --  -10.25150 -10.25030 -10.24615 -10.24490 -10.24311
 Alpha  occ. eigenvalues --  -10.24001 -10.23998 -10.23946 -10.23933 -10.23805
 Alpha  occ. eigenvalues --  -10.23775 -10.23768 -10.23658 -10.23591 -10.23548
 Alpha  occ. eigenvalues --  -10.23286 -10.23216 -10.23060 -10.22979 -10.22702
 Alpha  occ. eigenvalues --  -10.22489 -10.22445 -10.22443 -10.22323 -10.22264
 Alpha  occ. eigenvalues --  -10.22083 -10.22057 -10.22008 -10.21996 -10.21814
 Alpha  occ. eigenvalues --  -10.21737  -3.14384  -1.87241  -1.86759  -1.86607
 Alpha  occ. eigenvalues --   -1.10738  -1.09525  -1.05761  -1.02770  -1.02683
 Alpha  occ. eigenvalues --   -1.01021  -1.00728  -0.98931  -0.97579  -0.97195
 Alpha  occ. eigenvalues --   -0.87331  -0.84483  -0.84222  -0.84055  -0.83596
 Alpha  occ. eigenvalues --   -0.82803  -0.82687  -0.82267  -0.81722  -0.81443
 Alpha  occ. eigenvalues --   -0.81149  -0.79857  -0.78522  -0.78003  -0.77458
 Alpha  occ. eigenvalues --   -0.76682  -0.75986  -0.75580  -0.75094  -0.74567
 Alpha  occ. eigenvalues --   -0.74216  -0.72994  -0.72287  -0.71609  -0.70257
 Alpha  occ. eigenvalues --   -0.69878  -0.69681  -0.69605  -0.69160  -0.68258
 Alpha  occ. eigenvalues --   -0.68061  -0.67061  -0.66784  -0.65463  -0.63770
 Alpha  occ. eigenvalues --   -0.63272  -0.63030  -0.61637  -0.61298  -0.60581
 Alpha  occ. eigenvalues --   -0.60267  -0.59670  -0.59524  -0.58624  -0.58130
 Alpha  occ. eigenvalues --   -0.57726  -0.57126  -0.56820  -0.56181  -0.54805
 Alpha  occ. eigenvalues --   -0.54750  -0.54326  -0.53887  -0.53524  -0.52898
 Alpha  occ. eigenvalues --   -0.52504  -0.52065  -0.50977  -0.50452  -0.49986
 Alpha  occ. eigenvalues --   -0.49733  -0.49626  -0.48938  -0.48733  -0.48492
 Alpha  occ. eigenvalues --   -0.48234  -0.47802  -0.47605  -0.47239  -0.46993
 Alpha  occ. eigenvalues --   -0.46947  -0.46772  -0.46340  -0.46296  -0.46270
 Alpha  occ. eigenvalues --   -0.45895  -0.45776  -0.45714  -0.45435  -0.45302
 Alpha  occ. eigenvalues --   -0.45034  -0.44927  -0.44686  -0.44569  -0.44305
 Alpha  occ. eigenvalues --   -0.44132  -0.43786  -0.43680  -0.43628  -0.43556
 Alpha  occ. eigenvalues --   -0.43228  -0.43164  -0.42976  -0.42610  -0.42473
 Alpha  occ. eigenvalues --   -0.42311  -0.42149  -0.41797  -0.41696  -0.41465
 Alpha  occ. eigenvalues --   -0.41274  -0.41055  -0.40817  -0.40661  -0.40537
 Alpha  occ. eigenvalues --   -0.40084  -0.39906  -0.39797  -0.39747  -0.39531
 Alpha  occ. eigenvalues --   -0.39388  -0.39297  -0.39020  -0.38940  -0.38727
 Alpha  occ. eigenvalues --   -0.38658  -0.38385  -0.38336  -0.38131  -0.37737
 Alpha  occ. eigenvalues --   -0.37629  -0.37612  -0.37385  -0.37312  -0.37147
 Alpha  occ. eigenvalues --   -0.36979  -0.36736  -0.36445  -0.36408  -0.36395
 Alpha  occ. eigenvalues --   -0.35924  -0.35817  -0.35100  -0.34949  -0.34748
 Alpha  occ. eigenvalues --   -0.34697  -0.34437  -0.34186  -0.33923  -0.33588
 Alpha  occ. eigenvalues --   -0.33170  -0.32941  -0.32622  -0.32471  -0.32244
 Alpha  occ. eigenvalues --   -0.32071  -0.32039  -0.31707  -0.31393  -0.31365
 Alpha  occ. eigenvalues --   -0.30777  -0.30089  -0.29740  -0.29596  -0.29364
 Alpha  occ. eigenvalues --   -0.29131  -0.29006  -0.28189  -0.27089  -0.26294
 Alpha  occ. eigenvalues --   -0.26170  -0.25623  -0.25148  -0.24941  -0.20998
 Alpha  occ. eigenvalues --   -0.18609
 Alpha virt. eigenvalues --   -0.10761  -0.05668  -0.04178  -0.02021  -0.00490
 Alpha virt. eigenvalues --    0.00143   0.00181   0.00821   0.01502   0.03089
 Alpha virt. eigenvalues --    0.03582   0.04881   0.05335   0.05482   0.05999

 Mulliken charges:
               1
     1  Mg   0.979755
     2  C    0.008446
     3  C   -0.045204
     4  C   -0.035640
     5  C   -0.091180
     6  N   -0.360029
     7  C    0.057248
     8  C   -0.069697
     9  C   -0.123885
    10  C    0.010671
    11  C   -0.000012
    12  C   -0.035883
    13  C    0.014690
    14  C    0.220711
    15  O   -0.271724
    16  O   -0.383382
    17  N   -0.461599
    18  C    0.168544
    19  C   -0.176831
    20  C   -0.069959
    21  C    0.114166
    22  C    0.040292
    23  C    0.041726
    24  O   -0.232517
    25  C   -0.010102
    26  N   -0.365016
    27  C    0.044552
    28  C   -0.147208
    29  C   -0.078177
    30  C    0.101358
    31  C    0.016582
    32  C   -0.039967
    33  C   -0.060148
    34  N   -0.515731
    35  C    0.143178
    36  C   -0.189440
    37  C    0.039954
    38  C    0.155395
    39  C    0.073180
    40  C    0.087290
    41  O   -0.243833
    42  C   -0.149007
    43  C    0.303117
    44  O   -0.259717
    45  O   -0.369086
    46  C    0.125064
    47  C    0.252636
    48  C   -0.128225
    49  C   -0.217622
    50  C   -0.001480
    51  C    0.024072
    52  C   -0.049183
    53  C   -0.052756
    54  C   -0.230919
    55  C    0.004453
    56  C    0.012330
    57  C   -0.028998
    58  C   -0.013752
    59  C   -0.203765
    60  C   -0.039456
    61  C    0.028245
    62  C   -0.056181
    63  C   -0.070558
    64  C   -0.231474
    65  C   -0.001013
    66  C    0.011463
    67  H   -0.012964
    68  H    0.033966
    69  H    0.001698
    70  H    0.051081
    71  H    0.047884
    72  H    0.041744
    73  H    0.056941
    74  H    0.055789
    75  H    0.028111
    76  H    0.098511
    77  H    0.046683
    78  H    0.070538
    79  H    0.061329
    80  H    0.036680
    81  H    0.066733
    82  H    0.075331
    83  H    0.039370
    84  H    0.059272
    85  H    0.060358
    86  H    0.041506
    87  H    0.068739
    88  H    0.037133
    89  H    0.049134
    90  H    0.036202
    91  H    0.032833
    92  H    0.038485
    93  H    0.044564
    94  H    0.045399
    95  H    0.067013
    96  H    0.074596
    97  H    0.021937
    98  H    0.098795
    99  H    0.044262
   100  H    0.059956
   101  H    0.056213
   102  H    0.070031
   103  H    0.047524
   104  H    0.033829
   105  H    0.074977
   106  H    0.035342
   107  H    0.040421
   108  H    0.046253
   109  H    0.034311
   110  H    0.026722
   111  H    0.047707
   112  H    0.016507
   113  H    0.020806
   114  H    0.039679
   115  H    0.039065
   116  H    0.036015
   117  H    0.030098
   118  H    0.017423
   119  H    0.014902
   120  H    0.030120
   121  H    0.026695
   122  H    0.002596
   123  H    0.014587
   124  H    0.032137
   125  H    0.038498
   126  H    0.041852
   127  H    0.036780
   128  H    0.035905
   129  H    0.023694
   130  H    0.025495
   131  H    0.023460
   132  H    0.023080
   133  H    0.036803
   134  H    0.037115
   135  H    0.031863
   136  H    0.035768
   137  H    0.042899
   138  H    0.019592
   139  H    0.024942
   140  H    0.039924
 Sum of Mulliken charges =  -0.00000

 Dipole moment (field-independent basis, Debye):
    X=             -2.5440    Y=              5.5684    Z=              0.2772  Tot=              6.1283
 Quadrupole moment (field-independent basis, Debye-Ang):
   XX=           -356.1240   YY=           -425.8511   ZZ=           -406.3361
   XY=              4.8464   XZ=             16.1307   YZ=             -0.8322

 Normal termination of Gaussian 16 at Fri Apr 29 15:34:12 2022.
