 Gaussian 16, Revision A.03,
 Gaussian 16:  ES64L-G16RevA.03 25-Dec-2016

 --------------------------------
 #p wB97XD/Def2SVP td=(nstates=5)
 --------------------------------

 ---------------------------------------------------
 step_351_chromophore_4 TDDFT with wB97XD functional
 ---------------------------------------------------
 Symbolic Z-matrix:
 Charge =  0 Multiplicity = 1

                         Standard orientation:
 ---------------------------------------------------------------------
 Center     Atomic      Atomic             Coordinates (Angstroms)
 Number     Number       Type             X           Y           Z
 ---------------------------------------------------------------------
      1         12           0        5.930255    0.486748    0.067760
      2          6           0        3.680357   -2.150052    0.119746
      3          6           0        3.346174    2.641368   -0.511720
      4          6           0        8.193754    2.939663   -0.066215
      5          6           0        8.485516   -1.828925    0.556756
      6          7           0        3.710674    0.257309   -0.339755
      7          6           0        3.023772   -0.914555   -0.145503
      8          6           0        1.495497   -0.676194   -0.343009
      9          6           0        1.460656    0.889482   -0.552497
     10          6           0        2.898293    1.307765   -0.467129
     11          6           0        0.798516    1.379113   -1.925501
     12          6           0        0.567459   -1.250357    0.714491
     13          6           0       -0.921630   -0.889285    0.622745
     14          6           0       -1.835545   -2.067118    0.464754
     15          8           0       -1.811584   -3.072044    1.189462
     16          8           0       -2.699320   -1.859615   -0.614997
     17          7           0        5.783745    2.594239   -0.237226
     18          6           0        4.624942    3.311055   -0.424881
     19          6           0        4.985034    4.717253   -0.497186
     20          6           0        6.372146    4.863458   -0.435921
     21          6           0        6.855201    3.417812   -0.273538
     22          6           0        3.965339    5.826419   -0.710153
     23          6           0        7.274897    6.095177   -0.536104
     24          8           0        8.468643    5.955767   -0.371637
     25          6           0        6.767685    7.497148   -0.806370
     26          7           0        7.979616    0.526242    0.185685
     27          6           0        8.730030    1.591951   -0.013979
     28          6           0       10.254944    1.368468    0.108338
     29          6           0       10.289163   -0.137711    0.469077
     30          6           0        8.781371   -0.494979    0.419042
     31          6           0       10.938291    1.747165   -1.300780
     32          6           0       10.898476   -0.319286    1.833781
     33          6           0       12.426435   -0.066995    1.851409
     34          7           0        6.107756   -1.562604    0.176238
     35          6           0        7.243205   -2.353460    0.497769
     36          6           0        6.789624   -3.747746    0.644693
     37          6           0        5.431059   -3.709930    0.490726
     38          6           0        5.016654   -2.351257    0.277847
     39          6           0        7.568717   -4.913457    0.967323
     40          6           0        4.264606   -4.491963    0.508358
     41          8           0        4.067414   -5.718480    0.631292
     42          6           0        3.049895   -3.508503    0.422967
     43          6           0        2.251186   -4.143490   -0.669840
     44          8           0        2.439667   -4.204919   -1.888276
     45          8           0        1.098442   -4.653410   -0.104061
     46          6           0       -0.042383   -4.838152   -0.980387
     47          6           0       -3.716680   -2.854637   -0.874324
     48          6           0       -4.974123   -2.226428   -0.341482
     49          6           0       -6.130832   -2.907121   -0.061990
     50          6           0       -6.410738   -4.404443   -0.420206
     51          6           0       -7.373730   -2.188498    0.538460
     52          6           0       -8.008650   -1.232778   -0.524695
     53          6           0       -8.162804    0.262354   -0.096168
     54          6           0       -9.372762    1.131332   -0.589404
     55          6           0       -9.628020    1.040819   -2.102632
     56          6           0       -9.357881    2.560727    0.007283
     57          6           0       -9.959814    2.723382    1.409628
     58          6           0      -11.237264    3.539068    1.572489
     59          6           0      -12.534963    2.906279    2.193106
     60          6           0      -13.063942    3.786052    3.383602
     61          6           0      -13.691391    2.586740    1.147990
     62          6           0      -14.128209    1.160143    1.091039
     63          6           0      -13.399784    0.376487   -0.101710
     64          6           0      -14.369086    0.049279   -1.230550
     65          6           0      -15.143760   -1.209390   -0.839293
     66          6           0      -13.558055   -0.189126   -2.533611
     67          1           0        2.468787    3.289653   -0.545238
     68          1           0        8.958839    3.706835   -0.202493
     69          1           0        9.204817   -2.612436    0.802494
     70          1           0        1.081779   -1.107268   -1.254170
     71          1           0        1.016604    1.386415    0.310295
     72          1           0        0.125328    2.207285   -1.703462
     73          1           0        0.266053    0.581289   -2.445160
     74          1           0        1.554049    1.808290   -2.584806
     75          1           0        1.051576   -0.805719    1.583773
     76          1           0        0.637490   -2.336536    0.770949
     77          1           0       -1.156538   -0.238913   -0.218696
     78          1           0       -1.277484   -0.296561    1.465013
     79          1           0        3.977835    6.646957    0.008469
     80          1           0        2.943640    5.446934   -0.738158
     81          1           0        4.227078    6.182276   -1.706943
     82          1           0        6.480108    8.010456    0.111054
     83          1           0        5.943826    7.481746   -1.520317
     84          1           0        7.605233    8.017973   -1.270567
     85          1           0       10.633877    1.920955    0.967781
     86          1           0       10.796766   -0.622055   -0.364926
     87          1           0       10.439951    2.621417   -1.718574
     88          1           0       10.854655    0.885164   -1.962994
     89          1           0       12.009583    1.790392   -1.103636
     90          1           0       10.758287   -1.241850    2.396140
     91          1           0       10.422352    0.378736    2.521849
     92          1           0       12.707669    0.028936    0.802633
     93          1           0       12.953648   -0.887740    2.336048
     94          1           0       12.755276    0.824441    2.386273
     95          1           0        7.146509   -5.686549    0.325536
     96          1           0        7.731886   -5.135032    2.022134
     97          1           0        8.564585   -4.823200    0.533870
     98          1           0        2.570443   -3.559406    1.400951
     99          1           0       -0.455014   -3.939261   -1.436598
    100          1           0       -0.864872   -5.340319   -0.470026
    101          1           0        0.304858   -5.531384   -1.746426
    102          1           0       -3.476852   -3.881976   -0.600963
    103          1           0       -3.718822   -2.793773   -1.962484
    104          1           0       -4.965081   -1.162287   -0.106057
    105          1           0       -6.210991   -5.160100    0.339850
    106          1           0       -5.860623   -4.628713   -1.334786
    107          1           0       -7.446437   -4.450940   -0.755619
    108          1           0       -7.096500   -1.581796    1.400396
    109          1           0       -8.129344   -2.887034    0.898566
    110          1           0       -8.976247   -1.667531   -0.774597
    111          1           0       -7.542299   -1.184032   -1.508040
    112          1           0       -7.343731    0.805506   -0.566546
    113          1           0       -7.906742    0.387514    0.956057
    114          1           0      -10.185155    0.625461   -0.066780
    115          1           0       -9.342171    1.949879   -2.631602
    116          1           0      -10.691577    0.852270   -2.244344
    117          1           0       -9.070038    0.196428   -2.508569
    118          1           0       -9.839878    3.253064   -0.683365
    119          1           0       -8.327866    2.918527   -0.017906
    120          1           0       -9.195669    3.113794    2.081472
    121          1           0      -10.174842    1.711890    1.753769
    122          1           0      -11.568388    3.898929    0.598808
    123          1           0      -10.984533    4.528669    1.953132
    124          1           0      -12.103259    2.060189    2.728830
    125          1           0      -12.202646    4.128827    3.958458
    126          1           0      -13.761851    3.251868    4.028662
    127          1           0      -13.554390    4.638519    2.914807
    128          1           0      -13.383797    2.901654    0.151316
    129          1           0      -14.576346    3.102863    1.520438
    130          1           0      -15.215831    1.091042    1.105202
    131          1           0      -13.789251    0.601772    1.963164
    132          1           0      -12.963301   -0.518394    0.341048
    133          1           0      -12.523483    0.968127   -0.364144
    134          1           0      -15.057609    0.893797   -1.238217
    135          1           0      -16.028968   -0.755895   -0.393641
    136          1           0      -14.635584   -1.754261   -0.042883
    137          1           0      -15.404319   -1.869301   -1.666273
    138          1           0      -12.600558    0.331137   -2.568031
    139          1           0      -14.054842    0.273748   -3.385857
    140          1           0      -13.512426   -1.267763   -2.687128
 ---------------------------------------------------------------------

 SCF Done:  E(RwB97XD) =  -3007.86998301     A.U. after   19 cycles

 Excitation energies and oscillator strengths:

 Excited State   1:      Singlet-A      1.6911 eV  733.15 nm  f=0.3841  <S**2>=0.000
     245 -> 248        0.20584
     246 -> 247        0.67802
     245 <- 248        0.12001
 This state for optimization and/or second-order correction.
 Total Energy, E(TD-HF/TD-DFT) =  -3007.80783534
 Copying the excited state density for this state as the 1-particle RhoCI density.

 Excited State   2:      Singlet-A      2.2074 eV  561.67 nm  f=0.0500  <S**2>=0.000
     245 -> 247        0.60726
     246 -> 248       -0.35372

 Excited State   3:      Singlet-A      3.4204 eV  362.48 nm  f=0.2113  <S**2>=0.000
     241 -> 247        0.17703
     242 -> 247        0.43756
     242 -> 249       -0.30216
     242 -> 250        0.18535
     245 -> 247        0.17362
     246 -> 248        0.30879

 Excited State   4:      Singlet-A      3.4397 eV  360.45 nm  f=0.5360  <S**2>=0.000
     242 -> 247       -0.30900
     242 -> 249        0.17533
     242 -> 250       -0.11397
     245 -> 247        0.28417
     246 -> 248        0.51012

 Excited State   5:      Singlet-A      3.6546 eV  339.26 nm  f=0.0027  <S**2>=0.000
     243 -> 247        0.68370

 The electronic state is 1-A.
 Alpha  occ. eigenvalues --  -46.95194 -19.30733 -19.28413 -19.25284 -19.24134
 Alpha  occ. eigenvalues --  -19.24012 -19.23296 -14.47051 -14.46780 -14.44415
 Alpha  occ. eigenvalues --  -14.43773 -10.43758 -10.42636 -10.39549 -10.38148
 Alpha  occ. eigenvalues --  -10.36298 -10.35764 -10.34945 -10.34798 -10.34691
 Alpha  occ. eigenvalues --  -10.34589 -10.34325 -10.34083 -10.33356 -10.32886
 Alpha  occ. eigenvalues --  -10.32573 -10.32482 -10.32347 -10.31979 -10.31915
 Alpha  occ. eigenvalues --  -10.31911 -10.31850 -10.31813 -10.31722 -10.31598
 Alpha  occ. eigenvalues --  -10.31409 -10.31337 -10.31134 -10.30892 -10.30682
 Alpha  occ. eigenvalues --  -10.30377 -10.30368 -10.30365 -10.30270 -10.30254
 Alpha  occ. eigenvalues --  -10.30227 -10.30036 -10.30033 -10.29967 -10.29872
 Alpha  occ. eigenvalues --  -10.29655 -10.29554 -10.29494 -10.29346 -10.29062
 Alpha  occ. eigenvalues --  -10.28851 -10.28817 -10.28808 -10.28704 -10.28698
 Alpha  occ. eigenvalues --  -10.28441 -10.28431 -10.28415 -10.28361 -10.28235
 Alpha  occ. eigenvalues --  -10.28164  -3.21177  -1.94783  -1.94302  -1.94150
 Alpha  occ. eigenvalues --   -1.18130  -1.16968  -1.13244  -1.10244  -1.10140
 Alpha  occ. eigenvalues --   -1.08348  -1.08146  -1.06309  -1.04939  -1.04563
 Alpha  occ. eigenvalues --   -0.94968  -0.92137  -0.91766  -0.91723  -0.91265
 Alpha  occ. eigenvalues --   -0.90462  -0.90298  -0.89892  -0.89337  -0.89105
 Alpha  occ. eigenvalues --   -0.88793  -0.87489  -0.86161  -0.85621  -0.85078
 Alpha  occ. eigenvalues --   -0.84324  -0.83691  -0.83318  -0.82751  -0.82167
 Alpha  occ. eigenvalues --   -0.81882  -0.80645  -0.79944  -0.79211  -0.77874
 Alpha  occ. eigenvalues --   -0.77571  -0.77369  -0.77213  -0.76828  -0.75926
 Alpha  occ. eigenvalues --   -0.75666  -0.74609  -0.74327  -0.73031  -0.71320
 Alpha  occ. eigenvalues --   -0.70903  -0.70594  -0.69174  -0.68928  -0.68068
 Alpha  occ. eigenvalues --   -0.67744  -0.67291  -0.67016  -0.66051  -0.65811
 Alpha  occ. eigenvalues --   -0.65222  -0.64758  -0.64468  -0.63636  -0.62299
 Alpha  occ. eigenvalues --   -0.62197  -0.61795  -0.61265  -0.60891  -0.60373
 Alpha  occ. eigenvalues --   -0.59888  -0.59670  -0.58375  -0.57868  -0.57413
 Alpha  occ. eigenvalues --   -0.57129  -0.57012  -0.56387  -0.56149  -0.55892
 Alpha  occ. eigenvalues --   -0.55606  -0.55222  -0.54945  -0.54613  -0.54584
 Alpha  occ. eigenvalues --   -0.54360  -0.54068  -0.53807  -0.53682  -0.53638
 Alpha  occ. eigenvalues --   -0.53242  -0.53142  -0.53047  -0.52793  -0.52579
 Alpha  occ. eigenvalues --   -0.52385  -0.52323  -0.52016  -0.51878  -0.51680
 Alpha  occ. eigenvalues --   -0.51457  -0.51134  -0.50978  -0.50922  -0.50873
 Alpha  occ. eigenvalues --   -0.50550  -0.50465  -0.50357  -0.49887  -0.49753
 Alpha  occ. eigenvalues --   -0.49566  -0.49404  -0.49076  -0.48999  -0.48717
 Alpha  occ. eigenvalues --   -0.48525  -0.48352  -0.48008  -0.47833  -0.47694
 Alpha  occ. eigenvalues --   -0.47260  -0.47067  -0.46966  -0.46938  -0.46696
 Alpha  occ. eigenvalues --   -0.46598  -0.46457  -0.46136  -0.46033  -0.45907
 Alpha  occ. eigenvalues --   -0.45829  -0.45573  -0.45514  -0.45202  -0.44956
 Alpha  occ. eigenvalues --   -0.44788  -0.44627  -0.44569  -0.44416  -0.44206
 Alpha  occ. eigenvalues --   -0.44062  -0.43790  -0.43592  -0.43543  -0.43399
 Alpha  occ. eigenvalues --   -0.42943  -0.42914  -0.42204  -0.42031  -0.41748
 Alpha  occ. eigenvalues --   -0.41689  -0.41606  -0.41109  -0.40986  -0.40538
 Alpha  occ. eigenvalues --   -0.40181  -0.39963  -0.39662  -0.39389  -0.39161
 Alpha  occ. eigenvalues --   -0.39048  -0.38993  -0.38694  -0.38409  -0.38347
 Alpha  occ. eigenvalues --   -0.37774  -0.37150  -0.36615  -0.36574  -0.36260
 Alpha  occ. eigenvalues --   -0.36240  -0.35760  -0.35314  -0.33692  -0.33423
 Alpha  occ. eigenvalues --   -0.32809  -0.32319  -0.32173  -0.31684  -0.26013
 Alpha  occ. eigenvalues --   -0.22701
 Alpha virt. eigenvalues --   -0.06526  -0.00349   0.02073   0.04468   0.06007
 Alpha virt. eigenvalues --    0.06333   0.06855   0.07617   0.08061   0.09376
 Alpha virt. eigenvalues --    0.10298   0.11710   0.12068   0.12101   0.12634

 Mulliken charges:
               1
     1  Mg   0.969744
     2  C    0.002507
     3  C   -0.059635
     4  C   -0.051791
     5  C   -0.113452
     6  N   -0.324767
     7  C    0.022100
     8  C   -0.043268
     9  C   -0.100841
    10  C   -0.002664
    11  C    0.011359
    12  C   -0.013123
    13  C    0.030299
    14  C    0.205902
    15  O   -0.266469
    16  O   -0.380588
    17  N   -0.429636
    18  C    0.158488
    19  C   -0.161975
    20  C   -0.064926
    21  C    0.103413
    22  C    0.050252
    23  C    0.038156
    24  O   -0.227654
    25  C    0.000283
    26  N   -0.327873
    27  C    0.031373
    28  C   -0.124033
    29  C   -0.047544
    30  C    0.088696
    31  C    0.029235
    32  C   -0.028919
    33  C   -0.044138
    34  N   -0.480398
    35  C    0.136883
    36  C   -0.183474
    37  C    0.045169
    38  C    0.140536
    39  C    0.080205
    40  C    0.070277
    41  O   -0.234136
    42  C   -0.106087
    43  C    0.278438
    44  O   -0.252882
    45  O   -0.366285
    46  C    0.139809
    47  C    0.264595
    48  C   -0.138664
    49  C   -0.204032
    50  C    0.012863
    51  C    0.041004
    52  C   -0.035983
    53  C   -0.034205
    54  C   -0.191931
    55  C    0.030724
    56  C    0.022983
    57  C   -0.007353
    58  C   -0.002686
    59  C   -0.178014
    60  C   -0.023537
    61  C    0.048799
    62  C   -0.044409
    63  C   -0.037539
    64  C   -0.199793
    65  C    0.008356
    66  C    0.030353
    67  H   -0.022784
    68  H    0.028145
    69  H   -0.004203
    70  H    0.037309
    71  H    0.037127
    72  H    0.036300
    73  H    0.051978
    74  H    0.049715
    75  H    0.019218
    76  H    0.076578
    77  H    0.037798
    78  H    0.066579
    79  H    0.057194
    80  H    0.032569
    81  H    0.059813
    82  H    0.072446
    83  H    0.033439
    84  H    0.057756
    85  H    0.049919
    86  H    0.030129
    87  H    0.062607
    88  H    0.030539
    89  H    0.042913
    90  H    0.028975
    91  H    0.023581
    92  H    0.028870
    93  H    0.039617
    94  H    0.039921
    95  H    0.063397
    96  H    0.072011
    97  H    0.016170
    98  H    0.094345
    99  H    0.037953
   100  H    0.057790
   101  H    0.053019
   102  H    0.066273
   103  H    0.043250
   104  H    0.030544
   105  H    0.071222
   106  H    0.028929
   107  H    0.033960
   108  H    0.038004
   109  H    0.028783
   110  H    0.018523
   111  H    0.037531
   112  H    0.003846
   113  H    0.011078
   114  H    0.018472
   115  H    0.033848
   116  H    0.017960
   117  H    0.022495
   118  H    0.008107
   119  H    0.006691
   120  H    0.024056
   121  H    0.012912
   122  H   -0.010033
   123  H    0.007982
   124  H    0.018085
   125  H    0.032224
   126  H    0.036279
   127  H    0.028949
   128  H    0.025878
   129  H    0.015501
   130  H    0.017927
   131  H    0.014550
   132  H    0.012964
   133  H    0.007978
   134  H    0.025432
   135  H    0.025062
   136  H    0.029199
   137  H    0.038039
   138  H    0.007411
   139  H    0.019652
   140  H    0.033607
 Sum of Mulliken charges =  -0.00000

 Dipole moment (field-independent basis, Debye):
    X=             -2.6172    Y=              5.6273    Z=              0.2822  Tot=              6.2126
 Quadrupole moment (field-independent basis, Debye-Ang):
   XX=           -357.2026   YY=           -423.6088   ZZ=           -406.0135
   XY=              5.5280   XZ=             16.0811   YZ=             -0.9464

 Normal termination of Gaussian 16 at Fri Apr 29 16:03:00 2022.
