 Gaussian 16, Revision A.03,
 Gaussian 16:  ES64L-G16RevA.03 25-Dec-2016

 --------------------
 #p ZINDO=(nstates=5)
 --------------------

 ----------------------------
 step_351_chromophore_4 ZINDO
 ----------------------------
 Symbolic Z-matrix:
 Charge =  0 Multiplicity = 1

                         Standard orientation:
 ---------------------------------------------------------------------
 Center     Atomic      Atomic             Coordinates (Angstroms)
 Number     Number       Type             X           Y           Z
 ---------------------------------------------------------------------
      1         12           0        5.930255    0.486748    0.067760
      2          6           0        3.680357   -2.150052    0.119746
      3          6           0        3.346174    2.641368   -0.511720
      4          6           0        8.193754    2.939663   -0.066215
      5          6           0        8.485516   -1.828925    0.556756
      6          7           0        3.710674    0.257309   -0.339755
      7          6           0        3.023772   -0.914555   -0.145503
      8          6           0        1.495497   -0.676194   -0.343009
      9          6           0        1.460656    0.889482   -0.552497
     10          6           0        2.898293    1.307765   -0.467129
     11          6           0        0.798516    1.379113   -1.925501
     12          6           0        0.567459   -1.250357    0.714491
     13          6           0       -0.921630   -0.889285    0.622745
     14          6           0       -1.835545   -2.067118    0.464754
     15          8           0       -1.811584   -3.072044    1.189462
     16          8           0       -2.699320   -1.859615   -0.614997
     17          7           0        5.783745    2.594239   -0.237226
     18          6           0        4.624942    3.311055   -0.424881
     19          6           0        4.985034    4.717253   -0.497186
     20          6           0        6.372146    4.863458   -0.435921
     21          6           0        6.855201    3.417812   -0.273538
     22          6           0        3.965339    5.826419   -0.710153
     23          6           0        7.274897    6.095177   -0.536104
     24          8           0        8.468643    5.955767   -0.371637
     25          6           0        6.767685    7.497148   -0.806370
     26          7           0        7.979616    0.526242    0.185685
     27          6           0        8.730030    1.591951   -0.013979
     28          6           0       10.254944    1.368468    0.108338
     29          6           0       10.289163   -0.137711    0.469077
     30          6           0        8.781371   -0.494979    0.419042
     31          6           0       10.938291    1.747165   -1.300780
     32          6           0       10.898476   -0.319286    1.833781
     33          6           0       12.426435   -0.066995    1.851409
     34          7           0        6.107756   -1.562604    0.176238
     35          6           0        7.243205   -2.353460    0.497769
     36          6           0        6.789624   -3.747746    0.644693
     37          6           0        5.431059   -3.709930    0.490726
     38          6           0        5.016654   -2.351257    0.277847
     39          6           0        7.568717   -4.913457    0.967323
     40          6           0        4.264606   -4.491963    0.508358
     41          8           0        4.067414   -5.718480    0.631292
     42          6           0        3.049895   -3.508503    0.422967
     43          6           0        2.251186   -4.143490   -0.669840
     44          8           0        2.439667   -4.204919   -1.888276
     45          8           0        1.098442   -4.653410   -0.104061
     46          6           0       -0.042383   -4.838152   -0.980387
     47          6           0       -3.716680   -2.854637   -0.874324
     48          6           0       -4.974123   -2.226428   -0.341482
     49          6           0       -6.130832   -2.907121   -0.061990
     50          6           0       -6.410738   -4.404443   -0.420206
     51          6           0       -7.373730   -2.188498    0.538460
     52          6           0       -8.008650   -1.232778   -0.524695
     53          6           0       -8.162804    0.262354   -0.096168
     54          6           0       -9.372762    1.131332   -0.589404
     55          6           0       -9.628020    1.040819   -2.102632
     56          6           0       -9.357881    2.560727    0.007283
     57          6           0       -9.959814    2.723382    1.409628
     58          6           0      -11.237264    3.539068    1.572489
     59          6           0      -12.534963    2.906279    2.193106
     60          6           0      -13.063942    3.786052    3.383602
     61          6           0      -13.691391    2.586740    1.147990
     62          6           0      -14.128209    1.160143    1.091039
     63          6           0      -13.399784    0.376487   -0.101710
     64          6           0      -14.369086    0.049279   -1.230550
     65          6           0      -15.143760   -1.209390   -0.839293
     66          6           0      -13.558055   -0.189126   -2.533611
     67          1           0        2.468787    3.289653   -0.545238
     68          1           0        8.958839    3.706835   -0.202493
     69          1           0        9.204817   -2.612436    0.802494
     70          1           0        1.081779   -1.107268   -1.254170
     71          1           0        1.016604    1.386415    0.310295
     72          1           0        0.125328    2.207285   -1.703462
     73          1           0        0.266053    0.581289   -2.445160
     74          1           0        1.554049    1.808290   -2.584806
     75          1           0        1.051576   -0.805719    1.583773
     76          1           0        0.637490   -2.336536    0.770949
     77          1           0       -1.156538   -0.238913   -0.218696
     78          1           0       -1.277484   -0.296561    1.465013
     79          1           0        3.977835    6.646957    0.008469
     80          1           0        2.943640    5.446934   -0.738158
     81          1           0        4.227078    6.182276   -1.706943
     82          1           0        6.480108    8.010456    0.111054
     83          1           0        5.943826    7.481746   -1.520317
     84          1           0        7.605233    8.017973   -1.270567
     85          1           0       10.633877    1.920955    0.967781
     86          1           0       10.796766   -0.622055   -0.364926
     87          1           0       10.439951    2.621417   -1.718574
     88          1           0       10.854655    0.885164   -1.962994
     89          1           0       12.009583    1.790392   -1.103636
     90          1           0       10.758287   -1.241850    2.396140
     91          1           0       10.422352    0.378736    2.521849
     92          1           0       12.707669    0.028936    0.802633
     93          1           0       12.953648   -0.887740    2.336048
     94          1           0       12.755276    0.824441    2.386273
     95          1           0        7.146509   -5.686549    0.325536
     96          1           0        7.731886   -5.135032    2.022134
     97          1           0        8.564585   -4.823200    0.533870
     98          1           0        2.570443   -3.559406    1.400951
     99          1           0       -0.455014   -3.939261   -1.436598
    100          1           0       -0.864872   -5.340319   -0.470026
    101          1           0        0.304858   -5.531384   -1.746426
    102          1           0       -3.476852   -3.881976   -0.600963
    103          1           0       -3.718822   -2.793773   -1.962484
    104          1           0       -4.965081   -1.162287   -0.106057
    105          1           0       -6.210991   -5.160100    0.339850
    106          1           0       -5.860623   -4.628713   -1.334786
    107          1           0       -7.446437   -4.450940   -0.755619
    108          1           0       -7.096500   -1.581796    1.400396
    109          1           0       -8.129344   -2.887034    0.898566
    110          1           0       -8.976247   -1.667531   -0.774597
    111          1           0       -7.542299   -1.184032   -1.508040
    112          1           0       -7.343731    0.805506   -0.566546
    113          1           0       -7.906742    0.387514    0.956057
    114          1           0      -10.185155    0.625461   -0.066780
    115          1           0       -9.342171    1.949879   -2.631602
    116          1           0      -10.691577    0.852270   -2.244344
    117          1           0       -9.070038    0.196428   -2.508569
    118          1           0       -9.839878    3.253064   -0.683365
    119          1           0       -8.327866    2.918527   -0.017906
    120          1           0       -9.195669    3.113794    2.081472
    121          1           0      -10.174842    1.711890    1.753769
    122          1           0      -11.568388    3.898929    0.598808
    123          1           0      -10.984533    4.528669    1.953132
    124          1           0      -12.103259    2.060189    2.728830
    125          1           0      -12.202646    4.128827    3.958458
    126          1           0      -13.761851    3.251868    4.028662
    127          1           0      -13.554390    4.638519    2.914807
    128          1           0      -13.383797    2.901654    0.151316
    129          1           0      -14.576346    3.102863    1.520438
    130          1           0      -15.215831    1.091042    1.105202
    131          1           0      -13.789251    0.601772    1.963164
    132          1           0      -12.963301   -0.518394    0.341048
    133          1           0      -12.523483    0.968127   -0.364144
    134          1           0      -15.057609    0.893797   -1.238217
    135          1           0      -16.028968   -0.755895   -0.393641
    136          1           0      -14.635584   -1.754261   -0.042883
    137          1           0      -15.404319   -1.869301   -1.666273
    138          1           0      -12.600558    0.331137   -2.568031
    139          1           0      -14.054842    0.273748   -3.385857
    140          1           0      -13.512426   -1.267763   -2.687128
 ---------------------------------------------------------------------

 SCF Done:  E(RZINDO/S) =  -474.365272950     A.U. after   20 cycles

 Excitation energies and oscillator strengths:

 Excited State   1:      Singlet-A      1.2789 eV  969.48 nm  f=0.5841  <S**2>=0.000
     175 ->178        -0.21076
     176 ->177         0.65797
 This state for optimization and/or second-order correction.
 Total Energy, E(CIS/TDA) =  -474.318275363
 Copying the excited state density for this state as the 1-particle RhoCI density.

 Excited State   2:      Singlet-A      1.9107 eV  648.90 nm  f=0.0010  <S**2>=0.000
     175 ->177         0.47880
     176 ->178         0.50188

 Excited State   3:      Singlet-A      2.8681 eV  432.28 nm  f=0.0029  <S**2>=0.000
     170 ->177         0.34066
     170 ->178        -0.12098
     170 ->179        -0.41337
     170 ->180         0.18801
     170 ->181         0.18166
     170 ->186        -0.17666
     170 ->188        -0.14238
     170 ->201         0.10954

 Excited State   4:      Singlet-A      2.9070 eV  426.50 nm  f=0.1198  <S**2>=0.000
     175 ->177        -0.16716
     176 ->178         0.20131
     176 ->179         0.61873

 Excited State   5:      Singlet-A      3.0017 eV  413.05 nm  f=0.0082  <S**2>=0.000
     168 ->177         0.28802
     168 ->179         0.32713
     168 ->180         0.32999
     168 ->181         0.24982
     168 ->186         0.23607
     168 ->188        -0.12721
     168 ->195        -0.12056

 The electronic state is 1-A.
 Alpha  occ. eigenvalues --   -1.85829  -1.82937  -1.79446  -1.73070  -1.72309
 Alpha  occ. eigenvalues --   -1.70755  -1.64923  -1.59950  -1.59818  -1.58716
 Alpha  occ. eigenvalues --   -1.54472  -1.52447  -1.49733  -1.48233  -1.47254
 Alpha  occ. eigenvalues --   -1.44414  -1.42572  -1.40379  -1.38328  -1.37803
 Alpha  occ. eigenvalues --   -1.35674  -1.35249  -1.32188  -1.30279  -1.29001
 Alpha  occ. eigenvalues --   -1.27625  -1.24543  -1.21995  -1.21229  -1.18808
 Alpha  occ. eigenvalues --   -1.17226  -1.16653  -1.15140  -1.13853  -1.13543
 Alpha  occ. eigenvalues --   -1.11649  -1.10276  -1.09815  -1.04962  -1.03387
 Alpha  occ. eigenvalues --   -1.03154  -1.01201  -0.99578  -0.98626  -0.96742
 Alpha  occ. eigenvalues --   -0.95467  -0.95018  -0.94109  -0.92926  -0.91938
 Alpha  occ. eigenvalues --   -0.91266  -0.91084  -0.88320  -0.87995  -0.87667
 Alpha  occ. eigenvalues --   -0.87125  -0.84368  -0.83205  -0.82935  -0.80777
 Alpha  occ. eigenvalues --   -0.80508  -0.79459  -0.77913  -0.77691  -0.76760
 Alpha  occ. eigenvalues --   -0.75573  -0.75083  -0.74485  -0.73662  -0.73480
 Alpha  occ. eigenvalues --   -0.73220  -0.72292  -0.71252  -0.70614  -0.70358
 Alpha  occ. eigenvalues --   -0.70046  -0.69474  -0.69049  -0.67501  -0.67458
 Alpha  occ. eigenvalues --   -0.67287  -0.66760  -0.66195  -0.66004  -0.65165
 Alpha  occ. eigenvalues --   -0.65102  -0.64823  -0.64138  -0.64002  -0.63872
 Alpha  occ. eigenvalues --   -0.63386  -0.62677  -0.62090  -0.62050  -0.61776
 Alpha  occ. eigenvalues --   -0.61517  -0.61506  -0.61106  -0.60405  -0.60075
 Alpha  occ. eigenvalues --   -0.59742  -0.59410  -0.58849  -0.58494  -0.57979
 Alpha  occ. eigenvalues --   -0.57615  -0.57478  -0.56925  -0.56766  -0.56526
 Alpha  occ. eigenvalues --   -0.56078  -0.56018  -0.55756  -0.55672  -0.55427
 Alpha  occ. eigenvalues --   -0.54964  -0.54302  -0.53688  -0.53044  -0.52692
 Alpha  occ. eigenvalues --   -0.52226  -0.52065  -0.51566  -0.51381  -0.51003
 Alpha  occ. eigenvalues --   -0.50971  -0.50734  -0.50532  -0.50313  -0.50027
 Alpha  occ. eigenvalues --   -0.49587  -0.49540  -0.49416  -0.49028  -0.48907
 Alpha  occ. eigenvalues --   -0.48806  -0.48638  -0.48347  -0.48310  -0.48220
 Alpha  occ. eigenvalues --   -0.47090  -0.47057  -0.46950  -0.46912  -0.46207
 Alpha  occ. eigenvalues --   -0.45994  -0.45888  -0.45787  -0.45444  -0.45182
 Alpha  occ. eigenvalues --   -0.45038  -0.44935  -0.44557  -0.44128  -0.43477
 Alpha  occ. eigenvalues --   -0.43269  -0.43252  -0.42546  -0.42302  -0.41777
 Alpha  occ. eigenvalues --   -0.41731  -0.41282  -0.40413  -0.39243  -0.39168
 Alpha  occ. eigenvalues --   -0.37744  -0.37033  -0.35425  -0.34970  -0.34694
 Alpha  occ. eigenvalues --   -0.33536  -0.33041  -0.32397  -0.31809  -0.26700
 Alpha  occ. eigenvalues --   -0.21397
 Alpha virt. eigenvalues --   -0.07843  -0.02618  -0.00682   0.01366   0.01400
 Alpha virt. eigenvalues --    0.02653   0.03092   0.03349   0.04350   0.05048
 Alpha virt. eigenvalues --    0.06548   0.06617   0.07056   0.07509   0.08471

 Mulliken charges:
               1
     1  Mg   0.428949
     2  C   -0.044943
     3  C   -0.092441
     4  C   -0.079167
     5  C   -0.054414
     6  N   -0.278268
     7  C    0.118791
     8  C    0.003573
     9  C    0.001576
    10  C    0.140707
    11  C   -0.051288
    12  C   -0.021317
    13  C    0.009050
    14  C    0.469087
    15  O   -0.520724
    16  O   -0.277825
    17  N   -0.311798
    18  C    0.099503
    19  C    0.018730
    20  C   -0.051884
    21  C    0.122074
    22  C   -0.048080
    23  C    0.331907
    24  O   -0.516437
    25  C   -0.028550
    26  N   -0.224317
    27  C    0.125141
    28  C   -0.010565
    29  C    0.002361
    30  C    0.122184
    31  C   -0.055161
    32  C   -0.024035
    33  C   -0.063304
    34  N   -0.342093
    35  C    0.079418
    36  C    0.058441
    37  C   -0.045742
    38  C    0.124738
    39  C   -0.036855
    40  C    0.331466
    41  O   -0.534294
    42  C    0.055959
    43  C    0.498364
    44  O   -0.532577
    45  O   -0.273824
    46  C    0.078120
    47  C    0.111308
    48  C   -0.082807
    49  C   -0.015232
    50  C   -0.046966
    51  C   -0.019063
    52  C   -0.031279
    53  C   -0.042721
    54  C   -0.008847
    55  C   -0.054991
    56  C   -0.028343
    57  C   -0.026628
    58  C   -0.041158
    59  C   -0.019263
    60  C   -0.059556
    61  C   -0.025483
    62  C   -0.043751
    63  C   -0.040712
    64  C   -0.006715
    65  C   -0.058018
    66  C   -0.063275
    67  H    0.009291
    68  H    0.040538
    69  H    0.029786
    70  H    0.034749
    71  H    0.030243
    72  H    0.017340
    73  H    0.028901
    74  H    0.027898
    75  H    0.019382
    76  H    0.042788
    77  H    0.027521
    78  H    0.046761
    79  H    0.031293
    80  H    0.020621
    81  H    0.029626
    82  H    0.046844
    83  H    0.027590
    84  H    0.038326
    85  H    0.042550
    86  H    0.036080
    87  H    0.042027
    88  H    0.020525
    89  H    0.022404
    90  H    0.018909
    91  H    0.016055
    92  H    0.019173
    93  H    0.018407
    94  H    0.021503
    95  H    0.041707
    96  H    0.048119
    97  H    0.010860
    98  H    0.064804
    99  H    0.038399
   100  H    0.034576
   101  H    0.041605
   102  H    0.066753
   103  H    0.032733
   104  H    0.039729
   105  H    0.043351
   106  H    0.016471
   107  H    0.020734
   108  H    0.024559
   109  H    0.023323
   110  H    0.010766
   111  H    0.024202
   112  H    0.002597
   113  H    0.020480
   114  H    0.011239
   115  H    0.022372
   116  H    0.021756
   117  H    0.020264
   118  H    0.013944
   119  H    0.012740
   120  H    0.016890
   121  H    0.016330
   122  H    0.005530
   123  H    0.016649
   124  H    0.020518
   125  H    0.016999
   126  H    0.021037
   127  H    0.017555
   128  H    0.029287
   129  H    0.016261
   130  H    0.022336
   131  H    0.011126
   132  H    0.012683
   133  H    0.018062
   134  H    0.027547
   135  H    0.012280
   136  H    0.023477
   137  H    0.023876
   138  H    0.023150
   139  H    0.009773
   140  H    0.026682
 Sum of Mulliken charges =  -0.00000

 Dipole moment (field-independent basis, Debye):
    X=             -3.3001    Y=              7.6739    Z=              0.5478  Tot=              8.3714
 N-N= 4.266315033258D+03 E-N= 0.000000000000D+00  KE=-9.207136397143D+03
 Leave Link  601 at Fri Apr 29 16:15:13 2022, MaxMem=  6710886400 cpu:               0.8 elap:               0.1
 (Enter /sw/apps/gaussian-16.0/g16/l9999.exe)
 1\1\GINC-BP1-COMPUTE154\SP\RZINDO CIS\STO-3G\C55H74Mg1N4O6\OF15641\29-
 Apr-2022\0\\#p ZINDO=(nstates=5)\\step_351_chromophore_4 ZINDO\\0,1\Mg
 ,0,8.813,3.173,27.921\C,0,10.224,1.683,30.715\C,0,7.423,5.557,29.931\C
 ,0,7.416,4.468,25.177\C,0,10.201,0.623,25.997\N,0,8.681,3.505,30.161\C
 ,0,9.442,2.818,31.073\C,0,9.237,3.417,32.498\C,0,8.315,4.658,32.172\C,
 0,8.116,4.593,30.687\C,0,6.911,4.685,32.941\C,0,10.488,3.685,33.318\C,
 0,10.316,4.421,34.654\C,0,10.782,3.648,35.851\O,0,11.893,3.107,35.944\

 Normal termination of Gaussian 16 at Fri Apr 29 16:15:13 2022.
