 Gaussian 16, Revision A.03,
 Gaussian 16:  ES64L-G16RevA.03 25-Dec-2016

 ------------------------------
 #p blyp/Def2SVP td=(nstates=5)
 ------------------------------

 ---------------------------------------------------
 step_1701_chromophore_13 TDDFT with blyp functional
 ---------------------------------------------------
 Symbolic Z-matrix:
 Charge =  0 Multiplicity = 1

                         Standard orientation:
 ---------------------------------------------------------------------
 Center     Atomic      Atomic             Coordinates (Angstroms)
 Number     Number       Type             X           Y           Z
 ---------------------------------------------------------------------
      1         12           0        6.009816    0.485944   -0.008087
      2          6           0        3.698803   -2.267287   -0.040909
      3          6           0        3.447499    2.459175   -0.621468
      4          6           0        8.396237    2.879931   -0.197267
      5          6           0        8.544399   -1.923566    0.768809
      6          7           0        3.902483    0.012099   -0.783461
      7          6           0        3.122084   -1.038991   -0.461721
      8          6           0        1.597400   -0.748889   -0.579082
      9          6           0        1.547961    0.758703   -0.955495
     10          6           0        3.043010    1.110521   -0.778457
     11          6           0        1.037044    1.139691   -2.282426
     12          6           0        0.708956   -1.208544    0.575530
     13          6           0       -0.578928   -2.094885    0.226638
     14          6           0       -1.955970   -1.551429    0.539544
     15          8           0       -2.155623   -0.462993    1.087108
     16          8           0       -2.931788   -2.577467    0.337763
     17          7           0        5.917240    2.439613   -0.448192
     18          6           0        4.731520    3.114403   -0.625286
     19          6           0        5.053126    4.571849   -0.608696
     20          6           0        6.477404    4.667032   -0.685912
     21          6           0        7.046637    3.311083   -0.492943
     22          6           0        4.045837    5.673787   -0.856094
     23          6           0        7.380051    5.850848   -0.901930
     24          8           0        8.580517    5.765714   -1.059466
     25          6           0        6.748060    7.207824   -0.951911
     26          7           0        8.239828    0.404750    0.036593
     27          6           0        8.903976    1.570549    0.048992
     28          6           0       10.331795    1.305172    0.356890
     29          6           0       10.297230   -0.076970    1.114578
     30          6           0        8.962045   -0.610658    0.647188
     31          6           0       11.228460    1.170186   -0.875460
     32          6           0       10.428250   -0.004699    2.660354
     33          6           0        9.156216   -0.220989    3.583077
     34          7           0        6.183862   -1.649689    0.147439
     35          6           0        7.263167   -2.452407    0.501738
     36          6           0        6.864775   -3.846987    0.675980
     37          6           0        5.503794   -3.754469    0.456684
     38          6           0        5.119639   -2.468472    0.103009
     39          6           0        7.644805   -4.996054    1.147195
     40          6           0        4.280273   -4.578536    0.487520
     41          8           0        4.119020   -5.808892    0.592789
     42          6           0        3.051576   -3.608932    0.046131
     43          6           0        2.378148   -4.028595   -1.203275
     44          8           0        2.731666   -3.737430   -2.323080
     45          8           0        1.418317   -5.020286   -0.890696
     46          6           0        0.409339   -5.397659   -1.892891
     47          6           0       -4.255029   -2.248570    0.756970
     48          6           0       -5.056916   -1.241275   -0.013287
     49          6           0       -6.338241   -1.275956   -0.259686
     50          6           0       -7.487400   -2.037537    0.468140
     51          6           0       -6.851063   -0.042939   -1.075790
     52          6           0       -7.176377    1.329620   -0.472311
     53          6           0       -8.688285    1.696467   -0.622625
     54          6           0       -9.386407    2.417295    0.571433
     55          6           0       -8.745298    3.772018    0.906939
     56          6           0       -9.604255    1.566733    1.871258
     57          6           0      -10.861992    1.762502    2.676790
     58          6           0      -12.080211    0.992105    2.034767
     59          6           0      -13.330062    1.788079    1.781413
     60          6           0      -14.025993    2.271809    3.143094
     61          6           0      -14.325022    0.952999    0.959721
     62          6           0      -13.996166    0.900104   -0.531211
     63          6           0      -13.987070   -0.534575   -1.030131
     64          6           0      -13.097273   -0.675355   -2.242375
     65          6           0      -13.650983   -1.723159   -3.286986
     66          6           0      -11.672496   -0.985864   -1.823883
     67          1           0        2.636567    3.189340   -0.660549
     68          1           0        9.111299    3.704429   -0.163527
     69          1           0        9.109757   -2.735594    1.231146
     70          1           0        1.262945   -1.290900   -1.463218
     71          1           0        1.115630    1.319553   -0.126275
     72          1           0        0.765431    0.281566   -2.897194
     73          1           0        1.726224    1.776613   -2.837939
     74          1           0        0.159460    1.764298   -2.119151
     75          1           0        0.398236   -0.340842    1.157771
     76          1           0        1.315966   -1.549237    1.414175
     77          1           0       -0.560359   -3.078177    0.696699
     78          1           0       -0.635735   -2.308440   -0.840127
     79          1           0        4.257198    6.272962    0.029177
     80          1           0        3.012582    5.361449   -0.706896
     81          1           0        4.294528    6.458773   -1.570483
     82          1           0        6.002632    7.364002   -0.172631
     83          1           0        6.281284    7.309469   -1.930909
     84          1           0        7.462271    8.029580   -0.898760
     85          1           0       10.614723    2.059677    1.090742
     86          1           0       11.071378   -0.759540    0.762741
     87          1           0       11.566201    0.134854   -0.915961
     88          1           0       12.060266    1.874664   -0.914713
     89          1           0       10.703976    1.271413   -1.825002
     90          1           0       10.907158    0.972737    2.709575
     91          1           0       11.132540   -0.814019    2.857195
     92          1           0        8.194711   -0.251330    3.070276
     93          1           0        9.160410    0.692119    4.178793
     94          1           0        9.332487   -1.052831    4.264399
     95          1           0        8.512467   -5.307330    0.566453
     96          1           0        7.046579   -5.871432    1.401855
     97          1           0        8.080874   -4.665084    2.089377
     98          1           0        2.206869   -3.703031    0.727579
     99          1           0        0.864598   -5.558438   -2.870395
    100          1           0       -0.357622   -4.642012   -2.060806
    101          1           0       -0.274871   -6.168049   -1.539068
    102          1           0       -4.254567   -1.941241    1.802367
    103          1           0       -4.765988   -3.211184    0.790199
    104          1           0       -4.392112   -0.562240   -0.547483
    105          1           0       -7.098234   -3.013368    0.758082
    106          1           0       -8.386281   -2.177143   -0.133191
    107          1           0       -7.741334   -1.315826    1.244605
    108          1           0       -7.733316   -0.342804   -1.641180
    109          1           0       -6.092769    0.197770   -1.821248
    110          1           0       -6.567048    2.056885   -1.008822
    111          1           0       -6.971806    1.249228    0.596029
    112          1           0       -9.239221    0.763559   -0.747279
    113          1           0       -8.939969    2.369413   -1.441348
    114          1           0      -10.307001    2.755345    0.095015
    115          1           0       -7.932804    3.598973    1.611926
    116          1           0       -9.354430    4.609129    1.249414
    117          1           0       -8.409941    4.135648   -0.063650
    118          1           0       -8.676820    1.616958    2.441067
    119          1           0       -9.607438    0.525245    1.548995
    120          1           0      -11.155299    2.807063    2.570055
    121          1           0      -10.721686    1.414880    3.700379
    122          1           0      -12.294302    0.153798    2.698110
    123          1           0      -11.755224    0.554006    1.091601
    124          1           0      -13.043520    2.642547    1.168713
    125          1           0      -13.487418    1.825797    3.978643
    126          1           0      -15.051023    1.962876    3.346715
    127          1           0      -13.997348    3.360994    3.177646
    128          1           0      -15.332912    1.332937    1.127790
    129          1           0      -14.376877   -0.042828    1.399627
    130          1           0      -12.983507    1.275485   -0.676887
    131          1           0      -14.710976    1.527612   -1.062959
    132          1           0      -14.992822   -0.949314   -1.090691
    133          1           0      -13.603129   -1.127553   -0.200182
    134          1           0      -13.080290    0.250774   -2.816636
    135          1           0      -13.710220   -2.725209   -2.862039
    136          1           0      -12.930298   -1.860385   -4.093626
    137          1           0      -14.644858   -1.492945   -3.670006
    138          1           0      -11.092896   -0.087078   -2.033497
    139          1           0      -11.198650   -1.762034   -2.425038
    140          1           0      -11.611318   -1.242333   -0.765743
 ---------------------------------------------------------------------

 SCF Done:  E(RB-LYP) =  -3007.35011869     A.U. after   21 cycles

 Excitation energies and oscillator strengths:

 Excited State   1:      Singlet-A      1.7397 eV  712.68 nm  f=0.2982  <S**2>=0.000
     245 -> 248        0.16637
     246 -> 247        0.68835
     246 <- 247       -0.15798
 This state for optimization and/or second-order correction.
 Total Energy, E(TD-HF/TD-DFT) =  -3007.28618656
 Copying the excited state density for this state as the 1-particle RhoCI density.

 Excited State   2:      Singlet-A      1.9072 eV  650.10 nm  f=0.0514  <S**2>=0.000
     243 -> 247       -0.37316
     244 -> 247        0.15877
     245 -> 247        0.54111
     246 -> 248       -0.15379

 Excited State   3:      Singlet-A      1.9487 eV  636.24 nm  f=0.0039  <S**2>=0.000
     243 -> 247        0.19386
     244 -> 247        0.67334

 Excited State   4:      Singlet-A      2.0164 eV  614.87 nm  f=0.0314  <S**2>=0.000
     243 -> 247        0.56341
     244 -> 247       -0.11748
     245 -> 247        0.36462
     246 -> 248       -0.15358

 Excited State   5:      Singlet-A      2.5274 eV  490.57 nm  f=0.0001  <S**2>=0.000
     240 -> 247        0.69252
     242 -> 247        0.14061

 The electronic state is 1-A.
 Alpha  occ. eigenvalues --  -46.28002 -18.82666 -18.81174 -18.78315 -18.76909
 Alpha  occ. eigenvalues --  -18.76041 -18.75553 -14.03416 -14.02610 -14.01433
 Alpha  occ. eigenvalues --  -14.00753 -10.05252 -10.03636 -10.00178  -9.99713
 Alpha  occ. eigenvalues --   -9.97658  -9.97532  -9.96853  -9.96828  -9.96593
 Alpha  occ. eigenvalues --   -9.96561  -9.96130  -9.96100  -9.95316  -9.94893
 Alpha  occ. eigenvalues --   -9.94837  -9.94407  -9.94268  -9.93723  -9.93716
 Alpha  occ. eigenvalues --   -9.93561  -9.93517  -9.93452  -9.93387  -9.93307
 Alpha  occ. eigenvalues --   -9.93190  -9.93074  -9.93034  -9.92985  -9.92956
 Alpha  occ. eigenvalues --   -9.92887  -9.92864  -9.92552  -9.92545  -9.92318
 Alpha  occ. eigenvalues --   -9.92164  -9.92006  -9.91919  -9.91901  -9.91849
 Alpha  occ. eigenvalues --   -9.91795  -9.91768  -9.91539  -9.91532  -9.91398
 Alpha  occ. eigenvalues --   -9.91286  -9.91109  -9.91093  -9.90939  -9.90932
 Alpha  occ. eigenvalues --   -9.90902  -9.90853  -9.90832  -9.90664  -9.90566
 Alpha  occ. eigenvalues --   -9.90453  -2.92481  -1.72882  -1.72411  -1.72169
 Alpha  occ. eigenvalues --   -0.97370  -0.96295  -0.92106  -0.90741  -0.90102
 Alpha  occ. eigenvalues --   -0.89544  -0.86498  -0.85899  -0.85429  -0.83723
 Alpha  occ. eigenvalues --   -0.74876  -0.73761  -0.73455  -0.73192  -0.72351
 Alpha  occ. eigenvalues --   -0.71929  -0.71252  -0.71162  -0.70962  -0.70603
 Alpha  occ. eigenvalues --   -0.70399  -0.69363  -0.68226  -0.67326  -0.67171
 Alpha  occ. eigenvalues --   -0.66385  -0.65804  -0.65405  -0.64929  -0.64479
 Alpha  occ. eigenvalues --   -0.64103  -0.63150  -0.62716  -0.61605  -0.60797
 Alpha  occ. eigenvalues --   -0.60579  -0.60201  -0.60089  -0.59441  -0.59073
 Alpha  occ. eigenvalues --   -0.58803  -0.57886  -0.57070  -0.56478  -0.55394
 Alpha  occ. eigenvalues --   -0.54082  -0.53797  -0.52988  -0.52542  -0.51513
 Alpha  occ. eigenvalues --   -0.51444  -0.50851  -0.50694  -0.50313  -0.50151
 Alpha  occ. eigenvalues --   -0.49433  -0.48690  -0.47723  -0.47555  -0.46915
 Alpha  occ. eigenvalues --   -0.46124  -0.46098  -0.45275  -0.45153  -0.44236
 Alpha  occ. eigenvalues --   -0.44030  -0.43302  -0.43067  -0.42679  -0.42389
 Alpha  occ. eigenvalues --   -0.42169  -0.41815  -0.41621  -0.41594  -0.41320
 Alpha  occ. eigenvalues --   -0.41134  -0.40988  -0.40576  -0.40225  -0.40135
 Alpha  occ. eigenvalues --   -0.39925  -0.39663  -0.39404  -0.39353  -0.39205
 Alpha  occ. eigenvalues --   -0.39110  -0.38713  -0.38535  -0.38337  -0.38286
 Alpha  occ. eigenvalues --   -0.38150  -0.37586  -0.37546  -0.37257  -0.37199
 Alpha  occ. eigenvalues --   -0.37088  -0.37010  -0.36889  -0.36584  -0.36469
 Alpha  occ. eigenvalues --   -0.36339  -0.36049  -0.35964  -0.35883  -0.35636
 Alpha  occ. eigenvalues --   -0.35499  -0.35347  -0.35249  -0.34975  -0.34737
 Alpha  occ. eigenvalues --   -0.34573  -0.34471  -0.34358  -0.34169  -0.33783
 Alpha  occ. eigenvalues --   -0.33497  -0.33487  -0.33394  -0.33176  -0.33138
 Alpha  occ. eigenvalues --   -0.32792  -0.32755  -0.32607  -0.32402  -0.32311
 Alpha  occ. eigenvalues --   -0.32192  -0.32156  -0.32056  -0.31809  -0.31757
 Alpha  occ. eigenvalues --   -0.31477  -0.31412  -0.31273  -0.31036  -0.30902
 Alpha  occ. eigenvalues --   -0.30803  -0.30717  -0.30278  -0.30189  -0.29853
 Alpha  occ. eigenvalues --   -0.29496  -0.29256  -0.29206  -0.29024  -0.28795
 Alpha  occ. eigenvalues --   -0.28571  -0.28090  -0.27943  -0.27874  -0.27772
 Alpha  occ. eigenvalues --   -0.27567  -0.27509  -0.27093  -0.26691  -0.26553
 Alpha  occ. eigenvalues --   -0.26302  -0.26231  -0.26042  -0.25526  -0.25105
 Alpha  occ. eigenvalues --   -0.24901  -0.24557  -0.24182  -0.23992  -0.23682
 Alpha  occ. eigenvalues --   -0.23066  -0.22861  -0.22026  -0.21553  -0.20970
 Alpha  occ. eigenvalues --   -0.20877  -0.20447  -0.18859  -0.18711  -0.17136
 Alpha  occ. eigenvalues --   -0.15687
 Alpha virt. eigenvalues --   -0.11681  -0.06894  -0.06054  -0.05014  -0.04225
 Alpha virt. eigenvalues --   -0.03498  -0.03116  -0.02177  -0.01622  -0.00117
 Alpha virt. eigenvalues --    0.01158   0.01493   0.01856   0.02481   0.02625

 Mulliken charges:
               1
     1  Mg   0.665518
     2  C   -0.003680
     3  C   -0.026512
     4  C   -0.023256
     5  C   -0.044665
     6  N   -0.186106
     7  C   -0.059226
     8  C    0.027132
     9  C    0.021622
    10  C   -0.032559
    11  C    0.174788
    12  C    0.161186
    13  C    0.101947
    14  C    0.092645
    15  O   -0.190723
    16  O   -0.290226
    17  N   -0.369584
    18  C    0.123300
    19  C   -0.143133
    20  C    0.006976
    21  C    0.113669
    22  C    0.210126
    23  C   -0.072190
    24  O   -0.151859
    25  C    0.120206
    26  N   -0.195267
    27  C    0.028872
    28  C    0.007998
    29  C   -0.000889
    30  C    0.033070
    31  C    0.168628
    32  C    0.076059
    33  C    0.080114
    34  N   -0.226180
    35  C    0.043758
    36  C   -0.151051
    37  C    0.082397
    38  C    0.064489
    39  C    0.173451
    40  C   -0.002479
    41  O   -0.143103
    42  C    0.059811
    43  C    0.097102
    44  O   -0.157888
    45  O   -0.299687
    46  C    0.228339
    47  C    0.323389
    48  C   -0.085711
    49  C   -0.126252
    50  C    0.122599
    51  C    0.074270
    52  C    0.136549
    53  C    0.036022
    54  C   -0.087785
    55  C    0.100164
    56  C    0.086974
    57  C    0.156833
    58  C    0.048123
    59  C   -0.074245
    60  C    0.103685
    61  C    0.104539
    62  C    0.089345
    63  C    0.096871
    64  C   -0.070372
    65  C    0.079686
    66  C    0.095151
    67  H   -0.068213
    68  H   -0.038820
    69  H   -0.076247
    70  H   -0.020694
    71  H   -0.020456
    72  H   -0.006476
    73  H   -0.003245
    74  H   -0.010994
    75  H   -0.030814
    76  H   -0.033750
    77  H    0.023065
    78  H    0.012377
    79  H   -0.019846
    80  H   -0.011610
    81  H   -0.000136
    82  H   -0.004839
    83  H    0.014471
    84  H   -0.013069
    85  H   -0.034719
    86  H   -0.030552
    87  H   -0.021061
    88  H    0.004083
    89  H   -0.009855
    90  H   -0.018646
    91  H   -0.019225
    92  H    0.021363
    93  H   -0.011134
    94  H   -0.001123
    95  H   -0.000413
    96  H    0.007327
    97  H   -0.007449
    98  H   -0.016918
    99  H    0.019978
   100  H   -0.015079
   101  H    0.014348
   102  H   -0.013320
   103  H   -0.018581
   104  H   -0.029320
   105  H   -0.000158
   106  H   -0.002137
   107  H    0.024289
   108  H   -0.040738
   109  H   -0.039559
   110  H   -0.022599
   111  H   -0.025322
   112  H   -0.010946
   113  H   -0.028649
   114  H   -0.044429
   115  H   -0.012872
   116  H   -0.012336
   117  H   -0.034120
   118  H   -0.040219
   119  H   -0.048384
   120  H   -0.036651
   121  H   -0.027449
   122  H   -0.041970
   123  H   -0.032229
   124  H   -0.037226
   125  H   -0.022457
   126  H   -0.017643
   127  H   -0.009297
   128  H   -0.046951
   129  H   -0.044875
   130  H   -0.028371
   131  H   -0.024746
   132  H   -0.042627
   133  H   -0.045404
   134  H   -0.030365
   135  H   -0.026551
   136  H   -0.023036
   137  H   -0.011094
   138  H   -0.002254
   139  H   -0.025098
   140  H    0.001294
 Sum of Mulliken charges =  -0.00000

 Dipole moment (field-independent basis, Debye):
    X=             -3.1927    Y=              2.5728    Z=              2.3231  Tot=              4.7127
 Quadrupole moment (field-independent basis, Debye-Ang):
   XX=           -383.4429   YY=           -422.4094   ZZ=           -408.0785
   XY=             -0.0627   XZ=             27.3756   YZ=             -3.6768

 Normal termination of Gaussian 16 at Thu Apr 28 19:07:04 2022.
