 Gaussian 16, Revision A.03,
 Gaussian 16:  ES64L-G16RevA.03 25-Dec-2016

 -----------------------------------
 #p cam-b3lyp/Def2SVP td=(nstates=5)
 -----------------------------------

 --------------------------------------------------------
 step_1701_chromophore_13 TDDFT with cam-b3lyp functional
 --------------------------------------------------------
 Symbolic Z-matrix:
 Charge =  0 Multiplicity = 1

                         Standard orientation:
 ---------------------------------------------------------------------
 Center     Atomic      Atomic             Coordinates (Angstroms)
 Number     Number       Type             X           Y           Z
 ---------------------------------------------------------------------
      1         12           0        6.009816    0.485944   -0.008087
      2          6           0        3.698803   -2.267287   -0.040909
      3          6           0        3.447499    2.459175   -0.621468
      4          6           0        8.396237    2.879931   -0.197267
      5          6           0        8.544399   -1.923566    0.768809
      6          7           0        3.902483    0.012099   -0.783461
      7          6           0        3.122084   -1.038991   -0.461721
      8          6           0        1.597400   -0.748889   -0.579082
      9          6           0        1.547961    0.758703   -0.955495
     10          6           0        3.043010    1.110521   -0.778457
     11          6           0        1.037044    1.139691   -2.282426
     12          6           0        0.708956   -1.208544    0.575530
     13          6           0       -0.578928   -2.094885    0.226638
     14          6           0       -1.955970   -1.551429    0.539544
     15          8           0       -2.155623   -0.462993    1.087108
     16          8           0       -2.931788   -2.577467    0.337763
     17          7           0        5.917240    2.439613   -0.448192
     18          6           0        4.731520    3.114403   -0.625286
     19          6           0        5.053126    4.571849   -0.608696
     20          6           0        6.477404    4.667032   -0.685912
     21          6           0        7.046637    3.311083   -0.492943
     22          6           0        4.045837    5.673787   -0.856094
     23          6           0        7.380051    5.850848   -0.901930
     24          8           0        8.580517    5.765714   -1.059466
     25          6           0        6.748060    7.207824   -0.951911
     26          7           0        8.239828    0.404750    0.036593
     27          6           0        8.903976    1.570549    0.048992
     28          6           0       10.331795    1.305172    0.356890
     29          6           0       10.297230   -0.076970    1.114578
     30          6           0        8.962045   -0.610658    0.647188
     31          6           0       11.228460    1.170186   -0.875460
     32          6           0       10.428250   -0.004699    2.660354
     33          6           0        9.156216   -0.220989    3.583077
     34          7           0        6.183862   -1.649689    0.147439
     35          6           0        7.263167   -2.452407    0.501738
     36          6           0        6.864775   -3.846987    0.675980
     37          6           0        5.503794   -3.754469    0.456684
     38          6           0        5.119639   -2.468472    0.103009
     39          6           0        7.644805   -4.996054    1.147195
     40          6           0        4.280273   -4.578536    0.487520
     41          8           0        4.119020   -5.808892    0.592789
     42          6           0        3.051576   -3.608932    0.046131
     43          6           0        2.378148   -4.028595   -1.203275
     44          8           0        2.731666   -3.737430   -2.323080
     45          8           0        1.418317   -5.020286   -0.890696
     46          6           0        0.409339   -5.397659   -1.892891
     47          6           0       -4.255029   -2.248570    0.756970
     48          6           0       -5.056916   -1.241275   -0.013287
     49          6           0       -6.338241   -1.275956   -0.259686
     50          6           0       -7.487400   -2.037537    0.468140
     51          6           0       -6.851063   -0.042939   -1.075790
     52          6           0       -7.176377    1.329620   -0.472311
     53          6           0       -8.688285    1.696467   -0.622625
     54          6           0       -9.386407    2.417295    0.571433
     55          6           0       -8.745298    3.772018    0.906939
     56          6           0       -9.604255    1.566733    1.871258
     57          6           0      -10.861992    1.762502    2.676790
     58          6           0      -12.080211    0.992105    2.034767
     59          6           0      -13.330062    1.788079    1.781413
     60          6           0      -14.025993    2.271809    3.143094
     61          6           0      -14.325022    0.952999    0.959721
     62          6           0      -13.996166    0.900104   -0.531211
     63          6           0      -13.987070   -0.534575   -1.030131
     64          6           0      -13.097273   -0.675355   -2.242375
     65          6           0      -13.650983   -1.723159   -3.286986
     66          6           0      -11.672496   -0.985864   -1.823883
     67          1           0        2.636567    3.189340   -0.660549
     68          1           0        9.111299    3.704429   -0.163527
     69          1           0        9.109757   -2.735594    1.231146
     70          1           0        1.262945   -1.290900   -1.463218
     71          1           0        1.115630    1.319553   -0.126275
     72          1           0        0.765431    0.281566   -2.897194
     73          1           0        1.726224    1.776613   -2.837939
     74          1           0        0.159460    1.764298   -2.119151
     75          1           0        0.398236   -0.340842    1.157771
     76          1           0        1.315966   -1.549237    1.414175
     77          1           0       -0.560359   -3.078177    0.696699
     78          1           0       -0.635735   -2.308440   -0.840127
     79          1           0        4.257198    6.272962    0.029177
     80          1           0        3.012582    5.361449   -0.706896
     81          1           0        4.294528    6.458773   -1.570483
     82          1           0        6.002632    7.364002   -0.172631
     83          1           0        6.281284    7.309469   -1.930909
     84          1           0        7.462271    8.029580   -0.898760
     85          1           0       10.614723    2.059677    1.090742
     86          1           0       11.071378   -0.759540    0.762741
     87          1           0       11.566201    0.134854   -0.915961
     88          1           0       12.060266    1.874664   -0.914713
     89          1           0       10.703976    1.271413   -1.825002
     90          1           0       10.907158    0.972737    2.709575
     91          1           0       11.132540   -0.814019    2.857195
     92          1           0        8.194711   -0.251330    3.070276
     93          1           0        9.160410    0.692119    4.178793
     94          1           0        9.332487   -1.052831    4.264399
     95          1           0        8.512467   -5.307330    0.566453
     96          1           0        7.046579   -5.871432    1.401855
     97          1           0        8.080874   -4.665084    2.089377
     98          1           0        2.206869   -3.703031    0.727579
     99          1           0        0.864598   -5.558438   -2.870395
    100          1           0       -0.357622   -4.642012   -2.060806
    101          1           0       -0.274871   -6.168049   -1.539068
    102          1           0       -4.254567   -1.941241    1.802367
    103          1           0       -4.765988   -3.211184    0.790199
    104          1           0       -4.392112   -0.562240   -0.547483
    105          1           0       -7.098234   -3.013368    0.758082
    106          1           0       -8.386281   -2.177143   -0.133191
    107          1           0       -7.741334   -1.315826    1.244605
    108          1           0       -7.733316   -0.342804   -1.641180
    109          1           0       -6.092769    0.197770   -1.821248
    110          1           0       -6.567048    2.056885   -1.008822
    111          1           0       -6.971806    1.249228    0.596029
    112          1           0       -9.239221    0.763559   -0.747279
    113          1           0       -8.939969    2.369413   -1.441348
    114          1           0      -10.307001    2.755345    0.095015
    115          1           0       -7.932804    3.598973    1.611926
    116          1           0       -9.354430    4.609129    1.249414
    117          1           0       -8.409941    4.135648   -0.063650
    118          1           0       -8.676820    1.616958    2.441067
    119          1           0       -9.607438    0.525245    1.548995
    120          1           0      -11.155299    2.807063    2.570055
    121          1           0      -10.721686    1.414880    3.700379
    122          1           0      -12.294302    0.153798    2.698110
    123          1           0      -11.755224    0.554006    1.091601
    124          1           0      -13.043520    2.642547    1.168713
    125          1           0      -13.487418    1.825797    3.978643
    126          1           0      -15.051023    1.962876    3.346715
    127          1           0      -13.997348    3.360994    3.177646
    128          1           0      -15.332912    1.332937    1.127790
    129          1           0      -14.376877   -0.042828    1.399627
    130          1           0      -12.983507    1.275485   -0.676887
    131          1           0      -14.710976    1.527612   -1.062959
    132          1           0      -14.992822   -0.949314   -1.090691
    133          1           0      -13.603129   -1.127553   -0.200182
    134          1           0      -13.080290    0.250774   -2.816636
    135          1           0      -13.710220   -2.725209   -2.862039
    136          1           0      -12.930298   -1.860385   -4.093626
    137          1           0      -14.644858   -1.492945   -3.670006
    138          1           0      -11.092896   -0.087078   -2.033497
    139          1           0      -11.198650   -1.762034   -2.425038
    140          1           0      -11.611318   -1.242333   -0.765743
 ---------------------------------------------------------------------

 SCF Done:  E(RCAM-B3LYP) =  -3007.13638364     A.U. after   19 cycles

 Excitation energies and oscillator strengths:

 Excited State   1:      Singlet-A      1.6084 eV  770.85 nm  f=0.3765  <S**2>=0.000
     245 -> 248        0.17228
     246 -> 247        0.68757
     245 <- 248        0.10975
 This state for optimization and/or second-order correction.
 Total Energy, E(TD-HF/TD-DFT) =  -3007.07727559
 Copying the excited state density for this state as the 1-particle RhoCI density.

 Excited State   2:      Singlet-A      2.1575 eV  574.67 nm  f=0.1164  <S**2>=0.000
     245 -> 247        0.64475
     246 -> 248       -0.27591

 Excited State   3:      Singlet-A      3.3569 eV  369.34 nm  f=0.0033  <S**2>=0.000
     243 -> 247        0.15498
     244 -> 247        0.64126

 Excited State   4:      Singlet-A      3.4133 eV  363.24 nm  f=0.0454  <S**2>=0.000
     240 -> 247        0.14248
     240 -> 249       -0.11268
     242 -> 247        0.24710
     242 -> 249       -0.17330
     243 -> 247        0.44822
     244 -> 247       -0.26285
     246 -> 248        0.22558

 Excited State   5:      Singlet-A      3.4671 eV  357.60 nm  f=0.3132  <S**2>=0.000
     240 -> 247       -0.18797
     242 -> 247       -0.32600
     242 -> 249        0.12782
     243 -> 247        0.10426
     245 -> 247        0.19098
     246 -> 248        0.50426

 The electronic state is 1-A.
 Alpha  occ. eigenvalues --  -46.89592 -19.25646 -19.24164 -19.21444 -19.20178
 Alpha  occ. eigenvalues --  -19.19170 -19.18847 -14.42216 -14.41503 -14.39945
 Alpha  occ. eigenvalues --  -14.39107 -10.40791 -10.39228 -10.35623 -10.34954
 Alpha  occ. eigenvalues --  -10.31628 -10.31583 -10.31432 -10.31390 -10.31070
 Alpha  occ. eigenvalues --  -10.31060 -10.30479 -10.30438 -10.29525 -10.29502
 Alpha  occ. eigenvalues --  -10.29031 -10.28703 -10.28368 -10.27948 -10.27946
 Alpha  occ. eigenvalues --  -10.27737 -10.27700 -10.27498 -10.27411 -10.27380
 Alpha  occ. eigenvalues --  -10.27363 -10.27128 -10.27082 -10.26913 -10.26887
 Alpha  occ. eigenvalues --  -10.26873 -10.26664 -10.26540 -10.26231 -10.25961
 Alpha  occ. eigenvalues --  -10.25890 -10.25811 -10.25775 -10.25649 -10.25598
 Alpha  occ. eigenvalues --  -10.25505 -10.25456 -10.25356 -10.25286 -10.25114
 Alpha  occ. eigenvalues --  -10.25063 -10.25039 -10.24800 -10.24578 -10.24549
 Alpha  occ. eigenvalues --  -10.24534 -10.24526 -10.24471 -10.24272 -10.24195
 Alpha  occ. eigenvalues --  -10.24105  -3.17968  -1.92847  -1.92447  -1.92252
 Alpha  occ. eigenvalues --   -1.15874  -1.14943  -1.10620  -1.08700  -1.08395
 Alpha  occ. eigenvalues --   -1.07520  -1.04196  -1.03562  -1.02979  -1.01222
 Alpha  occ. eigenvalues --   -0.91979  -0.90661  -0.90320  -0.90004  -0.89094
 Alpha  occ. eigenvalues --   -0.88537  -0.87852  -0.87761  -0.87600  -0.87251
 Alpha  occ. eigenvalues --   -0.87001  -0.85784  -0.84512  -0.83487  -0.83328
 Alpha  occ. eigenvalues --   -0.82462  -0.81900  -0.81462  -0.80770  -0.80304
 Alpha  occ. eigenvalues --   -0.79881  -0.78802  -0.78474  -0.77050  -0.76187
 Alpha  occ. eigenvalues --   -0.75945  -0.75574  -0.75350  -0.74725  -0.74316
 Alpha  occ. eigenvalues --   -0.73964  -0.72895  -0.71988  -0.71333  -0.70014
 Alpha  occ. eigenvalues --   -0.68705  -0.68442  -0.67429  -0.66968  -0.65793
 Alpha  occ. eigenvalues --   -0.65619  -0.64921  -0.64555  -0.64351  -0.64233
 Alpha  occ. eigenvalues --   -0.63264  -0.62567  -0.61311  -0.61298  -0.60507
 Alpha  occ. eigenvalues --   -0.59753  -0.59703  -0.58777  -0.58486  -0.57700
 Alpha  occ. eigenvalues --   -0.57631  -0.56865  -0.56169  -0.55844  -0.55465
 Alpha  occ. eigenvalues --   -0.55115  -0.54955  -0.54778  -0.54473  -0.54074
 Alpha  occ. eigenvalues --   -0.54017  -0.53866  -0.53659  -0.53025  -0.52889
 Alpha  occ. eigenvalues --   -0.52757  -0.52313  -0.52246  -0.52014  -0.51817
 Alpha  occ. eigenvalues --   -0.51599  -0.51317  -0.51070  -0.50816  -0.50654
 Alpha  occ. eigenvalues --   -0.50476  -0.50082  -0.50048  -0.49843  -0.49493
 Alpha  occ. eigenvalues --   -0.49332  -0.49242  -0.49123  -0.49092  -0.48879
 Alpha  occ. eigenvalues --   -0.48705  -0.48350  -0.48083  -0.47914  -0.47767
 Alpha  occ. eigenvalues --   -0.47561  -0.47217  -0.47179  -0.46831  -0.46630
 Alpha  occ. eigenvalues --   -0.46487  -0.46372  -0.46056  -0.45927  -0.45597
 Alpha  occ. eigenvalues --   -0.45469  -0.45223  -0.45195  -0.44958  -0.44858
 Alpha  occ. eigenvalues --   -0.44526  -0.44354  -0.44334  -0.44191  -0.43974
 Alpha  occ. eigenvalues --   -0.43936  -0.43762  -0.43682  -0.43632  -0.43367
 Alpha  occ. eigenvalues --   -0.43238  -0.42932  -0.42784  -0.42471  -0.42318
 Alpha  occ. eigenvalues --   -0.42265  -0.42154  -0.41747  -0.41447  -0.41410
 Alpha  occ. eigenvalues --   -0.41023  -0.40933  -0.40417  -0.40099  -0.39943
 Alpha  occ. eigenvalues --   -0.39584  -0.39099  -0.39069  -0.38882  -0.38786
 Alpha  occ. eigenvalues --   -0.38387  -0.38358  -0.37894  -0.37621  -0.37476
 Alpha  occ. eigenvalues --   -0.37299  -0.36950  -0.36571  -0.36153  -0.36056
 Alpha  occ. eigenvalues --   -0.35887  -0.35759  -0.35281  -0.34892  -0.34397
 Alpha  occ. eigenvalues --   -0.34185  -0.34007  -0.32998  -0.31282  -0.30847
 Alpha  occ. eigenvalues --   -0.30758  -0.30572  -0.30066  -0.29748  -0.23879
 Alpha  occ. eigenvalues --   -0.20909
 Alpha virt. eigenvalues --   -0.08868  -0.01641   0.00428   0.01581   0.01941
 Alpha virt. eigenvalues --    0.03664   0.04332   0.05101   0.05820   0.06975
 Alpha virt. eigenvalues --    0.07483   0.07805   0.08543   0.08659   0.08784

 Mulliken charges:
               1
     1  Mg   0.795108
     2  C   -0.028217
     3  C   -0.050836
     4  C   -0.039492
     5  C   -0.047017
     6  N   -0.252558
     7  C   -0.016416
     8  C   -0.023693
     9  C   -0.029875
    10  C   -0.009135
    11  C    0.109611
    12  C    0.095398
    13  C    0.030700
    14  C    0.178739
    15  O   -0.230277
    16  O   -0.354725
    17  N   -0.457522
    18  C    0.138185
    19  C   -0.139489
    20  C   -0.061806
    21  C    0.138599
    22  C    0.137919
    23  C    0.008241
    24  O   -0.192788
    25  C    0.034241
    26  N   -0.259395
    27  C    0.047917
    28  C   -0.055441
    29  C   -0.048232
    30  C    0.039415
    31  C    0.107617
    32  C    0.025279
    33  C    0.018710
    34  N   -0.313460
    35  C    0.050345
    36  C   -0.143720
    37  C   -0.004088
    38  C    0.106474
    39  C    0.112994
    40  C    0.097075
    41  O   -0.181493
    42  C   -0.018070
    43  C    0.187744
    44  O   -0.190870
    45  O   -0.364249
    46  C    0.189217
    47  C    0.283758
    48  C   -0.103204
    49  C   -0.150452
    50  C    0.070864
    51  C    0.017286
    52  C    0.076336
    53  C   -0.002512
    54  C   -0.142469
    55  C    0.045175
    56  C    0.033732
    57  C    0.100662
    58  C    0.005022
    59  C   -0.129971
    60  C    0.043940
    61  C    0.049530
    62  C    0.036839
    63  C    0.039855
    64  C   -0.133235
    65  C    0.026362
    66  C    0.036148
    67  H   -0.036676
    68  H    0.002090
    69  H   -0.038967
    70  H    0.013234
    71  H    0.015662
    72  H    0.018976
    73  H    0.024972
    74  H    0.014359
    75  H    0.006940
    76  H    0.001717
    77  H    0.055187
    78  H    0.039761
    79  H    0.006761
    80  H    0.018105
    81  H    0.028655
    82  H    0.022833
    83  H    0.041846
    84  H    0.023509
    85  H    0.000638
    86  H    0.005798
    87  H    0.004027
    88  H    0.028423
    89  H    0.017285
    90  H    0.007369
    91  H    0.008130
    92  H    0.040841
    93  H    0.012865
    94  H    0.022422
    95  H    0.027127
    96  H    0.037653
    97  H    0.017039
    98  H    0.024423
    99  H    0.045815
   100  H    0.004275
   101  H    0.038802
   102  H    0.017893
   103  H    0.011101
   104  H    0.003028
   105  H    0.022606
   106  H    0.020258
   107  H    0.043995
   108  H   -0.011804
   109  H   -0.008269
   110  H    0.007215
   111  H    0.000919
   112  H    0.007872
   113  H   -0.000682
   114  H   -0.013855
   115  H    0.008811
   116  H    0.012472
   117  H   -0.009589
   118  H   -0.011351
   119  H   -0.023196
   120  H   -0.009151
   121  H    0.002717
   122  H   -0.012863
   123  H   -0.012295
   124  H   -0.006752
   125  H    0.001025
   126  H    0.007396
   127  H    0.014412
   128  H   -0.014832
   129  H   -0.015688
   130  H   -0.003986
   131  H    0.004564
   132  H   -0.011506
   133  H   -0.016482
   134  H    0.001960
   135  H   -0.003228
   136  H    0.001185
   137  H    0.012848
   138  H    0.018618
   139  H    0.001221
   140  H    0.021177
 Sum of Mulliken charges =  -0.00000

 Dipole moment (field-independent basis, Debye):
    X=             -3.4017    Y=              3.0422    Z=              2.3518  Tot=              5.1340
 Quadrupole moment (field-independent basis, Debye-Ang):
   XX=           -382.8514   YY=           -418.3039   ZZ=           -408.2045
   XY=              3.1888   XZ=             28.7873   YZ=             -4.2505

 Normal termination of Gaussian 16 at Thu Apr 28 18:05:47 2022.
