 Gaussian 16, Revision A.03,
 Gaussian 16:  ES64L-G16RevA.03 25-Dec-2016

 ---------------------------------
 #p PBE1PBE/Def2SVP td=(nstates=5)
 ---------------------------------

 ------------------------------------------------------
 step_1701_chromophore_13 TDDFT with PBE1PBE functional
 ------------------------------------------------------
 Symbolic Z-matrix:
 Charge =  0 Multiplicity = 1

                         Standard orientation:
 ---------------------------------------------------------------------
 Center     Atomic      Atomic             Coordinates (Angstroms)
 Number     Number       Type             X           Y           Z
 ---------------------------------------------------------------------
      1         12           0        6.009816    0.485944   -0.008087
      2          6           0        3.698803   -2.267287   -0.040909
      3          6           0        3.447499    2.459175   -0.621468
      4          6           0        8.396237    2.879931   -0.197267
      5          6           0        8.544399   -1.923566    0.768809
      6          7           0        3.902483    0.012099   -0.783461
      7          6           0        3.122084   -1.038991   -0.461721
      8          6           0        1.597400   -0.748889   -0.579082
      9          6           0        1.547961    0.758703   -0.955495
     10          6           0        3.043010    1.110521   -0.778457
     11          6           0        1.037044    1.139691   -2.282426
     12          6           0        0.708956   -1.208544    0.575530
     13          6           0       -0.578928   -2.094885    0.226638
     14          6           0       -1.955970   -1.551429    0.539544
     15          8           0       -2.155623   -0.462993    1.087108
     16          8           0       -2.931788   -2.577467    0.337763
     17          7           0        5.917240    2.439613   -0.448192
     18          6           0        4.731520    3.114403   -0.625286
     19          6           0        5.053126    4.571849   -0.608696
     20          6           0        6.477404    4.667032   -0.685912
     21          6           0        7.046637    3.311083   -0.492943
     22          6           0        4.045837    5.673787   -0.856094
     23          6           0        7.380051    5.850848   -0.901930
     24          8           0        8.580517    5.765714   -1.059466
     25          6           0        6.748060    7.207824   -0.951911
     26          7           0        8.239828    0.404750    0.036593
     27          6           0        8.903976    1.570549    0.048992
     28          6           0       10.331795    1.305172    0.356890
     29          6           0       10.297230   -0.076970    1.114578
     30          6           0        8.962045   -0.610658    0.647188
     31          6           0       11.228460    1.170186   -0.875460
     32          6           0       10.428250   -0.004699    2.660354
     33          6           0        9.156216   -0.220989    3.583077
     34          7           0        6.183862   -1.649689    0.147439
     35          6           0        7.263167   -2.452407    0.501738
     36          6           0        6.864775   -3.846987    0.675980
     37          6           0        5.503794   -3.754469    0.456684
     38          6           0        5.119639   -2.468472    0.103009
     39          6           0        7.644805   -4.996054    1.147195
     40          6           0        4.280273   -4.578536    0.487520
     41          8           0        4.119020   -5.808892    0.592789
     42          6           0        3.051576   -3.608932    0.046131
     43          6           0        2.378148   -4.028595   -1.203275
     44          8           0        2.731666   -3.737430   -2.323080
     45          8           0        1.418317   -5.020286   -0.890696
     46          6           0        0.409339   -5.397659   -1.892891
     47          6           0       -4.255029   -2.248570    0.756970
     48          6           0       -5.056916   -1.241275   -0.013287
     49          6           0       -6.338241   -1.275956   -0.259686
     50          6           0       -7.487400   -2.037537    0.468140
     51          6           0       -6.851063   -0.042939   -1.075790
     52          6           0       -7.176377    1.329620   -0.472311
     53          6           0       -8.688285    1.696467   -0.622625
     54          6           0       -9.386407    2.417295    0.571433
     55          6           0       -8.745298    3.772018    0.906939
     56          6           0       -9.604255    1.566733    1.871258
     57          6           0      -10.861992    1.762502    2.676790
     58          6           0      -12.080211    0.992105    2.034767
     59          6           0      -13.330062    1.788079    1.781413
     60          6           0      -14.025993    2.271809    3.143094
     61          6           0      -14.325022    0.952999    0.959721
     62          6           0      -13.996166    0.900104   -0.531211
     63          6           0      -13.987070   -0.534575   -1.030131
     64          6           0      -13.097273   -0.675355   -2.242375
     65          6           0      -13.650983   -1.723159   -3.286986
     66          6           0      -11.672496   -0.985864   -1.823883
     67          1           0        2.636567    3.189340   -0.660549
     68          1           0        9.111299    3.704429   -0.163527
     69          1           0        9.109757   -2.735594    1.231146
     70          1           0        1.262945   -1.290900   -1.463218
     71          1           0        1.115630    1.319553   -0.126275
     72          1           0        0.765431    0.281566   -2.897194
     73          1           0        1.726224    1.776613   -2.837939
     74          1           0        0.159460    1.764298   -2.119151
     75          1           0        0.398236   -0.340842    1.157771
     76          1           0        1.315966   -1.549237    1.414175
     77          1           0       -0.560359   -3.078177    0.696699
     78          1           0       -0.635735   -2.308440   -0.840127
     79          1           0        4.257198    6.272962    0.029177
     80          1           0        3.012582    5.361449   -0.706896
     81          1           0        4.294528    6.458773   -1.570483
     82          1           0        6.002632    7.364002   -0.172631
     83          1           0        6.281284    7.309469   -1.930909
     84          1           0        7.462271    8.029580   -0.898760
     85          1           0       10.614723    2.059677    1.090742
     86          1           0       11.071378   -0.759540    0.762741
     87          1           0       11.566201    0.134854   -0.915961
     88          1           0       12.060266    1.874664   -0.914713
     89          1           0       10.703976    1.271413   -1.825002
     90          1           0       10.907158    0.972737    2.709575
     91          1           0       11.132540   -0.814019    2.857195
     92          1           0        8.194711   -0.251330    3.070276
     93          1           0        9.160410    0.692119    4.178793
     94          1           0        9.332487   -1.052831    4.264399
     95          1           0        8.512467   -5.307330    0.566453
     96          1           0        7.046579   -5.871432    1.401855
     97          1           0        8.080874   -4.665084    2.089377
     98          1           0        2.206869   -3.703031    0.727579
     99          1           0        0.864598   -5.558438   -2.870395
    100          1           0       -0.357622   -4.642012   -2.060806
    101          1           0       -0.274871   -6.168049   -1.539068
    102          1           0       -4.254567   -1.941241    1.802367
    103          1           0       -4.765988   -3.211184    0.790199
    104          1           0       -4.392112   -0.562240   -0.547483
    105          1           0       -7.098234   -3.013368    0.758082
    106          1           0       -8.386281   -2.177143   -0.133191
    107          1           0       -7.741334   -1.315826    1.244605
    108          1           0       -7.733316   -0.342804   -1.641180
    109          1           0       -6.092769    0.197770   -1.821248
    110          1           0       -6.567048    2.056885   -1.008822
    111          1           0       -6.971806    1.249228    0.596029
    112          1           0       -9.239221    0.763559   -0.747279
    113          1           0       -8.939969    2.369413   -1.441348
    114          1           0      -10.307001    2.755345    0.095015
    115          1           0       -7.932804    3.598973    1.611926
    116          1           0       -9.354430    4.609129    1.249414
    117          1           0       -8.409941    4.135648   -0.063650
    118          1           0       -8.676820    1.616958    2.441067
    119          1           0       -9.607438    0.525245    1.548995
    120          1           0      -11.155299    2.807063    2.570055
    121          1           0      -10.721686    1.414880    3.700379
    122          1           0      -12.294302    0.153798    2.698110
    123          1           0      -11.755224    0.554006    1.091601
    124          1           0      -13.043520    2.642547    1.168713
    125          1           0      -13.487418    1.825797    3.978643
    126          1           0      -15.051023    1.962876    3.346715
    127          1           0      -13.997348    3.360994    3.177646
    128          1           0      -15.332912    1.332937    1.127790
    129          1           0      -14.376877   -0.042828    1.399627
    130          1           0      -12.983507    1.275485   -0.676887
    131          1           0      -14.710976    1.527612   -1.062959
    132          1           0      -14.992822   -0.949314   -1.090691
    133          1           0      -13.603129   -1.127553   -0.200182
    134          1           0      -13.080290    0.250774   -2.816636
    135          1           0      -13.710220   -2.725209   -2.862039
    136          1           0      -12.930298   -1.860385   -4.093626
    137          1           0      -14.644858   -1.492945   -3.670006
    138          1           0      -11.092896   -0.087078   -2.033497
    139          1           0      -11.198650   -1.762034   -2.425038
    140          1           0      -11.611318   -1.242333   -0.765743
 ---------------------------------------------------------------------

 SCF Done:  E(RPBE1PBE) =  -3005.32805980     A.U. after   15 cycles

 Excitation energies and oscillator strengths:

 Excited State   1:      Singlet-A      1.7792 eV  696.85 nm  f=0.3684  <S**2>=0.000
     245 -> 248        0.16163
     246 -> 247        0.69580
     246 <- 247       -0.11553
 This state for optimization and/or second-order correction.
 Total Energy, E(TD-HF/TD-DFT) =  -3005.26267460
 Copying the excited state density for this state as the 1-particle RhoCI density.

 Excited State   2:      Singlet-A      2.1659 eV  572.44 nm  f=0.1099  <S**2>=0.000
     245 -> 247        0.65570
     246 -> 248       -0.24659

 Excited State   3:      Singlet-A      2.9276 eV  423.51 nm  f=0.0003  <S**2>=0.000
     241 -> 247        0.14158
     243 -> 247        0.23519
     244 -> 247        0.61585
     244 -> 249       -0.11527

 Excited State   4:      Singlet-A      3.0544 eV  405.92 nm  f=0.0006  <S**2>=0.000
     241 -> 247        0.11676
     243 -> 247        0.62609
     244 -> 247       -0.28674

 Excited State   5:      Singlet-A      3.1139 eV  398.16 nm  f=0.0034  <S**2>=0.000
     239 -> 247        0.10743
     241 -> 247        0.21045
     242 -> 247        0.63260
     242 -> 250        0.10101

 The electronic state is 1-A.
 Alpha  occ. eigenvalues --  -46.92983 -19.26352 -19.24808 -19.21706 -19.20322
 Alpha  occ. eigenvalues --  -19.19441 -19.19016 -14.41779 -14.40970 -14.39627
 Alpha  occ. eigenvalues --  -14.38804 -10.37831 -10.36198 -10.32827 -10.32026
 Alpha  occ. eigenvalues --  -10.29174 -10.29128 -10.29016 -10.28816 -10.28790
 Alpha  occ. eigenvalues --  -10.28754 -10.28243 -10.28192 -10.27295 -10.27208
 Alpha  occ. eigenvalues --  -10.26543 -10.26401 -10.26174 -10.25616 -10.25577
 Alpha  occ. eigenvalues --  -10.25474 -10.25419 -10.25392 -10.25100 -10.25093
 Alpha  occ. eigenvalues --  -10.24830 -10.24801 -10.24760 -10.24725 -10.24719
 Alpha  occ. eigenvalues --  -10.24298 -10.24257 -10.24231 -10.23670 -10.23484
 Alpha  occ. eigenvalues --  -10.23341 -10.23340 -10.23259 -10.23252 -10.23225
 Alpha  occ. eigenvalues --  -10.23018 -10.22992 -10.22875 -10.22873 -10.22863
 Alpha  occ. eigenvalues --  -10.22620 -10.22579 -10.22349 -10.22082 -10.22048
 Alpha  occ. eigenvalues --  -10.21987 -10.21943 -10.21864 -10.21731 -10.21667
 Alpha  occ. eigenvalues --  -10.21664  -3.14947  -1.87764  -1.87343  -1.87153
 Alpha  occ. eigenvalues --   -1.10665  -1.09637  -1.05316  -1.03563  -1.03154
 Alpha  occ. eigenvalues --   -1.02319  -0.98848  -0.98172  -0.97666  -0.95858
 Alpha  occ. eigenvalues --   -0.86341  -0.84749  -0.84478  -0.84230  -0.83210
 Alpha  occ. eigenvalues --   -0.82853  -0.82170  -0.81984  -0.81817  -0.81490
 Alpha  occ. eigenvalues --   -0.81311  -0.80053  -0.78677  -0.77791  -0.77575
 Alpha  occ. eigenvalues --   -0.76662  -0.76088  -0.75667  -0.75048  -0.74538
 Alpha  occ. eigenvalues --   -0.74155  -0.73057  -0.72775  -0.71371  -0.70501
 Alpha  occ. eigenvalues --   -0.70164  -0.69681  -0.69652  -0.68843  -0.68500
 Alpha  occ. eigenvalues --   -0.68241  -0.67350  -0.66366  -0.65724  -0.64411
 Alpha  occ. eigenvalues --   -0.63017  -0.62793  -0.61655  -0.61467  -0.60084
 Alpha  occ. eigenvalues --   -0.59958  -0.59389  -0.59173  -0.58922  -0.58364
 Alpha  occ. eigenvalues --   -0.57788  -0.56752  -0.55922  -0.55554  -0.54848
 Alpha  occ. eigenvalues --   -0.54306  -0.54223  -0.53377  -0.53174  -0.52248
 Alpha  occ. eigenvalues --   -0.52017  -0.51329  -0.50759  -0.50378  -0.50053
 Alpha  occ. eigenvalues --   -0.49602  -0.49459  -0.49278  -0.48849  -0.48527
 Alpha  occ. eigenvalues --   -0.48485  -0.48378  -0.48204  -0.47552  -0.47460
 Alpha  occ. eigenvalues --   -0.47201  -0.46705  -0.46697  -0.46527  -0.46429
 Alpha  occ. eigenvalues --   -0.46130  -0.45840  -0.45655  -0.45378  -0.45125
 Alpha  occ. eigenvalues --   -0.45061  -0.44704  -0.44648  -0.44421  -0.44053
 Alpha  occ. eigenvalues --   -0.43909  -0.43831  -0.43736  -0.43717  -0.43515
 Alpha  occ. eigenvalues --   -0.43386  -0.42939  -0.42711  -0.42520  -0.42434
 Alpha  occ. eigenvalues --   -0.42131  -0.42002  -0.41960  -0.41473  -0.41327
 Alpha  occ. eigenvalues --   -0.41207  -0.41073  -0.40729  -0.40670  -0.40368
 Alpha  occ. eigenvalues --   -0.40187  -0.39978  -0.39765  -0.39729  -0.39579
 Alpha  occ. eigenvalues --   -0.39291  -0.39125  -0.39000  -0.38943  -0.38737
 Alpha  occ. eigenvalues --   -0.38705  -0.38551  -0.38465  -0.38309  -0.38078
 Alpha  occ. eigenvalues --   -0.37995  -0.37806  -0.37634  -0.37305  -0.37059
 Alpha  occ. eigenvalues --   -0.37023  -0.36918  -0.36621  -0.36249  -0.36152
 Alpha  occ. eigenvalues --   -0.35815  -0.35760  -0.35170  -0.34867  -0.34845
 Alpha  occ. eigenvalues --   -0.34526  -0.34026  -0.33904  -0.33764  -0.33707
 Alpha  occ. eigenvalues --   -0.33353  -0.33127  -0.32720  -0.32643  -0.32297
 Alpha  occ. eigenvalues --   -0.32112  -0.31764  -0.31694  -0.31116  -0.31036
 Alpha  occ. eigenvalues --   -0.30757  -0.30684  -0.30159  -0.29762  -0.29374
 Alpha  occ. eigenvalues --   -0.29232  -0.29018  -0.28528  -0.26649  -0.26004
 Alpha  occ. eigenvalues --   -0.25975  -0.25830  -0.25458  -0.25279  -0.20829
 Alpha  occ. eigenvalues --   -0.18591
 Alpha virt. eigenvalues --   -0.11298  -0.05184  -0.03770  -0.02467  -0.01295
 Alpha virt. eigenvalues --   -0.00982  -0.00228   0.00612   0.01388   0.02843
 Alpha virt. eigenvalues --    0.04209   0.04275   0.04682   0.05250   0.05512

 Mulliken charges:
               1
     1  Mg   0.939329
     2  C   -0.036390
     3  C   -0.053859
     4  C   -0.035615
     5  C   -0.033607
     6  N   -0.344571
     7  C    0.046114
     8  C   -0.090844
     9  C   -0.105970
    10  C    0.016925
    11  C    0.054328
    12  C    0.051274
    13  C   -0.050044
    14  C    0.242144
    15  O   -0.261403
    16  O   -0.385793
    17  N   -0.567977
    18  C    0.167144
    19  C   -0.165840
    20  C   -0.113931
    21  C    0.178685
    22  C    0.072135
    23  C    0.060223
    24  O   -0.231761
    25  C   -0.041550
    26  N   -0.356831
    27  C    0.085997
    28  C   -0.147003
    29  C   -0.115458
    30  C    0.068696
    31  C    0.054948
    32  C   -0.029095
    33  C   -0.059901
    34  N   -0.436540
    35  C    0.069201
    36  C   -0.160715
    37  C   -0.060050
    38  C    0.166277
    39  C    0.057719
    40  C    0.190789
    41  O   -0.224288
    42  C   -0.126539
    43  C    0.281534
    44  O   -0.226482
    45  O   -0.396664
    46  C    0.134364
    47  C    0.243342
    48  C   -0.114828
    49  C   -0.191948
    50  C    0.003334
    51  C   -0.045157
    52  C    0.014172
    53  C   -0.065715
    54  C   -0.227581
    55  C   -0.009693
    56  C   -0.027339
    57  C    0.035562
    58  C   -0.048970
    59  C   -0.224872
    60  C   -0.013249
    61  C   -0.000493
    62  C   -0.029986
    63  C   -0.012409
    64  C   -0.231555
    65  C   -0.034925
    66  C   -0.023375
    67  H   -0.002979
    68  H    0.033155
    69  H   -0.006323
    70  H    0.053472
    71  H    0.052386
    72  H    0.045745
    73  H    0.052615
    74  H    0.041864
    75  H    0.038204
    76  H    0.033210
    77  H    0.085603
    78  H    0.072275
    79  H    0.037575
    80  H    0.045727
    81  H    0.056635
    82  H    0.049499
    83  H    0.068980
    84  H    0.051482
    85  H    0.036959
    86  H    0.041948
    87  H    0.031679
    88  H    0.055565
    89  H    0.045188
    90  H    0.039574
    91  H    0.040612
    92  H    0.071933
    93  H    0.041732
    94  H    0.049771
    95  H    0.054554
    96  H    0.065148
    97  H    0.044543
    98  H    0.062765
    99  H    0.067061
   100  H    0.026808
   101  H    0.060144
   102  H    0.046940
   103  H    0.038710
   104  H    0.032072
   105  H    0.049554
   106  H    0.047024
   107  H    0.073718
   108  H    0.021472
   109  H    0.025103
   110  H    0.039129
   111  H    0.035514
   112  H    0.046223
   113  H    0.031326
   114  H    0.026546
   115  H    0.035558
   116  H    0.039308
   117  H    0.018559
   118  H    0.020283
   119  H    0.013215
   120  H    0.026284
   121  H    0.034438
   122  H    0.020211
   123  H    0.026962
   124  H    0.031776
   125  H    0.028475
   126  H    0.033533
   127  H    0.041387
   128  H    0.018711
   129  H    0.016572
   130  H    0.030716
   131  H    0.037779
   132  H    0.020791
   133  H    0.016371
   134  H    0.040518
   135  H    0.025289
   136  H    0.029330
   137  H    0.040599
   138  H    0.045858
   139  H    0.028797
   140  H    0.046821
 Sum of Mulliken charges =  -0.00000

 Dipole moment (field-independent basis, Debye):
    X=             -3.3603    Y=              2.9916    Z=              2.4363  Tot=              5.1163
 Quadrupole moment (field-independent basis, Debye-Ang):
   XX=           -376.7706   YY=           -415.6781   ZZ=           -405.7309
   XY=              2.1603   XZ=             29.5665   YZ=             -4.6364

 Normal termination of Gaussian 16 at Thu Apr 28 18:24:12 2022.
