 Gaussian 16, Revision A.03,
 Gaussian 16:  ES64L-G16RevA.03 25-Dec-2016

 --------------------------------
 #p wB97XD/Def2SVP td=(nstates=5)
 --------------------------------

 -----------------------------------------------------
 step_1701_chromophore_13 TDDFT with wB97XD functional
 -----------------------------------------------------
 Symbolic Z-matrix:
 Charge =  0 Multiplicity = 1

                         Standard orientation:
 ---------------------------------------------------------------------
 Center     Atomic      Atomic             Coordinates (Angstroms)
 Number     Number       Type             X           Y           Z
 ---------------------------------------------------------------------
      1         12           0        6.009816    0.485944   -0.008087
      2          6           0        3.698803   -2.267287   -0.040909
      3          6           0        3.447499    2.459175   -0.621468
      4          6           0        8.396237    2.879931   -0.197267
      5          6           0        8.544399   -1.923566    0.768809
      6          7           0        3.902483    0.012099   -0.783461
      7          6           0        3.122084   -1.038991   -0.461721
      8          6           0        1.597400   -0.748889   -0.579082
      9          6           0        1.547961    0.758703   -0.955495
     10          6           0        3.043010    1.110521   -0.778457
     11          6           0        1.037044    1.139691   -2.282426
     12          6           0        0.708956   -1.208544    0.575530
     13          6           0       -0.578928   -2.094885    0.226638
     14          6           0       -1.955970   -1.551429    0.539544
     15          8           0       -2.155623   -0.462993    1.087108
     16          8           0       -2.931788   -2.577467    0.337763
     17          7           0        5.917240    2.439613   -0.448192
     18          6           0        4.731520    3.114403   -0.625286
     19          6           0        5.053126    4.571849   -0.608696
     20          6           0        6.477404    4.667032   -0.685912
     21          6           0        7.046637    3.311083   -0.492943
     22          6           0        4.045837    5.673787   -0.856094
     23          6           0        7.380051    5.850848   -0.901930
     24          8           0        8.580517    5.765714   -1.059466
     25          6           0        6.748060    7.207824   -0.951911
     26          7           0        8.239828    0.404750    0.036593
     27          6           0        8.903976    1.570549    0.048992
     28          6           0       10.331795    1.305172    0.356890
     29          6           0       10.297230   -0.076970    1.114578
     30          6           0        8.962045   -0.610658    0.647188
     31          6           0       11.228460    1.170186   -0.875460
     32          6           0       10.428250   -0.004699    2.660354
     33          6           0        9.156216   -0.220989    3.583077
     34          7           0        6.183862   -1.649689    0.147439
     35          6           0        7.263167   -2.452407    0.501738
     36          6           0        6.864775   -3.846987    0.675980
     37          6           0        5.503794   -3.754469    0.456684
     38          6           0        5.119639   -2.468472    0.103009
     39          6           0        7.644805   -4.996054    1.147195
     40          6           0        4.280273   -4.578536    0.487520
     41          8           0        4.119020   -5.808892    0.592789
     42          6           0        3.051576   -3.608932    0.046131
     43          6           0        2.378148   -4.028595   -1.203275
     44          8           0        2.731666   -3.737430   -2.323080
     45          8           0        1.418317   -5.020286   -0.890696
     46          6           0        0.409339   -5.397659   -1.892891
     47          6           0       -4.255029   -2.248570    0.756970
     48          6           0       -5.056916   -1.241275   -0.013287
     49          6           0       -6.338241   -1.275956   -0.259686
     50          6           0       -7.487400   -2.037537    0.468140
     51          6           0       -6.851063   -0.042939   -1.075790
     52          6           0       -7.176377    1.329620   -0.472311
     53          6           0       -8.688285    1.696467   -0.622625
     54          6           0       -9.386407    2.417295    0.571433
     55          6           0       -8.745298    3.772018    0.906939
     56          6           0       -9.604255    1.566733    1.871258
     57          6           0      -10.861992    1.762502    2.676790
     58          6           0      -12.080211    0.992105    2.034767
     59          6           0      -13.330062    1.788079    1.781413
     60          6           0      -14.025993    2.271809    3.143094
     61          6           0      -14.325022    0.952999    0.959721
     62          6           0      -13.996166    0.900104   -0.531211
     63          6           0      -13.987070   -0.534575   -1.030131
     64          6           0      -13.097273   -0.675355   -2.242375
     65          6           0      -13.650983   -1.723159   -3.286986
     66          6           0      -11.672496   -0.985864   -1.823883
     67          1           0        2.636567    3.189340   -0.660549
     68          1           0        9.111299    3.704429   -0.163527
     69          1           0        9.109757   -2.735594    1.231146
     70          1           0        1.262945   -1.290900   -1.463218
     71          1           0        1.115630    1.319553   -0.126275
     72          1           0        0.765431    0.281566   -2.897194
     73          1           0        1.726224    1.776613   -2.837939
     74          1           0        0.159460    1.764298   -2.119151
     75          1           0        0.398236   -0.340842    1.157771
     76          1           0        1.315966   -1.549237    1.414175
     77          1           0       -0.560359   -3.078177    0.696699
     78          1           0       -0.635735   -2.308440   -0.840127
     79          1           0        4.257198    6.272962    0.029177
     80          1           0        3.012582    5.361449   -0.706896
     81          1           0        4.294528    6.458773   -1.570483
     82          1           0        6.002632    7.364002   -0.172631
     83          1           0        6.281284    7.309469   -1.930909
     84          1           0        7.462271    8.029580   -0.898760
     85          1           0       10.614723    2.059677    1.090742
     86          1           0       11.071378   -0.759540    0.762741
     87          1           0       11.566201    0.134854   -0.915961
     88          1           0       12.060266    1.874664   -0.914713
     89          1           0       10.703976    1.271413   -1.825002
     90          1           0       10.907158    0.972737    2.709575
     91          1           0       11.132540   -0.814019    2.857195
     92          1           0        8.194711   -0.251330    3.070276
     93          1           0        9.160410    0.692119    4.178793
     94          1           0        9.332487   -1.052831    4.264399
     95          1           0        8.512467   -5.307330    0.566453
     96          1           0        7.046579   -5.871432    1.401855
     97          1           0        8.080874   -4.665084    2.089377
     98          1           0        2.206869   -3.703031    0.727579
     99          1           0        0.864598   -5.558438   -2.870395
    100          1           0       -0.357622   -4.642012   -2.060806
    101          1           0       -0.274871   -6.168049   -1.539068
    102          1           0       -4.254567   -1.941241    1.802367
    103          1           0       -4.765988   -3.211184    0.790199
    104          1           0       -4.392112   -0.562240   -0.547483
    105          1           0       -7.098234   -3.013368    0.758082
    106          1           0       -8.386281   -2.177143   -0.133191
    107          1           0       -7.741334   -1.315826    1.244605
    108          1           0       -7.733316   -0.342804   -1.641180
    109          1           0       -6.092769    0.197770   -1.821248
    110          1           0       -6.567048    2.056885   -1.008822
    111          1           0       -6.971806    1.249228    0.596029
    112          1           0       -9.239221    0.763559   -0.747279
    113          1           0       -8.939969    2.369413   -1.441348
    114          1           0      -10.307001    2.755345    0.095015
    115          1           0       -7.932804    3.598973    1.611926
    116          1           0       -9.354430    4.609129    1.249414
    117          1           0       -8.409941    4.135648   -0.063650
    118          1           0       -8.676820    1.616958    2.441067
    119          1           0       -9.607438    0.525245    1.548995
    120          1           0      -11.155299    2.807063    2.570055
    121          1           0      -10.721686    1.414880    3.700379
    122          1           0      -12.294302    0.153798    2.698110
    123          1           0      -11.755224    0.554006    1.091601
    124          1           0      -13.043520    2.642547    1.168713
    125          1           0      -13.487418    1.825797    3.978643
    126          1           0      -15.051023    1.962876    3.346715
    127          1           0      -13.997348    3.360994    3.177646
    128          1           0      -15.332912    1.332937    1.127790
    129          1           0      -14.376877   -0.042828    1.399627
    130          1           0      -12.983507    1.275485   -0.676887
    131          1           0      -14.710976    1.527612   -1.062959
    132          1           0      -14.992822   -0.949314   -1.090691
    133          1           0      -13.603129   -1.127553   -0.200182
    134          1           0      -13.080290    0.250774   -2.816636
    135          1           0      -13.710220   -2.725209   -2.862039
    136          1           0      -12.930298   -1.860385   -4.093626
    137          1           0      -14.644858   -1.492945   -3.670006
    138          1           0      -11.092896   -0.087078   -2.033497
    139          1           0      -11.198650   -1.762034   -2.425038
    140          1           0      -11.611318   -1.242333   -0.765743
 ---------------------------------------------------------------------

 SCF Done:  E(RwB97XD) =  -3007.83923658     A.U. after   20 cycles

 Excitation energies and oscillator strengths:

 Excited State   1:      Singlet-A      1.5455 eV  802.25 nm  f=0.3753  <S**2>=0.000
     245 -> 248        0.17890
     246 -> 247        0.68527
     245 <- 248        0.11994
 This state for optimization and/or second-order correction.
 Total Energy, E(TD-HF/TD-DFT) =  -3007.78244185
 Copying the excited state density for this state as the 1-particle RhoCI density.

 Excited State   2:      Singlet-A      2.0990 eV  590.67 nm  f=0.1133  <S**2>=0.000
     245 -> 247        0.64288
     246 -> 248       -0.27874

 Excited State   3:      Singlet-A      3.3755 eV  367.30 nm  f=0.0077  <S**2>=0.000
     243 -> 249       -0.11737
     244 -> 247        0.65497
     246 -> 248        0.11150

 Excited State   4:      Singlet-A      3.4398 eV  360.44 nm  f=0.1034  <S**2>=0.000
     242 -> 247        0.15183
     242 -> 249       -0.16958
     243 -> 247        0.49734
     244 -> 247       -0.19462
     245 -> 247        0.10277
     246 -> 248        0.31238

 Excited State   5:      Singlet-A      3.4877 eV  355.49 nm  f=0.2765  <S**2>=0.000
     240 -> 247       -0.15929
     242 -> 247       -0.38282
     242 -> 249        0.17550
     242 -> 250       -0.10021
     243 -> 249        0.13566
     245 -> 247        0.17774
     246 -> 248        0.45358

 The electronic state is 1-A.
 Alpha  occ. eigenvalues --  -46.95920 -19.30922 -19.29389 -19.26393 -19.25080
 Alpha  occ. eigenvalues --  -19.24243 -19.23875 -14.46793 -14.46115 -14.44563
 Alpha  occ. eigenvalues --  -14.43701 -10.44632 -10.43063 -10.39683 -10.38911
 Alpha  occ. eigenvalues --  -10.35498 -10.35490 -10.35418 -10.35323 -10.35141
 Alpha  occ. eigenvalues --  -10.35137 -10.34485 -10.34445 -10.33696 -10.33525
 Alpha  occ. eigenvalues --  -10.32980 -10.32710 -10.32435 -10.32078 -10.31988
 Alpha  occ. eigenvalues --  -10.31762 -10.31730 -10.31607 -10.31521 -10.31426
 Alpha  occ. eigenvalues --  -10.31336 -10.31198 -10.31126 -10.30925 -10.30917
 Alpha  occ. eigenvalues --  -10.30752 -10.30707 -10.30485 -10.30120 -10.29837
 Alpha  occ. eigenvalues --  -10.29764 -10.29731 -10.29640 -10.29625 -10.29543
 Alpha  occ. eigenvalues --  -10.29423 -10.29386 -10.29246 -10.29204 -10.29158
 Alpha  occ. eigenvalues --  -10.28990 -10.28977 -10.28730 -10.28465 -10.28425
 Alpha  occ. eigenvalues --  -10.28416 -10.28373 -10.28298 -10.28101 -10.28099
 Alpha  occ. eigenvalues --  -10.28026  -3.21768  -1.95332  -1.94912  -1.94712
 Alpha  occ. eigenvalues --   -1.18061  -1.17075  -1.12838  -1.10919  -1.10647
 Alpha  occ. eigenvalues --   -1.09711  -1.06203  -1.05561  -1.05014  -1.03263
 Alpha  occ. eigenvalues --   -0.93946  -0.92424  -0.92127  -0.91849  -0.90874
 Alpha  occ. eigenvalues --   -0.90422  -0.89753  -0.89614  -0.89468  -0.89179
 Alpha  occ. eigenvalues --   -0.88947  -0.87698  -0.86341  -0.85409  -0.85219
 Alpha  occ. eigenvalues --   -0.84314  -0.83810  -0.83362  -0.82680  -0.82183
 Alpha  occ. eigenvalues --   -0.81792  -0.80700  -0.80439  -0.78969  -0.78118
 Alpha  occ. eigenvalues --   -0.77824  -0.77360  -0.77264  -0.76534  -0.76155
 Alpha  occ. eigenvalues --   -0.75861  -0.74885  -0.73930  -0.73291  -0.71946
 Alpha  occ. eigenvalues --   -0.70623  -0.70398  -0.69297  -0.68989  -0.67627
 Alpha  occ. eigenvalues --   -0.67573  -0.66877  -0.66569  -0.66357  -0.66037
 Alpha  occ. eigenvalues --   -0.65252  -0.64392  -0.63303  -0.63165  -0.62391
 Alpha  occ. eigenvalues --   -0.61757  -0.61678  -0.60788  -0.60498  -0.59671
 Alpha  occ. eigenvalues --   -0.59531  -0.58825  -0.58133  -0.57797  -0.57454
 Alpha  occ. eigenvalues --   -0.57036  -0.56875  -0.56702  -0.56342  -0.55966
 Alpha  occ. eigenvalues --   -0.55883  -0.55797  -0.55592  -0.54921  -0.54820
 Alpha  occ. eigenvalues --   -0.54690  -0.54248  -0.54100  -0.53896  -0.53723
 Alpha  occ. eigenvalues --   -0.53487  -0.53243  -0.52992  -0.52720  -0.52513
 Alpha  occ. eigenvalues --   -0.52391  -0.52038  -0.51999  -0.51766  -0.51412
 Alpha  occ. eigenvalues --   -0.51207  -0.51130  -0.51027  -0.51002  -0.50821
 Alpha  occ. eigenvalues --   -0.50641  -0.50322  -0.49991  -0.49801  -0.49693
 Alpha  occ. eigenvalues --   -0.49426  -0.49154  -0.49099  -0.48710  -0.48556
 Alpha  occ. eigenvalues --   -0.48428  -0.48306  -0.47908  -0.47834  -0.47523
 Alpha  occ. eigenvalues --   -0.47379  -0.47150  -0.47021  -0.46883  -0.46745
 Alpha  occ. eigenvalues --   -0.46456  -0.46282  -0.46193  -0.46124  -0.45901
 Alpha  occ. eigenvalues --   -0.45845  -0.45706  -0.45607  -0.45495  -0.45263
 Alpha  occ. eigenvalues --   -0.45215  -0.44858  -0.44714  -0.44432  -0.44202
 Alpha  occ. eigenvalues --   -0.44153  -0.44111  -0.43742  -0.43426  -0.43265
 Alpha  occ. eigenvalues --   -0.42879  -0.42804  -0.42285  -0.41954  -0.41831
 Alpha  occ. eigenvalues --   -0.41475  -0.41010  -0.40954  -0.40774  -0.40719
 Alpha  occ. eigenvalues --   -0.40292  -0.40186  -0.39721  -0.39554  -0.39325
 Alpha  occ. eigenvalues --   -0.39139  -0.38800  -0.38739  -0.38009  -0.37999
 Alpha  occ. eigenvalues --   -0.37850  -0.37659  -0.37132  -0.36804  -0.36224
 Alpha  occ. eigenvalues --   -0.36142  -0.35987  -0.35245  -0.33328  -0.32955
 Alpha  occ. eigenvalues --   -0.32775  -0.32648  -0.32198  -0.31923  -0.25791
 Alpha  occ. eigenvalues --   -0.22705
 Alpha virt. eigenvalues --   -0.07236   0.00271   0.02494   0.04035   0.04613
 Alpha virt. eigenvalues --    0.05883   0.06477   0.07423   0.08088   0.09504
 Alpha virt. eigenvalues --    0.10767   0.10897   0.11311   0.11845   0.12146

 Mulliken charges:
               1
     1  Mg   0.931013
     2  C   -0.038560
     3  C   -0.067551
     4  C   -0.048959
     5  C   -0.050502
     6  N   -0.317534
     7  C    0.022049
     8  C   -0.065815
     9  C   -0.078343
    10  C    0.011983
    11  C    0.060448
    12  C    0.058014
    13  C   -0.030193
    14  C    0.233391
    15  O   -0.258459
    16  O   -0.385725
    17  N   -0.541173
    18  C    0.157400
    19  C   -0.154316
    20  C   -0.105263
    21  C    0.164870
    22  C    0.087125
    23  C    0.056417
    24  O   -0.225549
    25  C   -0.029258
    26  N   -0.323806
    27  C    0.067243
    28  C   -0.112576
    29  C   -0.090778
    30  C    0.057439
    31  C    0.060654
    32  C   -0.019313
    33  C   -0.038052
    34  N   -0.401400
    35  C    0.061405
    36  C   -0.153434
    37  C   -0.054549
    38  C    0.146867
    39  C    0.065410
    40  C    0.170575
    41  O   -0.214901
    42  C   -0.084707
    43  C    0.253963
    44  O   -0.219750
    45  O   -0.394620
    46  C    0.149571
    47  C    0.258502
    48  C   -0.123584
    49  C   -0.181530
    50  C    0.022981
    51  C   -0.022123
    52  C    0.025787
    53  C   -0.032526
    54  C   -0.199018
    55  C    0.000137
    56  C   -0.001725
    57  C    0.051179
    58  C   -0.024294
    59  C   -0.187976
    60  C   -0.003340
    61  C    0.013221
    62  C   -0.009854
    63  C    0.003240
    64  C   -0.198738
    65  C   -0.021777
    66  C   -0.010345
    67  H   -0.012132
    68  H    0.030022
    69  H   -0.012165
    70  H    0.036125
    71  H    0.041891
    72  H    0.041311
    73  H    0.046673
    74  H    0.037012
    75  H    0.031151
    76  H    0.025987
    77  H    0.080661
    78  H    0.062535
    79  H    0.027733
    80  H    0.043110
    81  H    0.050861
    82  H    0.043226
    83  H    0.063328
    84  H    0.050609
    85  H    0.026229
    86  H    0.031166
    87  H    0.024768
    88  H    0.051157
    89  H    0.039792
    90  H    0.030469
    91  H    0.033659
    92  H    0.060381
    93  H    0.035675
    94  H    0.044993
    95  H    0.050857
    96  H    0.062979
    97  H    0.038079
    98  H    0.051851
    99  H    0.064075
   100  H    0.021068
   101  H    0.057247
   102  H    0.041553
   103  H    0.033561
   104  H    0.028027
   105  H    0.043961
   106  H    0.042041
   107  H    0.064299
   108  H    0.010477
   109  H    0.017194
   110  H    0.033553
   111  H    0.022509
   112  H    0.018938
   113  H    0.023795
   114  H    0.012606
   115  H    0.028401
   116  H    0.034903
   117  H    0.011253
   118  H    0.011704
   119  H   -0.003500
   120  H    0.013537
   121  H    0.029249
   122  H    0.011343
   123  H   -0.000777
   124  H    0.017589
   125  H    0.021530
   126  H    0.028543
   127  H    0.036328
   128  H    0.010944
   129  H    0.005363
   130  H    0.014384
   131  H    0.031557
   132  H    0.014198
   133  H    0.002303
   134  H    0.029143
   135  H    0.018036
   136  H    0.023143
   137  H    0.035366
   138  H    0.037972
   139  H    0.023908
   140  H    0.039717
 Sum of Mulliken charges =  -0.00000

 Dipole moment (field-independent basis, Debye):
    X=             -3.4255    Y=              3.1160    Z=              2.4340  Tot=              5.2314
 Quadrupole moment (field-independent basis, Debye-Ang):
   XX=           -377.5702   YY=           -413.7705   ZZ=           -405.3233
   XY=              3.3476   XZ=             29.5389   YZ=             -4.6472

 Normal termination of Gaussian 16 at Thu Apr 28 18:54:08 2022.
