 Gaussian 16, Revision A.03,
 Gaussian 16:  ES64L-G16RevA.03 25-Dec-2016

 --------------------
 #p ZINDO=(nstates=5)
 --------------------

 ------------------------------
 step_1701_chromophore_13 ZINDO
 ------------------------------
 Symbolic Z-matrix:
 Charge =  0 Multiplicity = 1

                         Standard orientation:
 ---------------------------------------------------------------------
 Center     Atomic      Atomic             Coordinates (Angstroms)
 Number     Number       Type             X           Y           Z
 ---------------------------------------------------------------------
      1         12           0        6.009816    0.485944   -0.008087
      2          6           0        3.698803   -2.267287   -0.040909
      3          6           0        3.447499    2.459175   -0.621468
      4          6           0        8.396237    2.879931   -0.197267
      5          6           0        8.544399   -1.923566    0.768809
      6          7           0        3.902483    0.012099   -0.783461
      7          6           0        3.122084   -1.038991   -0.461721
      8          6           0        1.597400   -0.748889   -0.579082
      9          6           0        1.547961    0.758703   -0.955495
     10          6           0        3.043010    1.110521   -0.778457
     11          6           0        1.037044    1.139691   -2.282426
     12          6           0        0.708956   -1.208544    0.575530
     13          6           0       -0.578928   -2.094885    0.226638
     14          6           0       -1.955970   -1.551429    0.539544
     15          8           0       -2.155623   -0.462993    1.087108
     16          8           0       -2.931788   -2.577467    0.337763
     17          7           0        5.917240    2.439613   -0.448192
     18          6           0        4.731520    3.114403   -0.625286
     19          6           0        5.053126    4.571849   -0.608696
     20          6           0        6.477404    4.667032   -0.685912
     21          6           0        7.046637    3.311083   -0.492943
     22          6           0        4.045837    5.673787   -0.856094
     23          6           0        7.380051    5.850848   -0.901930
     24          8           0        8.580517    5.765714   -1.059466
     25          6           0        6.748060    7.207824   -0.951911
     26          7           0        8.239828    0.404750    0.036593
     27          6           0        8.903976    1.570549    0.048992
     28          6           0       10.331795    1.305172    0.356890
     29          6           0       10.297230   -0.076970    1.114578
     30          6           0        8.962045   -0.610658    0.647188
     31          6           0       11.228460    1.170186   -0.875460
     32          6           0       10.428250   -0.004699    2.660354
     33          6           0        9.156216   -0.220989    3.583077
     34          7           0        6.183862   -1.649689    0.147439
     35          6           0        7.263167   -2.452407    0.501738
     36          6           0        6.864775   -3.846987    0.675980
     37          6           0        5.503794   -3.754469    0.456684
     38          6           0        5.119639   -2.468472    0.103009
     39          6           0        7.644805   -4.996054    1.147195
     40          6           0        4.280273   -4.578536    0.487520
     41          8           0        4.119020   -5.808892    0.592789
     42          6           0        3.051576   -3.608932    0.046131
     43          6           0        2.378148   -4.028595   -1.203275
     44          8           0        2.731666   -3.737430   -2.323080
     45          8           0        1.418317   -5.020286   -0.890696
     46          6           0        0.409339   -5.397659   -1.892891
     47          6           0       -4.255029   -2.248570    0.756970
     48          6           0       -5.056916   -1.241275   -0.013287
     49          6           0       -6.338241   -1.275956   -0.259686
     50          6           0       -7.487400   -2.037537    0.468140
     51          6           0       -6.851063   -0.042939   -1.075790
     52          6           0       -7.176377    1.329620   -0.472311
     53          6           0       -8.688285    1.696467   -0.622625
     54          6           0       -9.386407    2.417295    0.571433
     55          6           0       -8.745298    3.772018    0.906939
     56          6           0       -9.604255    1.566733    1.871258
     57          6           0      -10.861992    1.762502    2.676790
     58          6           0      -12.080211    0.992105    2.034767
     59          6           0      -13.330062    1.788079    1.781413
     60          6           0      -14.025993    2.271809    3.143094
     61          6           0      -14.325022    0.952999    0.959721
     62          6           0      -13.996166    0.900104   -0.531211
     63          6           0      -13.987070   -0.534575   -1.030131
     64          6           0      -13.097273   -0.675355   -2.242375
     65          6           0      -13.650983   -1.723159   -3.286986
     66          6           0      -11.672496   -0.985864   -1.823883
     67          1           0        2.636567    3.189340   -0.660549
     68          1           0        9.111299    3.704429   -0.163527
     69          1           0        9.109757   -2.735594    1.231146
     70          1           0        1.262945   -1.290900   -1.463218
     71          1           0        1.115630    1.319553   -0.126275
     72          1           0        0.765431    0.281566   -2.897194
     73          1           0        1.726224    1.776613   -2.837939
     74          1           0        0.159460    1.764298   -2.119151
     75          1           0        0.398236   -0.340842    1.157771
     76          1           0        1.315966   -1.549237    1.414175
     77          1           0       -0.560359   -3.078177    0.696699
     78          1           0       -0.635735   -2.308440   -0.840127
     79          1           0        4.257198    6.272962    0.029177
     80          1           0        3.012582    5.361449   -0.706896
     81          1           0        4.294528    6.458773   -1.570483
     82          1           0        6.002632    7.364002   -0.172631
     83          1           0        6.281284    7.309469   -1.930909
     84          1           0        7.462271    8.029580   -0.898760
     85          1           0       10.614723    2.059677    1.090742
     86          1           0       11.071378   -0.759540    0.762741
     87          1           0       11.566201    0.134854   -0.915961
     88          1           0       12.060266    1.874664   -0.914713
     89          1           0       10.703976    1.271413   -1.825002
     90          1           0       10.907158    0.972737    2.709575
     91          1           0       11.132540   -0.814019    2.857195
     92          1           0        8.194711   -0.251330    3.070276
     93          1           0        9.160410    0.692119    4.178793
     94          1           0        9.332487   -1.052831    4.264399
     95          1           0        8.512467   -5.307330    0.566453
     96          1           0        7.046579   -5.871432    1.401855
     97          1           0        8.080874   -4.665084    2.089377
     98          1           0        2.206869   -3.703031    0.727579
     99          1           0        0.864598   -5.558438   -2.870395
    100          1           0       -0.357622   -4.642012   -2.060806
    101          1           0       -0.274871   -6.168049   -1.539068
    102          1           0       -4.254567   -1.941241    1.802367
    103          1           0       -4.765988   -3.211184    0.790199
    104          1           0       -4.392112   -0.562240   -0.547483
    105          1           0       -7.098234   -3.013368    0.758082
    106          1           0       -8.386281   -2.177143   -0.133191
    107          1           0       -7.741334   -1.315826    1.244605
    108          1           0       -7.733316   -0.342804   -1.641180
    109          1           0       -6.092769    0.197770   -1.821248
    110          1           0       -6.567048    2.056885   -1.008822
    111          1           0       -6.971806    1.249228    0.596029
    112          1           0       -9.239221    0.763559   -0.747279
    113          1           0       -8.939969    2.369413   -1.441348
    114          1           0      -10.307001    2.755345    0.095015
    115          1           0       -7.932804    3.598973    1.611926
    116          1           0       -9.354430    4.609129    1.249414
    117          1           0       -8.409941    4.135648   -0.063650
    118          1           0       -8.676820    1.616958    2.441067
    119          1           0       -9.607438    0.525245    1.548995
    120          1           0      -11.155299    2.807063    2.570055
    121          1           0      -10.721686    1.414880    3.700379
    122          1           0      -12.294302    0.153798    2.698110
    123          1           0      -11.755224    0.554006    1.091601
    124          1           0      -13.043520    2.642547    1.168713
    125          1           0      -13.487418    1.825797    3.978643
    126          1           0      -15.051023    1.962876    3.346715
    127          1           0      -13.997348    3.360994    3.177646
    128          1           0      -15.332912    1.332937    1.127790
    129          1           0      -14.376877   -0.042828    1.399627
    130          1           0      -12.983507    1.275485   -0.676887
    131          1           0      -14.710976    1.527612   -1.062959
    132          1           0      -14.992822   -0.949314   -1.090691
    133          1           0      -13.603129   -1.127553   -0.200182
    134          1           0      -13.080290    0.250774   -2.816636
    135          1           0      -13.710220   -2.725209   -2.862039
    136          1           0      -12.930298   -1.860385   -4.093626
    137          1           0      -14.644858   -1.492945   -3.670006
    138          1           0      -11.092896   -0.087078   -2.033497
    139          1           0      -11.198650   -1.762034   -2.425038
    140          1           0      -11.611318   -1.242333   -0.765743
 ---------------------------------------------------------------------

 SCF Done:  E(RZINDO/S) =  -474.164283303     A.U. after   19 cycles

 Excitation energies and oscillator strengths:

 Excited State   1:      Singlet-A      1.1305 eV 1096.73 nm  f=0.5904  <S**2>=0.000
     175 ->178         0.18985
     176 ->177         0.66265
 This state for optimization and/or second-order correction.
 Total Energy, E(CIS/TDA) =  -474.122738451
 Copying the excited state density for this state as the 1-particle RhoCI density.

 Excited State   2:      Singlet-A      1.8497 eV  670.30 nm  f=0.0586  <S**2>=0.000
     175 ->177         0.56663
     176 ->178        -0.39853

 Excited State   3:      Singlet-A      2.9155 eV  425.25 nm  f=0.1262  <S**2>=0.000
     168 ->179        -0.15458
     169 ->177        -0.15792
     169 ->179        -0.19789
     170 ->179         0.15345
     173 ->177         0.10714
     175 ->177        -0.13171
     176 ->178        -0.19248
     176 ->179         0.42089

 Excited State   4:      Singlet-A      2.9492 eV  420.40 nm  f=0.8477  <S**2>=0.000
     168 ->177        -0.10040
     175 ->177         0.31195
     176 ->178         0.47581
     176 ->179         0.26707
     176 ->181         0.10181

 Excited State   5:      Singlet-A      3.0032 eV  412.84 nm  f=0.0880  <S**2>=0.000
     168 ->179         0.22308
     169 ->177         0.18912
     169 ->179         0.21849
     169 ->181        -0.16207
     170 ->179        -0.11942
     174 ->177        -0.11519
     175 ->177        -0.10322
     176 ->178        -0.13701
     176 ->179         0.38491
     176 ->182         0.13682

 The electronic state is 1-A.
 Alpha  occ. eigenvalues --   -1.83970  -1.81449  -1.78201  -1.71857  -1.70532
 Alpha  occ. eigenvalues --   -1.69916  -1.67572  -1.61478  -1.59500  -1.55465
 Alpha  occ. eigenvalues --   -1.55444  -1.51596  -1.48843  -1.48640  -1.44891
 Alpha  occ. eigenvalues --   -1.44184  -1.42612  -1.39531  -1.39303  -1.39097
 Alpha  occ. eigenvalues --   -1.36486  -1.34584  -1.32720  -1.31058  -1.28577
 Alpha  occ. eigenvalues --   -1.27832  -1.23820  -1.22008  -1.20663  -1.17791
 Alpha  occ. eigenvalues --   -1.17202  -1.16362  -1.15500  -1.13737  -1.13066
 Alpha  occ. eigenvalues --   -1.12305  -1.10952  -1.10754  -1.06557  -1.04895
 Alpha  occ. eigenvalues --   -1.03848  -1.02583  -1.00458  -0.98631  -0.97420
 Alpha  occ. eigenvalues --   -0.97342  -0.95544  -0.94929  -0.93335  -0.93053
 Alpha  occ. eigenvalues --   -0.90048  -0.89787  -0.88042  -0.87757  -0.84940
 Alpha  occ. eigenvalues --   -0.84205  -0.83859  -0.83327  -0.81185  -0.80101
 Alpha  occ. eigenvalues --   -0.80063  -0.78429  -0.78352  -0.76405  -0.75994
 Alpha  occ. eigenvalues --   -0.75246  -0.74986  -0.74633  -0.74311  -0.73704
 Alpha  occ. eigenvalues --   -0.73172  -0.72465  -0.72216  -0.71654  -0.71289
 Alpha  occ. eigenvalues --   -0.70732  -0.68978  -0.68470  -0.68152  -0.67743
 Alpha  occ. eigenvalues --   -0.67417  -0.66999  -0.66535  -0.65924  -0.65704
 Alpha  occ. eigenvalues --   -0.65197  -0.64315  -0.63912  -0.63423  -0.63135
 Alpha  occ. eigenvalues --   -0.62938  -0.62654  -0.62327  -0.61921  -0.61525
 Alpha  occ. eigenvalues --   -0.61088  -0.60879  -0.60049  -0.59866  -0.59461
 Alpha  occ. eigenvalues --   -0.59336  -0.59109  -0.59017  -0.58577  -0.58119
 Alpha  occ. eigenvalues --   -0.57967  -0.57798  -0.57372  -0.57312  -0.56756
 Alpha  occ. eigenvalues --   -0.56191  -0.56035  -0.55206  -0.55092  -0.54549
 Alpha  occ. eigenvalues --   -0.53856  -0.53758  -0.53554  -0.53021  -0.52789
 Alpha  occ. eigenvalues --   -0.52577  -0.52056  -0.51952  -0.51535  -0.51295
 Alpha  occ. eigenvalues --   -0.50957  -0.50665  -0.50523  -0.50329  -0.50088
 Alpha  occ. eigenvalues --   -0.49837  -0.49658  -0.49464  -0.49220  -0.49075
 Alpha  occ. eigenvalues --   -0.48800  -0.48370  -0.47852  -0.47783  -0.47681
 Alpha  occ. eigenvalues --   -0.47401  -0.47112  -0.46753  -0.46499  -0.46252
 Alpha  occ. eigenvalues --   -0.45990  -0.45716  -0.45238  -0.45139  -0.45108
 Alpha  occ. eigenvalues --   -0.44969  -0.44564  -0.44446  -0.44292  -0.43854
 Alpha  occ. eigenvalues --   -0.43444  -0.43215  -0.42627  -0.42348  -0.42151
 Alpha  occ. eigenvalues --   -0.42095  -0.41770  -0.41557  -0.39727  -0.38722
 Alpha  occ. eigenvalues --   -0.38080  -0.37052  -0.35352  -0.35020  -0.34472
 Alpha  occ. eigenvalues --   -0.33492  -0.32997  -0.32517  -0.31702  -0.26274
 Alpha  occ. eigenvalues --   -0.21238
 Alpha virt. eigenvalues --   -0.08625  -0.01663  -0.00419   0.00623   0.00927
 Alpha virt. eigenvalues --    0.01824   0.02451   0.02805   0.04822   0.04835
 Alpha virt. eigenvalues --    0.06193   0.06887   0.07193   0.07770   0.08373

 Mulliken charges:
               1
     1  Mg   0.439254
     2  C   -0.077159
     3  C   -0.102225
     4  C   -0.063631
     5  C   -0.063354
     6  N   -0.294009
     7  C    0.143813
     8  C    0.009835
     9  C    0.015362
    10  C    0.147844
    11  C   -0.036234
    12  C   -0.033394
    13  C    0.008256
    14  C    0.463795
    15  O   -0.508494
    16  O   -0.276639
    17  N   -0.328553
    18  C    0.122015
    19  C    0.003126
    20  C   -0.037639
    21  C    0.108386
    22  C   -0.057819
    23  C    0.334496
    24  O   -0.520017
    25  C   -0.031764
    26  N   -0.278955
    27  C    0.154365
    28  C    0.012973
    29  C   -0.006040
    30  C    0.122338
    31  C   -0.045275
    32  C   -0.039785
    33  C   -0.055534
    34  N   -0.330965
    35  C    0.083535
    36  C    0.041206
    37  C   -0.044608
    38  C    0.127992
    39  C   -0.030032
    40  C    0.319278
    41  O   -0.519237
    42  C    0.054125
    43  C    0.486174
    44  O   -0.502531
    45  O   -0.283705
    46  C    0.070278
    47  C    0.106292
    48  C   -0.050821
    49  C   -0.018961
    50  C   -0.044733
    51  C   -0.038479
    52  C   -0.025151
    53  C   -0.037133
    54  C   -0.016159
    55  C   -0.062316
    56  C   -0.029394
    57  C   -0.034593
    58  C   -0.033433
    59  C   -0.006838
    60  C   -0.066479
    61  C   -0.037274
    62  C   -0.033335
    63  C   -0.028681
    64  C   -0.003296
    65  C   -0.063868
    66  C   -0.054322
    67  H    0.015015
    68  H    0.049461
    69  H    0.028982
    70  H    0.034441
    71  H    0.033708
    72  H    0.027798
    73  H    0.025592
    74  H    0.016361
    75  H    0.027768
    76  H    0.029035
    77  H    0.049203
    78  H    0.044875
    79  H    0.018818
    80  H    0.036350
    81  H    0.047753
    82  H    0.031116
    83  H    0.039053
    84  H    0.032095
    85  H    0.028326
    86  H    0.027446
    87  H    0.020907
    88  H    0.025955
    89  H    0.024162
    90  H    0.030232
    91  H    0.017619
    92  H    0.038965
    93  H    0.012339
    94  H    0.027437
    95  H    0.035056
    96  H    0.035567
    97  H    0.021300
    98  H    0.049379
    99  H    0.054118
   100  H    0.022568
   101  H    0.041084
   102  H    0.044455
   103  H    0.026072
   104  H    0.039953
   105  H    0.028262
   106  H    0.026662
   107  H    0.039521
   108  H    0.012501
   109  H    0.010023
   110  H    0.028474
   111  H    0.027050
   112  H    0.015772
   113  H    0.021606
   114  H    0.011308
   115  H    0.020330
   116  H    0.020938
   117  H    0.009319
   118  H    0.015781
   119  H    0.004056
   120  H    0.022358
   121  H    0.026487
   122  H    0.013621
   123  H    0.015630
   124  H    0.021566
   125  H    0.016132
   126  H    0.022513
   127  H    0.018678
   128  H    0.009546
   129  H    0.016186
   130  H    0.021027
   131  H    0.021665
   132  H    0.017027
   133  H    0.013277
   134  H    0.017793
   135  H    0.012328
   136  H    0.014143
   137  H    0.020280
   138  H    0.014268
   139  H    0.017551
   140  H    0.024085
 Sum of Mulliken charges =  -0.00000

 Dipole moment (field-independent basis, Debye):
    X=             -4.3853    Y=              4.7452    Z=              4.1944  Tot=              7.7033
 N-N= 4.285361276313D+03 E-N= 0.000000000000D+00  KE=-9.245092742288D+03
 Leave Link  601 at Thu Apr 28 19:07:10 2022, MaxMem=  6710886400 cpu:               1.1 elap:               0.1
 (Enter /sw/apps/gaussian-16.0/g16/l9999.exe)
 1\1\GINC-BP1-COMPUTE166\SP\RZINDO CIS\STO-3G\C55H74Mg1N4O6\OF15641\28-
 Apr-2022\0\\#p ZINDO=(nstates=5)\\step_1701_chromophore_13 ZINDO\\0,1\
 Mg,0,47.088,24.711,28.633\C,0,47.697,27.088,31.26\C,0,45.871,22.695,30
 .933\C,0,46.855,22.536,26.049\C,0,48.367,27.187,26.382\N,0,47.299,24.7
 4,30.918\C,0,47.287,25.813,31.734\C,0,46.775,25.504,33.171\C,0,46.36,2
 4.008,33.089\C,0,46.511,23.789,31.566\C,0,47.118,23.02,33.874\C,0,45.7
 63,26.476,33.775\C,0,46.07,27.074,35.229\C,0,45.129,26.758,36.371\O,0,

 Normal termination of Gaussian 16 at Thu Apr 28 19:07:11 2022.
