 Gaussian 16, Revision A.03,
 Gaussian 16:  ES64L-G16RevA.03 25-Dec-2016

 ------------------------------
 #p blyp/Def2SVP td=(nstates=5)
 ------------------------------

 --------------------------------------------------
 step_351_chromophore_21 TDDFT with blyp functional
 --------------------------------------------------
 Symbolic Z-matrix:
 Charge =  0 Multiplicity = 1

                         Standard orientation:
 ---------------------------------------------------------------------
 Center     Atomic      Atomic             Coordinates (Angstroms)
 Number     Number       Type             X           Y           Z
 ---------------------------------------------------------------------
      1         12           0        4.637889    1.226553    0.451133
      2          6           0        4.477278   -2.223222    0.708292
      3          6           0        1.347569    1.265804   -0.425223
      4          6           0        5.040098    4.404801   -0.219304
      5          6           0        8.249072    0.789451    0.706415
      6          7           0        3.115668   -0.276227    0.396645
      7          6           0        3.240920   -1.622567    0.641559
      8          6           0        1.928926   -2.334606    0.446504
      9          6           0        1.003526   -1.219481   -0.223326
     10          6           0        1.891769    0.026316   -0.060498
     11          6           0        0.682893   -1.518862   -1.759820
     12          6           0        1.441698   -2.816428    1.829979
     13          6           0        0.692726   -4.119537    1.922752
     14          6           0       -0.280164   -4.555711    0.789658
     15          8           0       -0.143428   -5.460676   -0.054000
     16          8           0       -1.553407   -3.951177    0.979427
     17          7           0        3.335513    2.696799   -0.039480
     18          6           0        2.016209    2.509726   -0.412888
     19          6           0        1.488105    3.757973   -0.767115
     20          6           0        2.577747    4.742007   -0.787280
     21          6           0        3.766987    3.930089   -0.295243
     22          6           0        0.025003    4.025977   -1.139316
     23          6           0        2.677196    6.170298   -1.181136
     24          8           0        3.643557    6.896201   -0.996667
     25          6           0        1.498184    6.713910   -1.844696
     26          7           0        6.390914    2.421684    0.475100
     27          6           0        6.297560    3.719340    0.026045
     28          6           0        7.627053    4.521576    0.105108
     29          6           0        8.582140    3.363762    0.352764
     30          6           0        7.703050    2.078945    0.587106
     31          6           0        7.982251    5.167149   -1.307237
     32          6           0        9.628634    3.663247    1.561063
     33          6           0       11.120129    3.248544    1.467347
     34          7           0        6.052011   -0.348172    0.684020
     35          6           0        7.430056   -0.356215    0.685208
     36          6           0        7.871476   -1.754620    0.673594
     37          6           0        6.717056   -2.494007    0.796911
     38          6           0        5.718034   -1.632534    0.792994
     39          6           0        9.321728   -2.119704    0.711453
     40          6           0        6.229575   -3.846494    0.781524
     41          8           0        6.838841   -4.897304    0.689692
     42          6           0        4.699693   -3.763247    0.803891
     43          6           0        4.257549   -4.610091   -0.381114
     44          8           0        4.627662   -4.409452   -1.494927
     45          8           0        3.428342   -5.609066    0.102372
     46          6           0        2.944790   -6.413536   -1.068500
     47          6           0       -2.696692   -4.356221    0.142869
     48          6           0       -3.271326   -3.079503   -0.294366
     49          6           0       -3.363644   -2.501384   -1.474759
     50          6           0       -2.968983   -3.160645   -2.815334
     51          6           0       -3.689347   -1.016604   -1.701680
     52          6           0       -4.999685   -0.273869   -1.424404
     53          6           0       -6.285155   -1.071566   -1.759554
     54          6           0       -7.275728   -1.124790   -0.623665
     55          6           0       -6.959651   -2.324179    0.305998
     56          6           0       -8.708158   -1.149429   -1.160330
     57          6           0       -9.630016   -0.351003   -0.257761
     58          6           0      -10.399388    0.793546   -0.842254
     59          6           0      -11.882327    0.346132   -0.990179
     60          6           0      -12.134997   -0.123738   -2.437481
     61          6           0      -12.897921    1.492970   -0.659807
     62          6           0      -13.788527    1.116821    0.588801
     63          6           0      -13.445377    1.972448    1.871777
     64          6           0      -14.564781    2.916020    2.414312
     65          6           0      -13.870993    4.228503    2.804982
     66          6           0      -15.294711    2.301727    3.729752
     67          1           0        0.346887    1.350593   -0.851852
     68          1           0        5.229706    5.432443   -0.535720
     69          1           0        9.330839    0.730482    0.846386
     70          1           0        2.037253   -3.123978   -0.296863
     71          1           0        0.074563   -1.193573    0.345041
     72          1           0        0.195155   -2.474959   -1.948644
     73          1           0        1.594405   -1.656702   -2.340544
     74          1           0        0.093511   -0.772786   -2.292304
     75          1           0        0.874947   -2.059817    2.371944
     76          1           0        2.385429   -3.053083    2.321555
     77          1           0        0.025585   -4.063744    2.783080
     78          1           0        1.381331   -4.949143    2.082163
     79          1           0       -0.634879    3.201554   -0.870281
     80          1           0       -0.088469    4.227565   -2.204789
     81          1           0       -0.502446    4.805084   -0.589980
     82          1           0        0.645485    6.867948   -1.182672
     83          1           0        1.235941    5.966198   -2.593799
     84          1           0        1.837385    7.655594   -2.274751
     85          1           0        7.599729    5.308212    0.860016
     86          1           0        9.201222    3.179170   -0.525980
     87          1           0        8.939926    4.969025   -1.789468
     88          1           0        7.998315    6.233167   -1.083045
     89          1           0        7.176575    5.150455   -2.041065
     90          1           0        9.278270    3.171204    2.468397
     91          1           0        9.623133    4.736656    1.748521
     92          1           0       11.755017    4.099452    1.711686
     93          1           0       11.482167    2.917511    0.494108
     94          1           0       11.428018    2.506982    2.205336
     95          1           0        9.998781   -1.277533    0.567507
     96          1           0        9.513853   -2.778912   -0.135258
     97          1           0        9.458286   -2.682522    1.635402
     98          1           0        4.361557   -4.200540    1.744437
     99          1           0        3.734865   -6.541601   -1.808970
    100          1           0        2.060932   -5.929853   -1.483047
    101          1           0        2.558654   -7.389370   -0.771846
    102          1           0       -3.430645   -4.960187    0.676181
    103          1           0       -2.511407   -4.900472   -0.782977
    104          1           0       -3.596884   -2.373358    0.469053
    105          1           0       -3.406988   -4.158219   -2.768132
    106          1           0       -1.880639   -3.150446   -2.865945
    107          1           0       -3.253491   -2.537307   -3.663143
    108          1           0       -3.358904   -0.758065   -2.707813
    109          1           0       -2.922744   -0.462352   -1.161259
    110          1           0       -5.006061    0.679888   -1.952418
    111          1           0       -4.936846    0.118756   -0.409088
    112          1           0       -6.070294   -2.094072   -2.072150
    113          1           0       -6.737986   -0.636929   -2.650312
    114          1           0       -7.040993   -0.210650   -0.078214
    115          1           0       -6.439709   -3.151811   -0.175816
    116          1           0       -7.836763   -2.619788    0.882793
    117          1           0       -6.246137   -1.884974    1.003896
    118          1           0       -8.880591   -2.223026   -1.237701
    119          1           0       -8.732338   -0.747576   -2.173630
    120          1           0       -9.022138    0.074549    0.541195
    121          1           0      -10.152242   -1.150163    0.267803
    122          1           0      -10.105584    1.033545   -1.863711
    123          1           0      -10.324684    1.716679   -0.268694
    124          1           0      -12.152255   -0.560153   -0.448297
    125          1           0      -13.213682   -0.276137   -2.465934
    126          1           0      -11.787759   -1.109747   -2.745830
    127          1           0      -11.756996    0.662924   -3.091080
    128          1           0      -13.479576    1.696698   -1.559045
    129          1           0      -12.494862    2.480819   -0.439274
    130          1           0      -13.749193    0.090903    0.956167
    131          1           0      -14.807642    1.317247    0.258657
    132          1           0      -12.461760    2.421137    1.732778
    133          1           0      -13.248933    1.132813    2.538019
    134          1           0      -15.167761    3.239866    1.565672
    135          1           0      -12.841050    4.056824    3.117593
    136          1           0      -14.436048    4.725646    3.592742
    137          1           0      -13.671792    4.963837    2.025025
    138          1           0      -14.557179    2.432122    4.521971
    139          1           0      -15.514284    1.255700    3.513903
    140          1           0      -16.257701    2.779123    3.911209
 ---------------------------------------------------------------------

 SCF Done:  E(RB-LYP) =  -3007.33541213     A.U. after   20 cycles

 Excitation energies and oscillator strengths:

 Excited State   1:      Singlet-A      1.8188 eV  681.67 nm  f=0.2876  <S**2>=0.000
     243 -> 247        0.13978
     245 -> 248        0.18962
     246 -> 247        0.67527
     246 <- 247       -0.14620
 This state for optimization and/or second-order correction.
 Total Energy, E(TD-HF/TD-DFT) =  -3007.26857168
 Copying the excited state density for this state as the 1-particle RhoCI density.

 Excited State   2:      Singlet-A      1.9094 eV  649.35 nm  f=0.0007  <S**2>=0.000
     243 -> 247        0.20009
     244 -> 247        0.67445

 Excited State   3:      Singlet-A      1.9240 eV  644.41 nm  f=0.0196  <S**2>=0.000
     243 -> 247        0.66212
     244 -> 247       -0.19102
     246 -> 247       -0.14027

 Excited State   4:      Singlet-A      2.0551 eV  603.31 nm  f=0.0685  <S**2>=0.000
     245 -> 247        0.63640
     246 -> 248       -0.26013

 Excited State   5:      Singlet-A      2.5629 eV  483.77 nm  f=0.0014  <S**2>=0.000
     241 -> 247       -0.19706
     242 -> 247        0.66530

 The electronic state is 1-A.
 Alpha  occ. eigenvalues --  -46.26410 -18.82290 -18.82214 -18.78064 -18.77107
 Alpha  occ. eigenvalues --  -18.75284 -18.75218 -14.03501 -14.03487 -14.00959
 Alpha  occ. eigenvalues --  -14.00328 -10.05322 -10.03738  -9.99028  -9.98899
 Alpha  occ. eigenvalues --   -9.98199  -9.96894  -9.96728  -9.96541  -9.96348
 Alpha  occ. eigenvalues --   -9.96119  -9.95581  -9.95482  -9.95171  -9.94436
 Alpha  occ. eigenvalues --   -9.94339  -9.94327  -9.94313  -9.93997  -9.93840
 Alpha  occ. eigenvalues --   -9.93827  -9.93422  -9.93371  -9.93313  -9.93299
 Alpha  occ. eigenvalues --   -9.93130  -9.93061  -9.93023  -9.93015  -9.93000
 Alpha  occ. eigenvalues --   -9.92676  -9.92641  -9.92616  -9.92227  -9.92179
 Alpha  occ. eigenvalues --   -9.92123  -9.92073  -9.92043  -9.91939  -9.91853
 Alpha  occ. eigenvalues --   -9.91757  -9.91496  -9.91166  -9.91162  -9.91128
 Alpha  occ. eigenvalues --   -9.91059  -9.90990  -9.90965  -9.90894  -9.90836
 Alpha  occ. eigenvalues --   -9.90772  -9.90591  -9.90512  -9.90421  -9.90416
 Alpha  occ. eigenvalues --   -9.89814  -2.91178  -1.71623  -1.71049  -1.70888
 Alpha  occ. eigenvalues --   -0.97767  -0.96517  -0.91474  -0.91401  -0.90680
 Alpha  occ. eigenvalues --   -0.89298  -0.87408  -0.86396  -0.85926  -0.85183
 Alpha  occ. eigenvalues --   -0.76112  -0.74168  -0.73584  -0.73094  -0.72122
 Alpha  occ. eigenvalues --   -0.72003  -0.71544  -0.70751  -0.70735  -0.70368
 Alpha  occ. eigenvalues --   -0.69781  -0.69260  -0.68383  -0.67398  -0.67174
 Alpha  occ. eigenvalues --   -0.66661  -0.66106  -0.65364  -0.65091  -0.64498
 Alpha  occ. eigenvalues --   -0.64238  -0.62695  -0.62148  -0.61405  -0.60668
 Alpha  occ. eigenvalues --   -0.60501  -0.59961  -0.59888  -0.59757  -0.59036
 Alpha  occ. eigenvalues --   -0.58621  -0.57825  -0.57152  -0.56332  -0.54469
 Alpha  occ. eigenvalues --   -0.54200  -0.53869  -0.52939  -0.52255  -0.51667
 Alpha  occ. eigenvalues --   -0.51235  -0.51079  -0.50815  -0.50570  -0.50052
 Alpha  occ. eigenvalues --   -0.49777  -0.49518  -0.49136  -0.48021  -0.46691
 Alpha  occ. eigenvalues --   -0.46534  -0.45861  -0.45334  -0.44974  -0.44684
 Alpha  occ. eigenvalues --   -0.44331  -0.43174  -0.43089  -0.42922  -0.42248
 Alpha  occ. eigenvalues --   -0.41981  -0.41608  -0.41405  -0.41308  -0.41009
 Alpha  occ. eigenvalues --   -0.40921  -0.40669  -0.40442  -0.40305  -0.40224
 Alpha  occ. eigenvalues --   -0.39896  -0.39740  -0.39453  -0.39315  -0.39116
 Alpha  occ. eigenvalues --   -0.39012  -0.38838  -0.38793  -0.38674  -0.38353
 Alpha  occ. eigenvalues --   -0.37964  -0.37788  -0.37581  -0.37567  -0.37280
 Alpha  occ. eigenvalues --   -0.36969  -0.36845  -0.36631  -0.36573  -0.36536
 Alpha  occ. eigenvalues --   -0.36346  -0.36061  -0.35899  -0.35800  -0.35644
 Alpha  occ. eigenvalues --   -0.35545  -0.35419  -0.35119  -0.35002  -0.34738
 Alpha  occ. eigenvalues --   -0.34697  -0.34544  -0.34318  -0.34204  -0.33730
 Alpha  occ. eigenvalues --   -0.33617  -0.33567  -0.33520  -0.33291  -0.33169
 Alpha  occ. eigenvalues --   -0.33010  -0.32835  -0.32787  -0.32542  -0.32353
 Alpha  occ. eigenvalues --   -0.32031  -0.31976  -0.31847  -0.31760  -0.31669
 Alpha  occ. eigenvalues --   -0.31168  -0.31140  -0.30936  -0.30686  -0.30541
 Alpha  occ. eigenvalues --   -0.30527  -0.30300  -0.30194  -0.30100  -0.29884
 Alpha  occ. eigenvalues --   -0.29723  -0.29596  -0.29520  -0.29317  -0.28762
 Alpha  occ. eigenvalues --   -0.28433  -0.28274  -0.28219  -0.28195  -0.27890
 Alpha  occ. eigenvalues --   -0.27683  -0.27074  -0.26773  -0.26578  -0.26351
 Alpha  occ. eigenvalues --   -0.26163  -0.26115  -0.26004  -0.25701  -0.25515
 Alpha  occ. eigenvalues --   -0.25313  -0.25180  -0.24443  -0.24083  -0.23432
 Alpha  occ. eigenvalues --   -0.22741  -0.22629  -0.22326  -0.21879  -0.21101
 Alpha  occ. eigenvalues --   -0.20682  -0.20437  -0.18545  -0.18538  -0.17487
 Alpha  occ. eigenvalues --   -0.15906
 Alpha virt. eigenvalues --   -0.11601  -0.07205  -0.05872  -0.04772  -0.04410
 Alpha virt. eigenvalues --   -0.02837  -0.02049  -0.01683  -0.00685   0.00116
 Alpha virt. eigenvalues --    0.00919   0.01084   0.01718   0.02939   0.03027

 Mulliken charges:
               1
     1  Mg   0.699288
     2  C   -0.024333
     3  C   -0.081509
     4  C   -0.045445
     5  C   -0.096273
     6  N   -0.215082
     7  C   -0.091948
     8  C   -0.020537
     9  C    0.017458
    10  C    0.071557
    11  C    0.079900
    12  C    0.148863
    13  C    0.139825
    14  C    0.099603
    15  O   -0.201284
    16  O   -0.308621
    17  N   -0.309820
    18  C    0.138179
    19  C   -0.117107
    20  C    0.016806
    21  C    0.141130
    22  C    0.143852
    23  C   -0.095048
    24  O   -0.165420
    25  C    0.147966
    26  N   -0.221050
    27  C    0.000349
    28  C   -0.002865
    29  C    0.059185
    30  C    0.032236
    31  C    0.089249
    32  C    0.060222
    33  C    0.052829
    34  N   -0.220943
    35  C    0.133632
    36  C   -0.222892
    37  C    0.124225
    38  C    0.128996
    39  C    0.191201
    40  C   -0.106035
    41  O   -0.123923
    42  C    0.088764
    43  C    0.098756
    44  O   -0.142861
    45  O   -0.283510
    46  C    0.208556
    47  C    0.389811
    48  C   -0.097069
    49  C   -0.184623
    50  C    0.126762
    51  C    0.117873
    52  C    0.100749
    53  C    0.117529
    54  C   -0.124514
    55  C    0.121509
    56  C    0.110798
    57  C    0.098160
    58  C    0.169255
    59  C   -0.083888
    60  C    0.074199
    61  C    0.113990
    62  C    0.038200
    63  C    0.076027
    64  C   -0.044447
    65  C    0.071543
    66  C    0.095820
    67  H   -0.059384
    68  H   -0.041136
    69  H   -0.051863
    70  H    0.005978
    71  H   -0.018874
    72  H    0.006342
    73  H   -0.008446
    74  H   -0.004554
    75  H   -0.010115
    76  H   -0.016979
    77  H   -0.003187
    78  H    0.008560
    79  H   -0.024452
    80  H    0.007744
    81  H   -0.002857
    82  H    0.012218
    83  H   -0.003737
    84  H   -0.010372
    85  H    0.007779
    86  H   -0.020563
    87  H    0.002765
    88  H   -0.018565
    89  H    0.002811
    90  H   -0.014493
    91  H   -0.018333
    92  H   -0.017947
    93  H   -0.010177
    94  H   -0.007416
    95  H   -0.018957
    96  H    0.002600
    97  H    0.015332
    98  H   -0.000934
    99  H    0.027506
   100  H    0.017945
   101  H    0.007204
   102  H   -0.005639
   103  H   -0.020097
   104  H   -0.050836
   105  H    0.015306
   106  H    0.002514
   107  H   -0.012650
   108  H   -0.050112
   109  H   -0.034843
   110  H   -0.039343
   111  H   -0.035225
   112  H   -0.034854
   113  H   -0.048185
   114  H   -0.034962
   115  H   -0.005656
   116  H   -0.018289
   117  H   -0.023983
   118  H   -0.039955
   119  H   -0.043899
   120  H   -0.042066
   121  H   -0.035504
   122  H   -0.039831
   123  H   -0.036552
   124  H   -0.030751
   125  H   -0.020662
   126  H   -0.017405
   127  H   -0.011234
   128  H   -0.047800
   129  H   -0.039438
   130  H   -0.024677
   131  H   -0.031645
   132  H   -0.029674
   133  H   -0.047287
   134  H   -0.027925
   135  H   -0.024241
   136  H   -0.022303
   137  H   -0.023550
   138  H    0.001831
   139  H   -0.010807
   140  H   -0.003018
 Sum of Mulliken charges =  -0.00000

 Dipole moment (field-independent basis, Debye):
    X=             -3.5730    Y=              2.3942    Z=              0.8309  Tot=              4.3806
 Quadrupole moment (field-independent basis, Debye-Ang):
   XX=           -391.6730   YY=           -441.4933   ZZ=           -401.2956
   XY=             28.5994   XZ=              9.1668   YZ=             -2.8668

 Normal termination of Gaussian 16 at Wed May  4 20:52:04 2022.
