 Gaussian 16, Revision A.03,
 Gaussian 16:  ES64L-G16RevA.03 25-Dec-2016

 -----------------------------------
 #p cam-b3lyp/Def2SVP td=(nstates=5)
 -----------------------------------

 -------------------------------------------------------
 step_351_chromophore_21 TDDFT with cam-b3lyp functional
 -------------------------------------------------------
 Symbolic Z-matrix:
 Charge =  0 Multiplicity = 1

                         Standard orientation:
 ---------------------------------------------------------------------
 Center     Atomic      Atomic             Coordinates (Angstroms)
 Number     Number       Type             X           Y           Z
 ---------------------------------------------------------------------
      1         12           0        4.637889    1.226553    0.451133
      2          6           0        4.477278   -2.223222    0.708292
      3          6           0        1.347569    1.265804   -0.425223
      4          6           0        5.040098    4.404801   -0.219304
      5          6           0        8.249072    0.789451    0.706415
      6          7           0        3.115668   -0.276227    0.396645
      7          6           0        3.240920   -1.622567    0.641559
      8          6           0        1.928926   -2.334606    0.446504
      9          6           0        1.003526   -1.219481   -0.223326
     10          6           0        1.891769    0.026316   -0.060498
     11          6           0        0.682893   -1.518862   -1.759820
     12          6           0        1.441698   -2.816428    1.829979
     13          6           0        0.692726   -4.119537    1.922752
     14          6           0       -0.280164   -4.555711    0.789658
     15          8           0       -0.143428   -5.460676   -0.054000
     16          8           0       -1.553407   -3.951177    0.979427
     17          7           0        3.335513    2.696799   -0.039480
     18          6           0        2.016209    2.509726   -0.412888
     19          6           0        1.488105    3.757973   -0.767115
     20          6           0        2.577747    4.742007   -0.787280
     21          6           0        3.766987    3.930089   -0.295243
     22          6           0        0.025003    4.025977   -1.139316
     23          6           0        2.677196    6.170298   -1.181136
     24          8           0        3.643557    6.896201   -0.996667
     25          6           0        1.498184    6.713910   -1.844696
     26          7           0        6.390914    2.421684    0.475100
     27          6           0        6.297560    3.719340    0.026045
     28          6           0        7.627053    4.521576    0.105108
     29          6           0        8.582140    3.363762    0.352764
     30          6           0        7.703050    2.078945    0.587106
     31          6           0        7.982251    5.167149   -1.307237
     32          6           0        9.628634    3.663247    1.561063
     33          6           0       11.120129    3.248544    1.467347
     34          7           0        6.052011   -0.348172    0.684020
     35          6           0        7.430056   -0.356215    0.685208
     36          6           0        7.871476   -1.754620    0.673594
     37          6           0        6.717056   -2.494007    0.796911
     38          6           0        5.718034   -1.632534    0.792994
     39          6           0        9.321728   -2.119704    0.711453
     40          6           0        6.229575   -3.846494    0.781524
     41          8           0        6.838841   -4.897304    0.689692
     42          6           0        4.699693   -3.763247    0.803891
     43          6           0        4.257549   -4.610091   -0.381114
     44          8           0        4.627662   -4.409452   -1.494927
     45          8           0        3.428342   -5.609066    0.102372
     46          6           0        2.944790   -6.413536   -1.068500
     47          6           0       -2.696692   -4.356221    0.142869
     48          6           0       -3.271326   -3.079503   -0.294366
     49          6           0       -3.363644   -2.501384   -1.474759
     50          6           0       -2.968983   -3.160645   -2.815334
     51          6           0       -3.689347   -1.016604   -1.701680
     52          6           0       -4.999685   -0.273869   -1.424404
     53          6           0       -6.285155   -1.071566   -1.759554
     54          6           0       -7.275728   -1.124790   -0.623665
     55          6           0       -6.959651   -2.324179    0.305998
     56          6           0       -8.708158   -1.149429   -1.160330
     57          6           0       -9.630016   -0.351003   -0.257761
     58          6           0      -10.399388    0.793546   -0.842254
     59          6           0      -11.882327    0.346132   -0.990179
     60          6           0      -12.134997   -0.123738   -2.437481
     61          6           0      -12.897921    1.492970   -0.659807
     62          6           0      -13.788527    1.116821    0.588801
     63          6           0      -13.445377    1.972448    1.871777
     64          6           0      -14.564781    2.916020    2.414312
     65          6           0      -13.870993    4.228503    2.804982
     66          6           0      -15.294711    2.301727    3.729752
     67          1           0        0.346887    1.350593   -0.851852
     68          1           0        5.229706    5.432443   -0.535720
     69          1           0        9.330839    0.730482    0.846386
     70          1           0        2.037253   -3.123978   -0.296863
     71          1           0        0.074563   -1.193573    0.345041
     72          1           0        0.195155   -2.474959   -1.948644
     73          1           0        1.594405   -1.656702   -2.340544
     74          1           0        0.093511   -0.772786   -2.292304
     75          1           0        0.874947   -2.059817    2.371944
     76          1           0        2.385429   -3.053083    2.321555
     77          1           0        0.025585   -4.063744    2.783080
     78          1           0        1.381331   -4.949143    2.082163
     79          1           0       -0.634879    3.201554   -0.870281
     80          1           0       -0.088469    4.227565   -2.204789
     81          1           0       -0.502446    4.805084   -0.589980
     82          1           0        0.645485    6.867948   -1.182672
     83          1           0        1.235941    5.966198   -2.593799
     84          1           0        1.837385    7.655594   -2.274751
     85          1           0        7.599729    5.308212    0.860016
     86          1           0        9.201222    3.179170   -0.525980
     87          1           0        8.939926    4.969025   -1.789468
     88          1           0        7.998315    6.233167   -1.083045
     89          1           0        7.176575    5.150455   -2.041065
     90          1           0        9.278270    3.171204    2.468397
     91          1           0        9.623133    4.736656    1.748521
     92          1           0       11.755017    4.099452    1.711686
     93          1           0       11.482167    2.917511    0.494108
     94          1           0       11.428018    2.506982    2.205336
     95          1           0        9.998781   -1.277533    0.567507
     96          1           0        9.513853   -2.778912   -0.135258
     97          1           0        9.458286   -2.682522    1.635402
     98          1           0        4.361557   -4.200540    1.744437
     99          1           0        3.734865   -6.541601   -1.808970
    100          1           0        2.060932   -5.929853   -1.483047
    101          1           0        2.558654   -7.389370   -0.771846
    102          1           0       -3.430645   -4.960187    0.676181
    103          1           0       -2.511407   -4.900472   -0.782977
    104          1           0       -3.596884   -2.373358    0.469053
    105          1           0       -3.406988   -4.158219   -2.768132
    106          1           0       -1.880639   -3.150446   -2.865945
    107          1           0       -3.253491   -2.537307   -3.663143
    108          1           0       -3.358904   -0.758065   -2.707813
    109          1           0       -2.922744   -0.462352   -1.161259
    110          1           0       -5.006061    0.679888   -1.952418
    111          1           0       -4.936846    0.118756   -0.409088
    112          1           0       -6.070294   -2.094072   -2.072150
    113          1           0       -6.737986   -0.636929   -2.650312
    114          1           0       -7.040993   -0.210650   -0.078214
    115          1           0       -6.439709   -3.151811   -0.175816
    116          1           0       -7.836763   -2.619788    0.882793
    117          1           0       -6.246137   -1.884974    1.003896
    118          1           0       -8.880591   -2.223026   -1.237701
    119          1           0       -8.732338   -0.747576   -2.173630
    120          1           0       -9.022138    0.074549    0.541195
    121          1           0      -10.152242   -1.150163    0.267803
    122          1           0      -10.105584    1.033545   -1.863711
    123          1           0      -10.324684    1.716679   -0.268694
    124          1           0      -12.152255   -0.560153   -0.448297
    125          1           0      -13.213682   -0.276137   -2.465934
    126          1           0      -11.787759   -1.109747   -2.745830
    127          1           0      -11.756996    0.662924   -3.091080
    128          1           0      -13.479576    1.696698   -1.559045
    129          1           0      -12.494862    2.480819   -0.439274
    130          1           0      -13.749193    0.090903    0.956167
    131          1           0      -14.807642    1.317247    0.258657
    132          1           0      -12.461760    2.421137    1.732778
    133          1           0      -13.248933    1.132813    2.538019
    134          1           0      -15.167761    3.239866    1.565672
    135          1           0      -12.841050    4.056824    3.117593
    136          1           0      -14.436048    4.725646    3.592742
    137          1           0      -13.671792    4.963837    2.025025
    138          1           0      -14.557179    2.432122    4.521971
    139          1           0      -15.514284    1.255700    3.513903
    140          1           0      -16.257701    2.779123    3.911209
 ---------------------------------------------------------------------

 SCF Done:  E(RCAM-B3LYP) =  -3007.13522531     A.U. after   18 cycles

 Excitation energies and oscillator strengths:

 Excited State   1:      Singlet-A      1.7162 eV  722.43 nm  f=0.3818  <S**2>=0.000
     245 -> 248       -0.17871
     246 -> 247        0.68544
     245 <- 248       -0.10556
 This state for optimization and/or second-order correction.
 Total Energy, E(TD-HF/TD-DFT) =  -3007.07215603
 Copying the excited state density for this state as the 1-particle RhoCI density.

 Excited State   2:      Singlet-A      2.2575 eV  549.22 nm  f=0.0993  <S**2>=0.000
     245 -> 247        0.63032
     246 -> 248        0.30444

 Excited State   3:      Singlet-A      3.3977 eV  364.91 nm  f=0.0637  <S**2>=0.000
     243 -> 247       -0.37139
     244 -> 247        0.52195
     246 -> 248        0.25370

 Excited State   4:      Singlet-A      3.4852 eV  355.75 nm  f=0.1860  <S**2>=0.000
     240 -> 247        0.18236
     243 -> 247        0.27329
     244 -> 247        0.42795
     245 -> 247        0.15171
     246 -> 248       -0.39552

 Excited State   5:      Singlet-A      3.5203 eV  352.20 nm  f=0.1192  <S**2>=0.000
     240 -> 247        0.52583
     240 -> 248       -0.16135
     240 -> 249        0.24796
     240 -> 250        0.13722
     245 -> 247       -0.11772
     246 -> 248        0.25355

 The electronic state is 1-A.
 Alpha  occ. eigenvalues --  -46.87884 -19.25151 -19.25028 -19.21062 -19.20150
 Alpha  occ. eigenvalues --  -19.18621 -19.18382 -14.42396 -14.42387 -14.39449
 Alpha  occ. eigenvalues --  -14.38594 -10.40777 -10.39080 -10.34387 -10.34021
 Alpha  occ. eigenvalues --  -10.32252 -10.31601 -10.31281 -10.30823 -10.30435
 Alpha  occ. eigenvalues --  -10.30326 -10.30075 -10.30026 -10.29206 -10.29172
 Alpha  occ. eigenvalues --  -10.28508 -10.28330 -10.28290 -10.28046 -10.27769
 Alpha  occ. eigenvalues --  -10.27677 -10.27654 -10.27527 -10.27462 -10.27339
 Alpha  occ. eigenvalues --  -10.27286 -10.27267 -10.27234 -10.27181 -10.27046
 Alpha  occ. eigenvalues --  -10.26733 -10.26450 -10.26369 -10.25923 -10.25910
 Alpha  occ. eigenvalues --  -10.25877 -10.25876 -10.25772 -10.25604 -10.25542
 Alpha  occ. eigenvalues --  -10.25502 -10.25326 -10.25229 -10.25034 -10.24815
 Alpha  occ. eigenvalues --  -10.24756 -10.24675 -10.24631 -10.24531 -10.24500
 Alpha  occ. eigenvalues --  -10.24450 -10.24200 -10.24107 -10.24058 -10.24016
 Alpha  occ. eigenvalues --  -10.23634  -3.16564  -1.91483  -1.91016  -1.90870
 Alpha  occ. eigenvalues --   -1.16309  -1.14870  -1.10083  -1.09693  -1.08562
 Alpha  occ. eigenvalues --   -1.07064  -1.05067  -1.04032  -1.03628  -1.02759
 Alpha  occ. eigenvalues --   -0.93160  -0.91081  -0.90387  -0.89889  -0.88940
 Alpha  occ. eigenvalues --   -0.88713  -0.88138  -0.87377  -0.87321  -0.86883
 Alpha  occ. eigenvalues --   -0.86425  -0.85590  -0.84682  -0.83638  -0.83314
 Alpha  occ. eigenvalues --   -0.82745  -0.82357  -0.81311  -0.80963  -0.80300
 Alpha  occ. eigenvalues --   -0.80037  -0.78289  -0.78016  -0.76885  -0.76014
 Alpha  occ. eigenvalues --   -0.75877  -0.75254  -0.75200  -0.75072  -0.74133
 Alpha  occ. eigenvalues --   -0.73837  -0.72804  -0.72097  -0.71208  -0.69061
 Alpha  occ. eigenvalues --   -0.68801  -0.68503  -0.67397  -0.66646  -0.65851
 Alpha  occ. eigenvalues --   -0.65297  -0.65263  -0.64913  -0.64490  -0.63819
 Alpha  occ. eigenvalues --   -0.63771  -0.63531  -0.63090  -0.61769  -0.60361
 Alpha  occ. eigenvalues --   -0.60253  -0.59301  -0.58688  -0.58387  -0.58282
 Alpha  occ. eigenvalues --   -0.57782  -0.56361  -0.56208  -0.56158  -0.55469
 Alpha  occ. eigenvalues --   -0.55195  -0.54772  -0.54417  -0.54099  -0.53801
 Alpha  occ. eigenvalues --   -0.53568  -0.53543  -0.53315  -0.53028  -0.52949
 Alpha  occ. eigenvalues --   -0.52851  -0.52822  -0.52270  -0.51842  -0.51579
 Alpha  occ. eigenvalues --   -0.51531  -0.51484  -0.51190  -0.51072  -0.50928
 Alpha  occ. eigenvalues --   -0.50351  -0.50262  -0.50076  -0.49899  -0.49854
 Alpha  occ. eigenvalues --   -0.49214  -0.49155  -0.49043  -0.48927  -0.48698
 Alpha  occ. eigenvalues --   -0.48487  -0.48389  -0.48045  -0.47884  -0.47818
 Alpha  occ. eigenvalues --   -0.47625  -0.47485  -0.47468  -0.47013  -0.46767
 Alpha  occ. eigenvalues --   -0.46611  -0.46539  -0.46265  -0.45882  -0.45692
 Alpha  occ. eigenvalues --   -0.45401  -0.45269  -0.45178  -0.45049  -0.44897
 Alpha  occ. eigenvalues --   -0.44802  -0.44485  -0.44413  -0.44221  -0.44052
 Alpha  occ. eigenvalues --   -0.43799  -0.43631  -0.43361  -0.43257  -0.43104
 Alpha  occ. eigenvalues --   -0.42758  -0.42638  -0.42449  -0.42308  -0.42155
 Alpha  occ. eigenvalues --   -0.42025  -0.41761  -0.41601  -0.41555  -0.41285
 Alpha  occ. eigenvalues --   -0.41038  -0.40884  -0.40686  -0.40562  -0.39767
 Alpha  occ. eigenvalues --   -0.39424  -0.39372  -0.39167  -0.39140  -0.38835
 Alpha  occ. eigenvalues --   -0.38606  -0.37886  -0.37540  -0.37381  -0.37175
 Alpha  occ. eigenvalues --   -0.37099  -0.36888  -0.36859  -0.36794  -0.36744
 Alpha  occ. eigenvalues --   -0.36551  -0.36137  -0.34877  -0.34547  -0.34521
 Alpha  occ. eigenvalues --   -0.34321  -0.33719  -0.32679  -0.31288  -0.31021
 Alpha  occ. eigenvalues --   -0.30902  -0.30621  -0.29989  -0.29746  -0.24250
 Alpha  occ. eigenvalues --   -0.21183
 Alpha virt. eigenvalues --   -0.08703  -0.02013   0.00552   0.02618   0.02988
 Alpha virt. eigenvalues --    0.03608   0.04415   0.05197   0.06196   0.06651
 Alpha virt. eigenvalues --    0.07323   0.07958   0.09058   0.09075   0.09209

 Mulliken charges:
               1
     1  Mg   0.835195
     2  C   -0.045210
     3  C   -0.086698
     4  C   -0.067757
     5  C   -0.097106
     6  N   -0.287187
     7  C   -0.048640
     8  C   -0.081490
     9  C   -0.030613
    10  C    0.084382
    11  C    0.032503
    12  C    0.100949
    13  C    0.074682
    14  C    0.178107
    15  O   -0.242953
    16  O   -0.374804
    17  N   -0.403263
    18  C    0.144463
    19  C   -0.123446
    20  C   -0.051854
    21  C    0.168054
    22  C    0.087457
    23  C   -0.008615
    24  O   -0.206532
    25  C    0.059552
    26  N   -0.294240
    27  C    0.027157
    28  C   -0.060041
    29  C    0.001546
    30  C    0.050624
    31  C    0.033809
    32  C    0.008445
    33  C   -0.010911
    34  N   -0.308383
    35  C    0.130292
    36  C   -0.213837
    37  C    0.039020
    38  C    0.162705
    39  C    0.138420
    40  C   -0.000310
    41  O   -0.162993
    42  C    0.012163
    43  C    0.184914
    44  O   -0.179833
    45  O   -0.347175
    46  C    0.167556
    47  C    0.357264
    48  C   -0.116973
    49  C   -0.211732
    50  C    0.067670
    51  C    0.066602
    52  C    0.045530
    53  C    0.062054
    54  C   -0.177592
    55  C    0.065011
    56  C    0.059153
    57  C    0.036965
    58  C    0.111769
    59  C   -0.140422
    60  C    0.020483
    61  C    0.058412
    62  C   -0.013543
    63  C    0.021530
    64  C   -0.106507
    65  C    0.013010
    66  C    0.038596
    67  H   -0.025638
    68  H   -0.000883
    69  H   -0.016880
    70  H    0.036287
    71  H    0.014129
    72  H    0.023921
    73  H    0.017313
    74  H    0.017381
    75  H    0.020411
    76  H    0.014187
    77  H    0.031615
    78  H    0.040037
    79  H    0.005027
    80  H    0.034361
    81  H    0.024977
    82  H    0.041128
    83  H    0.022662
    84  H    0.026608
    85  H    0.041532
    86  H    0.013194
    87  H    0.027572
    88  H    0.006185
    89  H    0.028083
    90  H    0.014311
    91  H    0.008684
    92  H    0.007191
    93  H    0.012375
    94  H    0.015931
    95  H    0.005340
    96  H    0.028969
    97  H    0.039589
    98  H    0.040653
    99  H    0.052963
   100  H    0.039420
   101  H    0.031948
   102  H    0.021480
   103  H    0.012223
   104  H   -0.018728
   105  H    0.036987
   106  H    0.024539
   107  H    0.013702
   108  H   -0.020203
   109  H   -0.007374
   110  H   -0.008672
   111  H   -0.008081
   112  H   -0.007280
   113  H   -0.015572
   114  H   -0.004888
   115  H    0.016655
   116  H    0.006107
   117  H   -0.001066
   118  H   -0.010260
   119  H   -0.016025
   120  H   -0.011586
   121  H   -0.006051
   122  H   -0.011637
   123  H   -0.006742
   124  H   -0.000157
   125  H    0.003356
   126  H    0.007439
   127  H    0.010286
   128  H   -0.015455
   129  H   -0.011178
   130  H    0.002457
   131  H   -0.003399
   132  H   -0.003232
   133  H   -0.016747
   134  H    0.002654
   135  H   -0.001003
   136  H    0.003004
   137  H    0.001674
   138  H    0.024115
   139  H    0.011916
   140  H    0.020775
 Sum of Mulliken charges =  -0.00000

 Dipole moment (field-independent basis, Debye):
    X=             -4.0795    Y=              3.0475    Z=              0.5889  Tot=              5.1260
 Quadrupole moment (field-independent basis, Debye-Ang):
   XX=           -394.1415   YY=           -437.7400   ZZ=           -400.6974
   XY=             30.4533   XZ=              9.5756   YZ=             -4.4009

 Normal termination of Gaussian 16 at Wed May  4 19:09:01 2022.
