 Gaussian 16, Revision A.03,
 Gaussian 16:  ES64L-G16RevA.03 25-Dec-2016

 ---------------------------------
 #p PBE1PBE/Def2SVP td=(nstates=5)
 ---------------------------------

 -----------------------------------------------------
 step_351_chromophore_21 TDDFT with PBE1PBE functional
 -----------------------------------------------------
 Symbolic Z-matrix:
 Charge =  0 Multiplicity = 1

                         Standard orientation:
 ---------------------------------------------------------------------
 Center     Atomic      Atomic             Coordinates (Angstroms)
 Number     Number       Type             X           Y           Z
 ---------------------------------------------------------------------
      1         12           0        4.637889    1.226553    0.451133
      2          6           0        4.477278   -2.223222    0.708292
      3          6           0        1.347569    1.265804   -0.425223
      4          6           0        5.040098    4.404801   -0.219304
      5          6           0        8.249072    0.789451    0.706415
      6          7           0        3.115668   -0.276227    0.396645
      7          6           0        3.240920   -1.622567    0.641559
      8          6           0        1.928926   -2.334606    0.446504
      9          6           0        1.003526   -1.219481   -0.223326
     10          6           0        1.891769    0.026316   -0.060498
     11          6           0        0.682893   -1.518862   -1.759820
     12          6           0        1.441698   -2.816428    1.829979
     13          6           0        0.692726   -4.119537    1.922752
     14          6           0       -0.280164   -4.555711    0.789658
     15          8           0       -0.143428   -5.460676   -0.054000
     16          8           0       -1.553407   -3.951177    0.979427
     17          7           0        3.335513    2.696799   -0.039480
     18          6           0        2.016209    2.509726   -0.412888
     19          6           0        1.488105    3.757973   -0.767115
     20          6           0        2.577747    4.742007   -0.787280
     21          6           0        3.766987    3.930089   -0.295243
     22          6           0        0.025003    4.025977   -1.139316
     23          6           0        2.677196    6.170298   -1.181136
     24          8           0        3.643557    6.896201   -0.996667
     25          6           0        1.498184    6.713910   -1.844696
     26          7           0        6.390914    2.421684    0.475100
     27          6           0        6.297560    3.719340    0.026045
     28          6           0        7.627053    4.521576    0.105108
     29          6           0        8.582140    3.363762    0.352764
     30          6           0        7.703050    2.078945    0.587106
     31          6           0        7.982251    5.167149   -1.307237
     32          6           0        9.628634    3.663247    1.561063
     33          6           0       11.120129    3.248544    1.467347
     34          7           0        6.052011   -0.348172    0.684020
     35          6           0        7.430056   -0.356215    0.685208
     36          6           0        7.871476   -1.754620    0.673594
     37          6           0        6.717056   -2.494007    0.796911
     38          6           0        5.718034   -1.632534    0.792994
     39          6           0        9.321728   -2.119704    0.711453
     40          6           0        6.229575   -3.846494    0.781524
     41          8           0        6.838841   -4.897304    0.689692
     42          6           0        4.699693   -3.763247    0.803891
     43          6           0        4.257549   -4.610091   -0.381114
     44          8           0        4.627662   -4.409452   -1.494927
     45          8           0        3.428342   -5.609066    0.102372
     46          6           0        2.944790   -6.413536   -1.068500
     47          6           0       -2.696692   -4.356221    0.142869
     48          6           0       -3.271326   -3.079503   -0.294366
     49          6           0       -3.363644   -2.501384   -1.474759
     50          6           0       -2.968983   -3.160645   -2.815334
     51          6           0       -3.689347   -1.016604   -1.701680
     52          6           0       -4.999685   -0.273869   -1.424404
     53          6           0       -6.285155   -1.071566   -1.759554
     54          6           0       -7.275728   -1.124790   -0.623665
     55          6           0       -6.959651   -2.324179    0.305998
     56          6           0       -8.708158   -1.149429   -1.160330
     57          6           0       -9.630016   -0.351003   -0.257761
     58          6           0      -10.399388    0.793546   -0.842254
     59          6           0      -11.882327    0.346132   -0.990179
     60          6           0      -12.134997   -0.123738   -2.437481
     61          6           0      -12.897921    1.492970   -0.659807
     62          6           0      -13.788527    1.116821    0.588801
     63          6           0      -13.445377    1.972448    1.871777
     64          6           0      -14.564781    2.916020    2.414312
     65          6           0      -13.870993    4.228503    2.804982
     66          6           0      -15.294711    2.301727    3.729752
     67          1           0        0.346887    1.350593   -0.851852
     68          1           0        5.229706    5.432443   -0.535720
     69          1           0        9.330839    0.730482    0.846386
     70          1           0        2.037253   -3.123978   -0.296863
     71          1           0        0.074563   -1.193573    0.345041
     72          1           0        0.195155   -2.474959   -1.948644
     73          1           0        1.594405   -1.656702   -2.340544
     74          1           0        0.093511   -0.772786   -2.292304
     75          1           0        0.874947   -2.059817    2.371944
     76          1           0        2.385429   -3.053083    2.321555
     77          1           0        0.025585   -4.063744    2.783080
     78          1           0        1.381331   -4.949143    2.082163
     79          1           0       -0.634879    3.201554   -0.870281
     80          1           0       -0.088469    4.227565   -2.204789
     81          1           0       -0.502446    4.805084   -0.589980
     82          1           0        0.645485    6.867948   -1.182672
     83          1           0        1.235941    5.966198   -2.593799
     84          1           0        1.837385    7.655594   -2.274751
     85          1           0        7.599729    5.308212    0.860016
     86          1           0        9.201222    3.179170   -0.525980
     87          1           0        8.939926    4.969025   -1.789468
     88          1           0        7.998315    6.233167   -1.083045
     89          1           0        7.176575    5.150455   -2.041065
     90          1           0        9.278270    3.171204    2.468397
     91          1           0        9.623133    4.736656    1.748521
     92          1           0       11.755017    4.099452    1.711686
     93          1           0       11.482167    2.917511    0.494108
     94          1           0       11.428018    2.506982    2.205336
     95          1           0        9.998781   -1.277533    0.567507
     96          1           0        9.513853   -2.778912   -0.135258
     97          1           0        9.458286   -2.682522    1.635402
     98          1           0        4.361557   -4.200540    1.744437
     99          1           0        3.734865   -6.541601   -1.808970
    100          1           0        2.060932   -5.929853   -1.483047
    101          1           0        2.558654   -7.389370   -0.771846
    102          1           0       -3.430645   -4.960187    0.676181
    103          1           0       -2.511407   -4.900472   -0.782977
    104          1           0       -3.596884   -2.373358    0.469053
    105          1           0       -3.406988   -4.158219   -2.768132
    106          1           0       -1.880639   -3.150446   -2.865945
    107          1           0       -3.253491   -2.537307   -3.663143
    108          1           0       -3.358904   -0.758065   -2.707813
    109          1           0       -2.922744   -0.462352   -1.161259
    110          1           0       -5.006061    0.679888   -1.952418
    111          1           0       -4.936846    0.118756   -0.409088
    112          1           0       -6.070294   -2.094072   -2.072150
    113          1           0       -6.737986   -0.636929   -2.650312
    114          1           0       -7.040993   -0.210650   -0.078214
    115          1           0       -6.439709   -3.151811   -0.175816
    116          1           0       -7.836763   -2.619788    0.882793
    117          1           0       -6.246137   -1.884974    1.003896
    118          1           0       -8.880591   -2.223026   -1.237701
    119          1           0       -8.732338   -0.747576   -2.173630
    120          1           0       -9.022138    0.074549    0.541195
    121          1           0      -10.152242   -1.150163    0.267803
    122          1           0      -10.105584    1.033545   -1.863711
    123          1           0      -10.324684    1.716679   -0.268694
    124          1           0      -12.152255   -0.560153   -0.448297
    125          1           0      -13.213682   -0.276137   -2.465934
    126          1           0      -11.787759   -1.109747   -2.745830
    127          1           0      -11.756996    0.662924   -3.091080
    128          1           0      -13.479576    1.696698   -1.559045
    129          1           0      -12.494862    2.480819   -0.439274
    130          1           0      -13.749193    0.090903    0.956167
    131          1           0      -14.807642    1.317247    0.258657
    132          1           0      -12.461760    2.421137    1.732778
    133          1           0      -13.248933    1.132813    2.538019
    134          1           0      -15.167761    3.239866    1.565672
    135          1           0      -12.841050    4.056824    3.117593
    136          1           0      -14.436048    4.725646    3.592742
    137          1           0      -13.671792    4.963837    2.025025
    138          1           0      -14.557179    2.432122    4.521971
    139          1           0      -15.514284    1.255700    3.513903
    140          1           0      -16.257701    2.779123    3.911209
 ---------------------------------------------------------------------

 SCF Done:  E(RPBE1PBE) =  -3005.32328673     A.U. after   15 cycles

 Excitation energies and oscillator strengths:

 Excited State   1:      Singlet-A      1.8693 eV  663.26 nm  f=0.3699  <S**2>=0.000
     245 -> 248       -0.17276
     246 -> 247        0.69266
     246 <- 247       -0.10789
 This state for optimization and/or second-order correction.
 Total Energy, E(TD-HF/TD-DFT) =  -3005.25459097
 Copying the excited state density for this state as the 1-particle RhoCI density.

 Excited State   2:      Singlet-A      2.2675 eV  546.80 nm  f=0.0973  <S**2>=0.000
     245 -> 247        0.64162
     246 -> 248        0.27792

 Excited State   3:      Singlet-A      2.9893 eV  414.76 nm  f=0.0003  <S**2>=0.000
     241 -> 247        0.42466
     242 -> 247       -0.27110
     243 -> 247        0.30132
     244 -> 247        0.33606

 Excited State   4:      Singlet-A      3.0508 eV  406.39 nm  f=0.0002  <S**2>=0.000
     242 -> 247        0.30756
     243 -> 247        0.51236
     244 -> 247       -0.31780

 Excited State   5:      Singlet-A      3.0914 eV  401.06 nm  f=0.0014  <S**2>=0.000
     242 -> 247        0.47974
     244 -> 247        0.50041

 The electronic state is 1-A.
 Alpha  occ. eigenvalues --  -46.91276 -19.25868 -19.25756 -19.21330 -19.20411
 Alpha  occ. eigenvalues --  -19.18707 -19.18704 -14.41899 -14.41887 -14.39037
 Alpha  occ. eigenvalues --  -14.38331 -10.37856 -10.36161 -10.31318 -10.31266
 Alpha  occ. eigenvalues --  -10.29618 -10.29283 -10.28894 -10.28682 -10.28256
 Alpha  occ. eigenvalues --  -10.27613 -10.27589 -10.27553 -10.27065 -10.26694
 Alpha  occ. eigenvalues --  -10.26286 -10.26137 -10.25856 -10.25786 -10.25650
 Alpha  occ. eigenvalues --  -10.25359 -10.25302 -10.25166 -10.25142 -10.25032
 Alpha  occ. eigenvalues --  -10.25008 -10.24888 -10.24856 -10.24829 -10.24709
 Alpha  occ. eigenvalues --  -10.24419 -10.24052 -10.23895 -10.23494 -10.23460
 Alpha  occ. eigenvalues --  -10.23450 -10.23342 -10.23288 -10.23142 -10.23005
 Alpha  occ. eigenvalues --  -10.22938 -10.22896 -10.22557 -10.22494 -10.22481
 Alpha  occ. eigenvalues --  -10.22327 -10.22262 -10.22170 -10.22109 -10.21994
 Alpha  occ. eigenvalues --  -10.21879 -10.21625 -10.21593 -10.21589 -10.21417
 Alpha  occ. eigenvalues --  -10.21400  -3.13532  -1.86394  -1.85905  -1.85763
 Alpha  occ. eigenvalues --   -1.11105  -1.09658  -1.04666  -1.04529  -1.03462
 Alpha  occ. eigenvalues --   -1.01928  -0.99795  -0.98687  -0.98214  -0.97390
 Alpha  occ. eigenvalues --   -0.87629  -0.85204  -0.84576  -0.84051  -0.83206
 Alpha  occ. eigenvalues --   -0.82821  -0.82431  -0.81693  -0.81410  -0.81209
 Alpha  occ. eigenvalues --   -0.80691  -0.79814  -0.78875  -0.77901  -0.77604
 Alpha  occ. eigenvalues --   -0.76921  -0.76512  -0.75552  -0.75217  -0.74666
 Alpha  occ. eigenvalues --   -0.74201  -0.72583  -0.72173  -0.71192  -0.70355
 Alpha  occ. eigenvalues --   -0.70011  -0.69585  -0.69271  -0.69207  -0.68414
 Alpha  occ. eigenvalues --   -0.68002  -0.67265  -0.66491  -0.65552  -0.63410
 Alpha  occ. eigenvalues --   -0.63148  -0.62861  -0.61839  -0.60890  -0.60307
 Alpha  occ. eigenvalues --   -0.59710  -0.59513  -0.59464  -0.59083  -0.58272
 Alpha  occ. eigenvalues --   -0.57951  -0.57658  -0.57236  -0.56392  -0.54887
 Alpha  occ. eigenvalues --   -0.54762  -0.53855  -0.53180  -0.52990  -0.52789
 Alpha  occ. eigenvalues --   -0.52323  -0.50890  -0.50776  -0.50615  -0.50004
 Alpha  occ. eigenvalues --   -0.49721  -0.49271  -0.48912  -0.48556  -0.48335
 Alpha  occ. eigenvalues --   -0.48127  -0.47991  -0.47964  -0.47587  -0.47438
 Alpha  occ. eigenvalues --   -0.47251  -0.47067  -0.46848  -0.46354  -0.46179
 Alpha  occ. eigenvalues --   -0.46042  -0.45967  -0.45683  -0.45658  -0.45487
 Alpha  occ. eigenvalues --   -0.44937  -0.44823  -0.44672  -0.44481  -0.44469
 Alpha  occ. eigenvalues --   -0.43806  -0.43692  -0.43659  -0.43483  -0.43361
 Alpha  occ. eigenvalues --   -0.43081  -0.43017  -0.42641  -0.42489  -0.42412
 Alpha  occ. eigenvalues --   -0.42268  -0.42094  -0.42042  -0.41683  -0.41454
 Alpha  occ. eigenvalues --   -0.41294  -0.41148  -0.41011  -0.40555  -0.40421
 Alpha  occ. eigenvalues --   -0.40149  -0.40049  -0.39762  -0.39759  -0.39629
 Alpha  occ. eigenvalues --   -0.39510  -0.39297  -0.39133  -0.38919  -0.38860
 Alpha  occ. eigenvalues --   -0.38508  -0.38442  -0.38189  -0.38008  -0.37829
 Alpha  occ. eigenvalues --   -0.37582  -0.37429  -0.37190  -0.37139  -0.37000
 Alpha  occ. eigenvalues --   -0.36861  -0.36536  -0.36452  -0.36284  -0.36029
 Alpha  occ. eigenvalues --   -0.35852  -0.35641  -0.35608  -0.35458  -0.34555
 Alpha  occ. eigenvalues --   -0.34335  -0.34177  -0.34117  -0.33935  -0.33812
 Alpha  occ. eigenvalues --   -0.33350  -0.32631  -0.32595  -0.32260  -0.32198
 Alpha  occ. eigenvalues --   -0.31924  -0.31831  -0.31797  -0.31703  -0.31670
 Alpha  occ. eigenvalues --   -0.31399  -0.30964  -0.29927  -0.29551  -0.29468
 Alpha  occ. eigenvalues --   -0.29400  -0.29134  -0.27613  -0.26945  -0.26193
 Alpha  occ. eigenvalues --   -0.25743  -0.25572  -0.25484  -0.25365  -0.21177
 Alpha  occ. eigenvalues --   -0.18821
 Alpha virt. eigenvalues --   -0.11177  -0.05530  -0.03613  -0.01833  -0.01578
 Alpha virt. eigenvalues --    0.00048   0.00729   0.01312   0.01769   0.02941
 Alpha virt. eigenvalues --    0.03698   0.03888   0.04768   0.05859   0.05942

 Mulliken charges:
               1
     1  Mg   0.989027
     2  C   -0.044112
     3  C   -0.066256
     4  C   -0.053594
     5  C   -0.085185
     6  N   -0.398297
     7  C    0.022875
     8  C   -0.162521
     9  C   -0.101415
    10  C    0.113125
    11  C   -0.026590
    12  C    0.050289
    13  C    0.001007
    14  C    0.243374
    15  O   -0.277279
    16  O   -0.401892
    17  N   -0.527420
    18  C    0.162519
    19  C   -0.149491
    20  C   -0.100145
    21  C    0.197237
    22  C    0.033200
    23  C    0.040061
    24  O   -0.247314
    25  C   -0.015615
    26  N   -0.400116
    27  C    0.063707
    28  C   -0.143797
    29  C   -0.072139
    30  C    0.091497
    31  C   -0.017071
    32  C   -0.049341
    33  C   -0.082294
    34  N   -0.435798
    35  C    0.151396
    36  C   -0.226235
    37  C   -0.013373
    38  C    0.206942
    39  C    0.082823
    40  C    0.108507
    41  O   -0.209479
    42  C   -0.103457
    43  C    0.271856
    44  O   -0.213399
    45  O   -0.377266
    46  C    0.110394
    47  C    0.312168
    48  C   -0.134449
    49  C   -0.249662
    50  C   -0.000477
    51  C    0.007401
    52  C   -0.018959
    53  C    0.012041
    54  C   -0.266894
    55  C    0.006067
    56  C    0.005690
    57  C   -0.025939
    58  C    0.056489
    59  C   -0.225575
    60  C   -0.039824
    61  C    0.005885
    62  C   -0.072475
    63  C   -0.029760
    64  C   -0.200158
    65  C   -0.045745
    66  C   -0.028053
    67  H    0.005582
    68  H    0.030733
    69  H    0.016326
    70  H    0.080313
    71  H    0.050021
    72  H    0.054490
    73  H    0.044884
    74  H    0.044778
    75  H    0.050618
    76  H    0.051443
    77  H    0.064087
    78  H    0.071497
    79  H    0.030608
    80  H    0.060829
    81  H    0.051541
    82  H    0.067472
    83  H    0.050321
    84  H    0.053541
    85  H    0.074659
    86  H    0.050846
    87  H    0.053495
    88  H    0.034090
    89  H    0.055268
    90  H    0.046867
    91  H    0.041434
    92  H    0.035555
    93  H    0.039012
    94  H    0.042790
    95  H    0.032291
    96  H    0.058102
    97  H    0.067829
    98  H    0.077105
    99  H    0.074504
   100  H    0.062969
   101  H    0.054180
   102  H    0.048365
   103  H    0.039728
   104  H    0.013605
   105  H    0.063264
   106  H    0.056368
   107  H    0.040508
   108  H    0.011607
   109  H    0.027021
   110  H    0.024205
   111  H    0.022119
   112  H    0.026657
   113  H    0.017170
   114  H    0.033678
   115  H    0.043561
   116  H    0.034628
   117  H    0.027273
   118  H    0.023054
   119  H    0.016106
   120  H    0.021235
   121  H    0.025444
   122  H    0.020178
   123  H    0.025132
   124  H    0.036681
   125  H    0.032348
   126  H    0.035536
   127  H    0.037704
   128  H    0.016452
   129  H    0.020427
   130  H    0.032609
   131  H    0.029182
   132  H    0.027958
   133  H    0.016355
   134  H    0.039418
   135  H    0.026406
   136  H    0.031354
   137  H    0.029754
   138  H    0.051118
   139  H    0.040492
   140  H    0.048504
 Sum of Mulliken charges =  -0.00000

 Dipole moment (field-independent basis, Debye):
    X=             -3.8097    Y=              2.8180    Z=              0.6362  Tot=              4.7812
 Quadrupole moment (field-independent basis, Debye-Ang):
   XX=           -387.0334   YY=           -435.3148   ZZ=           -398.1664
   XY=             30.4875   XZ=             10.0508   YZ=             -4.2045

 Normal termination of Gaussian 16 at Wed May  4 19:40:48 2022.
