 Gaussian 16, Revision A.03,
 Gaussian 16:  ES64L-G16RevA.03 25-Dec-2016

 --------------------------------
 #p wB97XD/Def2SVP td=(nstates=5)
 --------------------------------

 ----------------------------------------------------
 step_351_chromophore_21 TDDFT with wB97XD functional
 ----------------------------------------------------
 Symbolic Z-matrix:
 Charge =  0 Multiplicity = 1

                         Standard orientation:
 ---------------------------------------------------------------------
 Center     Atomic      Atomic             Coordinates (Angstroms)
 Number     Number       Type             X           Y           Z
 ---------------------------------------------------------------------
      1         12           0        4.637889    1.226553    0.451133
      2          6           0        4.477278   -2.223222    0.708292
      3          6           0        1.347569    1.265804   -0.425223
      4          6           0        5.040098    4.404801   -0.219304
      5          6           0        8.249072    0.789451    0.706415
      6          7           0        3.115668   -0.276227    0.396645
      7          6           0        3.240920   -1.622567    0.641559
      8          6           0        1.928926   -2.334606    0.446504
      9          6           0        1.003526   -1.219481   -0.223326
     10          6           0        1.891769    0.026316   -0.060498
     11          6           0        0.682893   -1.518862   -1.759820
     12          6           0        1.441698   -2.816428    1.829979
     13          6           0        0.692726   -4.119537    1.922752
     14          6           0       -0.280164   -4.555711    0.789658
     15          8           0       -0.143428   -5.460676   -0.054000
     16          8           0       -1.553407   -3.951177    0.979427
     17          7           0        3.335513    2.696799   -0.039480
     18          6           0        2.016209    2.509726   -0.412888
     19          6           0        1.488105    3.757973   -0.767115
     20          6           0        2.577747    4.742007   -0.787280
     21          6           0        3.766987    3.930089   -0.295243
     22          6           0        0.025003    4.025977   -1.139316
     23          6           0        2.677196    6.170298   -1.181136
     24          8           0        3.643557    6.896201   -0.996667
     25          6           0        1.498184    6.713910   -1.844696
     26          7           0        6.390914    2.421684    0.475100
     27          6           0        6.297560    3.719340    0.026045
     28          6           0        7.627053    4.521576    0.105108
     29          6           0        8.582140    3.363762    0.352764
     30          6           0        7.703050    2.078945    0.587106
     31          6           0        7.982251    5.167149   -1.307237
     32          6           0        9.628634    3.663247    1.561063
     33          6           0       11.120129    3.248544    1.467347
     34          7           0        6.052011   -0.348172    0.684020
     35          6           0        7.430056   -0.356215    0.685208
     36          6           0        7.871476   -1.754620    0.673594
     37          6           0        6.717056   -2.494007    0.796911
     38          6           0        5.718034   -1.632534    0.792994
     39          6           0        9.321728   -2.119704    0.711453
     40          6           0        6.229575   -3.846494    0.781524
     41          8           0        6.838841   -4.897304    0.689692
     42          6           0        4.699693   -3.763247    0.803891
     43          6           0        4.257549   -4.610091   -0.381114
     44          8           0        4.627662   -4.409452   -1.494927
     45          8           0        3.428342   -5.609066    0.102372
     46          6           0        2.944790   -6.413536   -1.068500
     47          6           0       -2.696692   -4.356221    0.142869
     48          6           0       -3.271326   -3.079503   -0.294366
     49          6           0       -3.363644   -2.501384   -1.474759
     50          6           0       -2.968983   -3.160645   -2.815334
     51          6           0       -3.689347   -1.016604   -1.701680
     52          6           0       -4.999685   -0.273869   -1.424404
     53          6           0       -6.285155   -1.071566   -1.759554
     54          6           0       -7.275728   -1.124790   -0.623665
     55          6           0       -6.959651   -2.324179    0.305998
     56          6           0       -8.708158   -1.149429   -1.160330
     57          6           0       -9.630016   -0.351003   -0.257761
     58          6           0      -10.399388    0.793546   -0.842254
     59          6           0      -11.882327    0.346132   -0.990179
     60          6           0      -12.134997   -0.123738   -2.437481
     61          6           0      -12.897921    1.492970   -0.659807
     62          6           0      -13.788527    1.116821    0.588801
     63          6           0      -13.445377    1.972448    1.871777
     64          6           0      -14.564781    2.916020    2.414312
     65          6           0      -13.870993    4.228503    2.804982
     66          6           0      -15.294711    2.301727    3.729752
     67          1           0        0.346887    1.350593   -0.851852
     68          1           0        5.229706    5.432443   -0.535720
     69          1           0        9.330839    0.730482    0.846386
     70          1           0        2.037253   -3.123978   -0.296863
     71          1           0        0.074563   -1.193573    0.345041
     72          1           0        0.195155   -2.474959   -1.948644
     73          1           0        1.594405   -1.656702   -2.340544
     74          1           0        0.093511   -0.772786   -2.292304
     75          1           0        0.874947   -2.059817    2.371944
     76          1           0        2.385429   -3.053083    2.321555
     77          1           0        0.025585   -4.063744    2.783080
     78          1           0        1.381331   -4.949143    2.082163
     79          1           0       -0.634879    3.201554   -0.870281
     80          1           0       -0.088469    4.227565   -2.204789
     81          1           0       -0.502446    4.805084   -0.589980
     82          1           0        0.645485    6.867948   -1.182672
     83          1           0        1.235941    5.966198   -2.593799
     84          1           0        1.837385    7.655594   -2.274751
     85          1           0        7.599729    5.308212    0.860016
     86          1           0        9.201222    3.179170   -0.525980
     87          1           0        8.939926    4.969025   -1.789468
     88          1           0        7.998315    6.233167   -1.083045
     89          1           0        7.176575    5.150455   -2.041065
     90          1           0        9.278270    3.171204    2.468397
     91          1           0        9.623133    4.736656    1.748521
     92          1           0       11.755017    4.099452    1.711686
     93          1           0       11.482167    2.917511    0.494108
     94          1           0       11.428018    2.506982    2.205336
     95          1           0        9.998781   -1.277533    0.567507
     96          1           0        9.513853   -2.778912   -0.135258
     97          1           0        9.458286   -2.682522    1.635402
     98          1           0        4.361557   -4.200540    1.744437
     99          1           0        3.734865   -6.541601   -1.808970
    100          1           0        2.060932   -5.929853   -1.483047
    101          1           0        2.558654   -7.389370   -0.771846
    102          1           0       -3.430645   -4.960187    0.676181
    103          1           0       -2.511407   -4.900472   -0.782977
    104          1           0       -3.596884   -2.373358    0.469053
    105          1           0       -3.406988   -4.158219   -2.768132
    106          1           0       -1.880639   -3.150446   -2.865945
    107          1           0       -3.253491   -2.537307   -3.663143
    108          1           0       -3.358904   -0.758065   -2.707813
    109          1           0       -2.922744   -0.462352   -1.161259
    110          1           0       -5.006061    0.679888   -1.952418
    111          1           0       -4.936846    0.118756   -0.409088
    112          1           0       -6.070294   -2.094072   -2.072150
    113          1           0       -6.737986   -0.636929   -2.650312
    114          1           0       -7.040993   -0.210650   -0.078214
    115          1           0       -6.439709   -3.151811   -0.175816
    116          1           0       -7.836763   -2.619788    0.882793
    117          1           0       -6.246137   -1.884974    1.003896
    118          1           0       -8.880591   -2.223026   -1.237701
    119          1           0       -8.732338   -0.747576   -2.173630
    120          1           0       -9.022138    0.074549    0.541195
    121          1           0      -10.152242   -1.150163    0.267803
    122          1           0      -10.105584    1.033545   -1.863711
    123          1           0      -10.324684    1.716679   -0.268694
    124          1           0      -12.152255   -0.560153   -0.448297
    125          1           0      -13.213682   -0.276137   -2.465934
    126          1           0      -11.787759   -1.109747   -2.745830
    127          1           0      -11.756996    0.662924   -3.091080
    128          1           0      -13.479576    1.696698   -1.559045
    129          1           0      -12.494862    2.480819   -0.439274
    130          1           0      -13.749193    0.090903    0.956167
    131          1           0      -14.807642    1.317247    0.258657
    132          1           0      -12.461760    2.421137    1.732778
    133          1           0      -13.248933    1.132813    2.538019
    134          1           0      -15.167761    3.239866    1.565672
    135          1           0      -12.841050    4.056824    3.117593
    136          1           0      -14.436048    4.725646    3.592742
    137          1           0      -13.671792    4.963837    2.025025
    138          1           0      -14.557179    2.432122    4.521971
    139          1           0      -15.514284    1.255700    3.513903
    140          1           0      -16.257701    2.779123    3.911209
 ---------------------------------------------------------------------

 SCF Done:  E(RwB97XD) =  -3007.83461142     A.U. after   20 cycles

 Excitation energies and oscillator strengths:

 Excited State   1:      Singlet-A      1.6616 eV  746.17 nm  f=0.3800  <S**2>=0.000
     245 -> 248       -0.18400
     246 -> 247        0.68320
     245 <- 248       -0.11471
 This state for optimization and/or second-order correction.
 Total Energy, E(TD-HF/TD-DFT) =  -3007.77354871
 Copying the excited state density for this state as the 1-particle RhoCI density.

 Excited State   2:      Singlet-A      2.2009 eV  563.35 nm  f=0.0966  <S**2>=0.000
     245 -> 247        0.62866
     246 -> 248        0.30640

 Excited State   3:      Singlet-A      3.4104 eV  363.55 nm  f=0.0860  <S**2>=0.000
     243 -> 247       -0.43371
     244 -> 247        0.44216
     245 -> 247       -0.10796
     246 -> 248        0.29099

 Excited State   4:      Singlet-A      3.5055 eV  353.69 nm  f=0.1565  <S**2>=0.000
     240 -> 247        0.25810
     240 -> 249        0.14597
     243 -> 247        0.18704
     244 -> 247        0.45116
     245 -> 247        0.13562
     246 -> 248       -0.34941

 Excited State   5:      Singlet-A      3.5287 eV  351.36 nm  f=0.1386  <S**2>=0.000
     240 -> 247        0.49273
     240 -> 248       -0.15568
     240 -> 249        0.25328
     240 -> 250        0.13785
     244 -> 247       -0.17471
     245 -> 247       -0.12449
     246 -> 248        0.28419

 The electronic state is 1-A.
 Alpha  occ. eigenvalues --  -46.94233 -19.30376 -19.30269 -19.25977 -19.25066
 Alpha  occ. eigenvalues --  -19.23682 -19.23414 -14.46995 -14.46992 -14.44070
 Alpha  occ. eigenvalues --  -14.43191 -10.44617 -10.42932 -10.38353 -10.38006
 Alpha  occ. eigenvalues --  -10.36124 -10.35669 -10.35322 -10.34811 -10.34435
 Alpha  occ. eigenvalues --  -10.34143 -10.34095 -10.34081 -10.33414 -10.33153
 Alpha  occ. eigenvalues --  -10.32565 -10.32379 -10.32197 -10.32107 -10.31811
 Alpha  occ. eigenvalues --  -10.31705 -10.31643 -10.31518 -10.31471 -10.31445
 Alpha  occ. eigenvalues --  -10.31431 -10.31310 -10.31247 -10.31189 -10.31060
 Alpha  occ. eigenvalues --  -10.30670 -10.30330 -10.30328 -10.29949 -10.29847
 Alpha  occ. eigenvalues --  -10.29824 -10.29785 -10.29659 -10.29443 -10.29348
 Alpha  occ. eigenvalues --  -10.29336 -10.29213 -10.29206 -10.28937 -10.28781
 Alpha  occ. eigenvalues --  -10.28674 -10.28614 -10.28546 -10.28455 -10.28377
 Alpha  occ. eigenvalues --  -10.28340 -10.28037 -10.28014 -10.27972 -10.27833
 Alpha  occ. eigenvalues --  -10.27602  -3.20321  -1.93937  -1.93449  -1.93302
 Alpha  occ. eigenvalues --   -1.18453  -1.17023  -1.12322  -1.11904  -1.10769
 Alpha  occ. eigenvalues --   -1.09256  -1.07074  -1.06062  -1.05655  -1.04796
 Alpha  occ. eigenvalues --   -0.95139  -0.92870  -0.92212  -0.91701  -0.90908
 Alpha  occ. eigenvalues --   -0.90486  -0.89995  -0.89313  -0.89084  -0.88814
 Alpha  occ. eigenvalues --   -0.88371  -0.87455  -0.86534  -0.85559  -0.85203
 Alpha  occ. eigenvalues --   -0.84589  -0.84278  -0.83199  -0.82843  -0.82269
 Alpha  occ. eigenvalues --   -0.81866  -0.80188  -0.79979  -0.78796  -0.77941
 Alpha  occ. eigenvalues --   -0.77706  -0.77180  -0.76990  -0.76893  -0.76027
 Alpha  occ. eigenvalues --   -0.75670  -0.74773  -0.74049  -0.73153  -0.70977
 Alpha  occ. eigenvalues --   -0.70711  -0.70448  -0.69396  -0.68519  -0.67816
 Alpha  occ. eigenvalues --   -0.67207  -0.67130  -0.66910  -0.66499  -0.65733
 Alpha  occ. eigenvalues --   -0.65628  -0.65342  -0.64901  -0.63774  -0.62320
 Alpha  occ. eigenvalues --   -0.62269  -0.61259  -0.60627  -0.60376  -0.60223
 Alpha  occ. eigenvalues --   -0.59763  -0.58332  -0.58165  -0.58058  -0.57409
 Alpha  occ. eigenvalues --   -0.57174  -0.56683  -0.56317  -0.55977  -0.55701
 Alpha  occ. eigenvalues --   -0.55479  -0.55435  -0.55265  -0.54935  -0.54844
 Alpha  occ. eigenvalues --   -0.54799  -0.54689  -0.54193  -0.53730  -0.53521
 Alpha  occ. eigenvalues --   -0.53430  -0.53368  -0.53050  -0.52947  -0.52852
 Alpha  occ. eigenvalues --   -0.52261  -0.52230  -0.52009  -0.51841  -0.51774
 Alpha  occ. eigenvalues --   -0.51151  -0.51093  -0.50956  -0.50818  -0.50591
 Alpha  occ. eigenvalues --   -0.50371  -0.50298  -0.49962  -0.49812  -0.49704
 Alpha  occ. eigenvalues --   -0.49534  -0.49422  -0.49345  -0.48914  -0.48682
 Alpha  occ. eigenvalues --   -0.48490  -0.48427  -0.48172  -0.47751  -0.47609
 Alpha  occ. eigenvalues --   -0.47321  -0.47208  -0.47012  -0.46952  -0.46801
 Alpha  occ. eigenvalues --   -0.46714  -0.46419  -0.46300  -0.46101  -0.45966
 Alpha  occ. eigenvalues --   -0.45721  -0.45513  -0.45286  -0.45137  -0.44985
 Alpha  occ. eigenvalues --   -0.44689  -0.44560  -0.44339  -0.44284  -0.44090
 Alpha  occ. eigenvalues --   -0.43952  -0.43637  -0.43627  -0.43494  -0.43136
 Alpha  occ. eigenvalues --   -0.42899  -0.42753  -0.42573  -0.42441  -0.41624
 Alpha  occ. eigenvalues --   -0.41323  -0.41212  -0.41079  -0.41017  -0.40763
 Alpha  occ. eigenvalues --   -0.40437  -0.39716  -0.39547  -0.39264  -0.39173
 Alpha  occ. eigenvalues --   -0.38947  -0.38830  -0.38743  -0.38738  -0.38671
 Alpha  occ. eigenvalues --   -0.38454  -0.37989  -0.36875  -0.36473  -0.36359
 Alpha  occ. eigenvalues --   -0.36300  -0.35914  -0.34514  -0.33516  -0.32984
 Alpha  occ. eigenvalues --   -0.32927  -0.32573  -0.32202  -0.31909  -0.26181
 Alpha  occ. eigenvalues --   -0.22992
 Alpha virt. eigenvalues --   -0.07051  -0.00086   0.02592   0.04716   0.05250
 Alpha virt. eigenvalues --    0.06589   0.06913   0.07818   0.08389   0.09348
 Alpha virt. eigenvalues --    0.10283   0.10603   0.11626   0.12557   0.12690

 Mulliken charges:
               1
     1  Mg   0.977385
     2  C   -0.053376
     3  C   -0.088190
     4  C   -0.073999
     5  C   -0.102969
     6  N   -0.360981
     7  C   -0.006452
     8  C   -0.129816
     9  C   -0.077945
    10  C    0.102134
    11  C   -0.012121
    12  C    0.060908
    13  C    0.018721
    14  C    0.227917
    15  O   -0.273117
    16  O   -0.401552
    17  N   -0.491555
    18  C    0.158679
    19  C   -0.140532
    20  C   -0.093882
    21  C    0.190544
    22  C    0.042389
    23  C    0.039160
    24  O   -0.239563
    25  C   -0.002626
    26  N   -0.368197
    27  C    0.053402
    28  C   -0.118184
    29  C   -0.046031
    30  C    0.075625
    31  C   -0.009348
    32  C   -0.035640
    33  C   -0.067360
    34  N   -0.396022
    35  C    0.143451
    36  C   -0.225922
    37  C   -0.008173
    38  C    0.193251
    39  C    0.095240
    40  C    0.086163
    41  O   -0.200567
    42  C   -0.060887
    43  C    0.250386
    44  O   -0.209583
    45  O   -0.376329
    46  C    0.126478
    47  C    0.328377
    48  C   -0.140809
    49  C   -0.240016
    50  C    0.017364
    51  C    0.026665
    52  C   -0.004007
    53  C    0.026628
    54  C   -0.229443
    55  C    0.017247
    56  C    0.021159
    57  C   -0.009563
    58  C    0.071734
    59  C   -0.195711
    60  C   -0.025762
    61  C    0.019783
    62  C   -0.057743
    63  C   -0.015785
    64  C   -0.172604
    65  C   -0.033694
    66  C   -0.012663
    67  H   -0.002622
    68  H    0.024953
    69  H    0.009214
    70  H    0.059121
    71  H    0.040793
    72  H    0.043425
    73  H    0.039496
    74  H    0.038711
    75  H    0.045572
    76  H    0.038441
    77  H    0.059105
    78  H    0.066656
    79  H    0.027567
    80  H    0.056788
    81  H    0.047585
    82  H    0.063298
    83  H    0.042279
    84  H    0.053061
    85  H    0.067339
    86  H    0.037551
    87  H    0.049189
    88  H    0.028041
    89  H    0.048866
    90  H    0.038635
    91  H    0.032788
    92  H    0.029776
    93  H    0.032919
    94  H    0.037155
    95  H    0.026476
    96  H    0.052507
    97  H    0.062159
    98  H    0.070049
    99  H    0.070511
   100  H    0.057449
   101  H    0.051347
   102  H    0.044863
   103  H    0.033016
   104  H    0.007165
   105  H    0.057857
   106  H    0.046676
   107  H    0.035630
   108  H    0.003090
   109  H    0.017641
   110  H    0.018069
   111  H    0.013386
   112  H    0.013245
   113  H    0.009607
   114  H    0.016748
   115  H    0.035325
   116  H    0.029277
   117  H    0.019840
   118  H    0.014385
   119  H    0.003814
   120  H    0.012145
   121  H    0.017277
   122  H    0.009520
   123  H    0.017981
   124  H    0.022027
   125  H    0.024335
   126  H    0.030472
   127  H    0.030061
   128  H    0.008706
   129  H    0.010604
   130  H    0.025169
   131  H    0.020754
   132  H    0.016422
   133  H    0.007800
   134  H    0.029184
   135  H    0.018508
   136  H    0.025398
   137  H    0.024318
   138  H    0.044398
   139  H    0.033621
   140  H    0.043396
 Sum of Mulliken charges =  -0.00000

 Dipole moment (field-independent basis, Debye):
    X=             -4.1839    Y=              3.1569    Z=              0.5411  Tot=              5.2692
 Quadrupole moment (field-independent basis, Debye-Ang):
   XX=           -390.1841   YY=           -433.3115   ZZ=           -397.6561
   XY=             30.7956   XZ=              9.6044   YZ=             -4.8011

 Normal termination of Gaussian 16 at Wed May  4 20:30:05 2022.
