 Gaussian 16, Revision A.03,
 Gaussian 16:  ES64L-G16RevA.03 25-Dec-2016

 --------------------
 #p ZINDO=(nstates=5)
 --------------------

 -----------------------------
 step_351_chromophore_21 ZINDO
 -----------------------------
 Symbolic Z-matrix:
 Charge =  0 Multiplicity = 1

                         Standard orientation:
 ---------------------------------------------------------------------
 Center     Atomic      Atomic             Coordinates (Angstroms)
 Number     Number       Type             X           Y           Z
 ---------------------------------------------------------------------
      1         12           0        4.637889    1.226553    0.451133
      2          6           0        4.477278   -2.223222    0.708292
      3          6           0        1.347569    1.265804   -0.425223
      4          6           0        5.040098    4.404801   -0.219304
      5          6           0        8.249072    0.789451    0.706415
      6          7           0        3.115668   -0.276227    0.396645
      7          6           0        3.240920   -1.622567    0.641559
      8          6           0        1.928926   -2.334606    0.446504
      9          6           0        1.003526   -1.219481   -0.223326
     10          6           0        1.891769    0.026316   -0.060498
     11          6           0        0.682893   -1.518862   -1.759820
     12          6           0        1.441698   -2.816428    1.829979
     13          6           0        0.692726   -4.119537    1.922752
     14          6           0       -0.280164   -4.555711    0.789658
     15          8           0       -0.143428   -5.460676   -0.054000
     16          8           0       -1.553407   -3.951177    0.979427
     17          7           0        3.335513    2.696799   -0.039480
     18          6           0        2.016209    2.509726   -0.412888
     19          6           0        1.488105    3.757973   -0.767115
     20          6           0        2.577747    4.742007   -0.787280
     21          6           0        3.766987    3.930089   -0.295243
     22          6           0        0.025003    4.025977   -1.139316
     23          6           0        2.677196    6.170298   -1.181136
     24          8           0        3.643557    6.896201   -0.996667
     25          6           0        1.498184    6.713910   -1.844696
     26          7           0        6.390914    2.421684    0.475100
     27          6           0        6.297560    3.719340    0.026045
     28          6           0        7.627053    4.521576    0.105108
     29          6           0        8.582140    3.363762    0.352764
     30          6           0        7.703050    2.078945    0.587106
     31          6           0        7.982251    5.167149   -1.307237
     32          6           0        9.628634    3.663247    1.561063
     33          6           0       11.120129    3.248544    1.467347
     34          7           0        6.052011   -0.348172    0.684020
     35          6           0        7.430056   -0.356215    0.685208
     36          6           0        7.871476   -1.754620    0.673594
     37          6           0        6.717056   -2.494007    0.796911
     38          6           0        5.718034   -1.632534    0.792994
     39          6           0        9.321728   -2.119704    0.711453
     40          6           0        6.229575   -3.846494    0.781524
     41          8           0        6.838841   -4.897304    0.689692
     42          6           0        4.699693   -3.763247    0.803891
     43          6           0        4.257549   -4.610091   -0.381114
     44          8           0        4.627662   -4.409452   -1.494927
     45          8           0        3.428342   -5.609066    0.102372
     46          6           0        2.944790   -6.413536   -1.068500
     47          6           0       -2.696692   -4.356221    0.142869
     48          6           0       -3.271326   -3.079503   -0.294366
     49          6           0       -3.363644   -2.501384   -1.474759
     50          6           0       -2.968983   -3.160645   -2.815334
     51          6           0       -3.689347   -1.016604   -1.701680
     52          6           0       -4.999685   -0.273869   -1.424404
     53          6           0       -6.285155   -1.071566   -1.759554
     54          6           0       -7.275728   -1.124790   -0.623665
     55          6           0       -6.959651   -2.324179    0.305998
     56          6           0       -8.708158   -1.149429   -1.160330
     57          6           0       -9.630016   -0.351003   -0.257761
     58          6           0      -10.399388    0.793546   -0.842254
     59          6           0      -11.882327    0.346132   -0.990179
     60          6           0      -12.134997   -0.123738   -2.437481
     61          6           0      -12.897921    1.492970   -0.659807
     62          6           0      -13.788527    1.116821    0.588801
     63          6           0      -13.445377    1.972448    1.871777
     64          6           0      -14.564781    2.916020    2.414312
     65          6           0      -13.870993    4.228503    2.804982
     66          6           0      -15.294711    2.301727    3.729752
     67          1           0        0.346887    1.350593   -0.851852
     68          1           0        5.229706    5.432443   -0.535720
     69          1           0        9.330839    0.730482    0.846386
     70          1           0        2.037253   -3.123978   -0.296863
     71          1           0        0.074563   -1.193573    0.345041
     72          1           0        0.195155   -2.474959   -1.948644
     73          1           0        1.594405   -1.656702   -2.340544
     74          1           0        0.093511   -0.772786   -2.292304
     75          1           0        0.874947   -2.059817    2.371944
     76          1           0        2.385429   -3.053083    2.321555
     77          1           0        0.025585   -4.063744    2.783080
     78          1           0        1.381331   -4.949143    2.082163
     79          1           0       -0.634879    3.201554   -0.870281
     80          1           0       -0.088469    4.227565   -2.204789
     81          1           0       -0.502446    4.805084   -0.589980
     82          1           0        0.645485    6.867948   -1.182672
     83          1           0        1.235941    5.966198   -2.593799
     84          1           0        1.837385    7.655594   -2.274751
     85          1           0        7.599729    5.308212    0.860016
     86          1           0        9.201222    3.179170   -0.525980
     87          1           0        8.939926    4.969025   -1.789468
     88          1           0        7.998315    6.233167   -1.083045
     89          1           0        7.176575    5.150455   -2.041065
     90          1           0        9.278270    3.171204    2.468397
     91          1           0        9.623133    4.736656    1.748521
     92          1           0       11.755017    4.099452    1.711686
     93          1           0       11.482167    2.917511    0.494108
     94          1           0       11.428018    2.506982    2.205336
     95          1           0        9.998781   -1.277533    0.567507
     96          1           0        9.513853   -2.778912   -0.135258
     97          1           0        9.458286   -2.682522    1.635402
     98          1           0        4.361557   -4.200540    1.744437
     99          1           0        3.734865   -6.541601   -1.808970
    100          1           0        2.060932   -5.929853   -1.483047
    101          1           0        2.558654   -7.389370   -0.771846
    102          1           0       -3.430645   -4.960187    0.676181
    103          1           0       -2.511407   -4.900472   -0.782977
    104          1           0       -3.596884   -2.373358    0.469053
    105          1           0       -3.406988   -4.158219   -2.768132
    106          1           0       -1.880639   -3.150446   -2.865945
    107          1           0       -3.253491   -2.537307   -3.663143
    108          1           0       -3.358904   -0.758065   -2.707813
    109          1           0       -2.922744   -0.462352   -1.161259
    110          1           0       -5.006061    0.679888   -1.952418
    111          1           0       -4.936846    0.118756   -0.409088
    112          1           0       -6.070294   -2.094072   -2.072150
    113          1           0       -6.737986   -0.636929   -2.650312
    114          1           0       -7.040993   -0.210650   -0.078214
    115          1           0       -6.439709   -3.151811   -0.175816
    116          1           0       -7.836763   -2.619788    0.882793
    117          1           0       -6.246137   -1.884974    1.003896
    118          1           0       -8.880591   -2.223026   -1.237701
    119          1           0       -8.732338   -0.747576   -2.173630
    120          1           0       -9.022138    0.074549    0.541195
    121          1           0      -10.152242   -1.150163    0.267803
    122          1           0      -10.105584    1.033545   -1.863711
    123          1           0      -10.324684    1.716679   -0.268694
    124          1           0      -12.152255   -0.560153   -0.448297
    125          1           0      -13.213682   -0.276137   -2.465934
    126          1           0      -11.787759   -1.109747   -2.745830
    127          1           0      -11.756996    0.662924   -3.091080
    128          1           0      -13.479576    1.696698   -1.559045
    129          1           0      -12.494862    2.480819   -0.439274
    130          1           0      -13.749193    0.090903    0.956167
    131          1           0      -14.807642    1.317247    0.258657
    132          1           0      -12.461760    2.421137    1.732778
    133          1           0      -13.248933    1.132813    2.538019
    134          1           0      -15.167761    3.239866    1.565672
    135          1           0      -12.841050    4.056824    3.117593
    136          1           0      -14.436048    4.725646    3.592742
    137          1           0      -13.671792    4.963837    2.025025
    138          1           0      -14.557179    2.432122    4.521971
    139          1           0      -15.514284    1.255700    3.513903
    140          1           0      -16.257701    2.779123    3.911209
 ---------------------------------------------------------------------

 SCF Done:  E(RZINDO/S) =  -474.421547804     A.U. after   20 cycles

 Excitation energies and oscillator strengths:

 Excited State   1:      Singlet-A      1.2559 eV  987.25 nm  f=0.5990  <S**2>=0.000
     175 ->178        -0.19109
     176 ->177         0.66278
 This state for optimization and/or second-order correction.
 Total Energy, E(CIS/TDA) =  -474.375396145
 Copying the excited state density for this state as the 1-particle RhoCI density.

 Excited State   2:      Singlet-A      1.9289 eV  642.79 nm  f=0.0291  <S**2>=0.000
     175 ->177         0.53125
     176 ->178         0.44220

 Excited State   3:      Singlet-A      2.8977 eV  427.88 nm  f=0.0054  <S**2>=0.000
     169 ->177         0.35814
     169 ->178        -0.16663
     169 ->179         0.33872
     169 ->181         0.24691
     169 ->186        -0.22289
     169 ->187         0.13671
     176 ->179         0.10041

 Excited State   4:      Singlet-A      2.9850 eV  415.36 nm  f=0.4117  <S**2>=0.000
     170 ->177         0.12607
     170 ->179        -0.17677
     170 ->181         0.17821
     170 ->186         0.10510
     175 ->177        -0.25746
     176 ->178         0.36696
     176 ->179        -0.36472

 Excited State   5:      Singlet-A      3.0074 eV  412.26 nm  f=0.1923  <S**2>=0.000
     170 ->177         0.25659
     170 ->179        -0.29941
     170 ->181         0.32850
     170 ->186         0.17368
     170 ->187         0.11425
     175 ->177         0.17448
     176 ->178        -0.23432
     176 ->179         0.14298

 The electronic state is 1-A.
 Alpha  occ. eigenvalues --   -1.87999  -1.82016  -1.79950  -1.72823  -1.71943
 Alpha  occ. eigenvalues --   -1.69517  -1.66988  -1.60958  -1.60729  -1.59794
 Alpha  occ. eigenvalues --   -1.54936  -1.52007  -1.48390  -1.48023  -1.45764
 Alpha  occ. eigenvalues --   -1.44966  -1.43959  -1.40544  -1.39085  -1.38340
 Alpha  occ. eigenvalues --   -1.36133  -1.33855  -1.33529  -1.32377  -1.28543
 Alpha  occ. eigenvalues --   -1.27800  -1.25419  -1.23309  -1.21606  -1.18978
 Alpha  occ. eigenvalues --   -1.17505  -1.15668  -1.14858  -1.14783  -1.13218
 Alpha  occ. eigenvalues --   -1.12420  -1.10895  -1.09649  -1.05196  -1.04734
 Alpha  occ. eigenvalues --   -1.03707  -1.01687  -1.00210  -0.97823  -0.97431
 Alpha  occ. eigenvalues --   -0.96180  -0.94708  -0.93895  -0.92614  -0.91505
 Alpha  occ. eigenvalues --   -0.90815  -0.90742  -0.90219  -0.88848  -0.88603
 Alpha  occ. eigenvalues --   -0.85935  -0.85138  -0.83592  -0.82529  -0.79747
 Alpha  occ. eigenvalues --   -0.79148  -0.77740  -0.76695  -0.76619  -0.76458
 Alpha  occ. eigenvalues --   -0.75673  -0.75145  -0.74917  -0.74155  -0.73233
 Alpha  occ. eigenvalues --   -0.72684  -0.72435  -0.72160  -0.71193  -0.70812
 Alpha  occ. eigenvalues --   -0.70623  -0.69807  -0.69091  -0.68597  -0.67922
 Alpha  occ. eigenvalues --   -0.67152  -0.66744  -0.66683  -0.66273  -0.65776
 Alpha  occ. eigenvalues --   -0.65197  -0.64706  -0.64594  -0.63871  -0.63599
 Alpha  occ. eigenvalues --   -0.63324  -0.62928  -0.61862  -0.61510  -0.61304
 Alpha  occ. eigenvalues --   -0.61275  -0.60865  -0.60690  -0.60532  -0.59747
 Alpha  occ. eigenvalues --   -0.59458  -0.59321  -0.58784  -0.58656  -0.57988
 Alpha  occ. eigenvalues --   -0.57790  -0.57612  -0.57506  -0.57010  -0.56412
 Alpha  occ. eigenvalues --   -0.56309  -0.55810  -0.55269  -0.54990  -0.54712
 Alpha  occ. eigenvalues --   -0.54660  -0.53897  -0.53245  -0.53204  -0.52817
 Alpha  occ. eigenvalues --   -0.52750  -0.52408  -0.52206  -0.51667  -0.51591
 Alpha  occ. eigenvalues --   -0.51429  -0.51112  -0.50791  -0.50727  -0.50383
 Alpha  occ. eigenvalues --   -0.50000  -0.49945  -0.49723  -0.49184  -0.49089
 Alpha  occ. eigenvalues --   -0.48862  -0.48653  -0.48040  -0.47849  -0.47396
 Alpha  occ. eigenvalues --   -0.47255  -0.47094  -0.47006  -0.46603  -0.46279
 Alpha  occ. eigenvalues --   -0.46026  -0.45827  -0.45441  -0.45287  -0.44877
 Alpha  occ. eigenvalues --   -0.44867  -0.44757  -0.44651  -0.44212  -0.43642
 Alpha  occ. eigenvalues --   -0.43606  -0.43074  -0.42669  -0.42230  -0.42098
 Alpha  occ. eigenvalues --   -0.41981  -0.41787  -0.39683  -0.39669  -0.39416
 Alpha  occ. eigenvalues --   -0.38017  -0.36947  -0.35551  -0.34916  -0.34497
 Alpha  occ. eigenvalues --   -0.33011  -0.32954  -0.32698  -0.32433  -0.26827
 Alpha  occ. eigenvalues --   -0.21837
 Alpha virt. eigenvalues --   -0.08543  -0.02323  -0.00449   0.00509   0.01576
 Alpha virt. eigenvalues --    0.02764   0.03272   0.03456   0.04824   0.04942
 Alpha virt. eigenvalues --    0.06074   0.07071   0.07317   0.08052   0.08461

 Mulliken charges:
               1
     1  Mg   0.422626
     2  C   -0.040010
     3  C   -0.087266
     4  C   -0.066102
     5  C   -0.059969
     6  N   -0.273865
     7  C    0.105084
     8  C   -0.000452
     9  C   -0.005844
    10  C    0.148018
    11  C   -0.055800
    12  C   -0.013293
    13  C    0.015752
    14  C    0.455075
    15  O   -0.506784
    16  O   -0.279832
    17  N   -0.321060
    18  C    0.116733
    19  C    0.014207
    20  C   -0.069865
    21  C    0.149784
    22  C   -0.048536
    23  C    0.340516
    24  O   -0.530755
    25  C   -0.033389
    26  N   -0.254631
    27  C    0.130639
    28  C    0.012263
    29  C    0.001006
    30  C    0.106552
    31  C   -0.064030
    32  C   -0.038957
    33  C   -0.058655
    34  N   -0.335694
    35  C    0.084922
    36  C    0.023081
    37  C   -0.034061
    38  C    0.133836
    39  C   -0.041301
    40  C    0.337593
    41  O   -0.522519
    42  C    0.034884
    43  C    0.497792
    44  O   -0.498117
    45  O   -0.271560
    46  C    0.068415
    47  C    0.117854
    48  C   -0.074762
    49  C   -0.008588
    50  C   -0.054385
    51  C   -0.026910
    52  C   -0.025903
    53  C   -0.031148
    54  C   -0.012346
    55  C   -0.059271
    56  C   -0.033783
    57  C   -0.029300
    58  C   -0.024118
    59  C   -0.016808
    60  C   -0.064507
    61  C   -0.039884
    62  C   -0.048172
    63  C   -0.045576
    64  C   -0.014562
    65  C   -0.062600
    66  C   -0.053863
    67  H    0.033300
    68  H    0.048802
    69  H    0.039826
    70  H    0.044500
    71  H    0.033262
    72  H    0.021608
    73  H    0.022706
    74  H    0.022029
    75  H    0.034017
    76  H    0.022402
    77  H    0.034664
    78  H    0.044212
    79  H    0.016249
    80  H    0.032136
    81  H    0.028070
    82  H    0.044402
    83  H    0.033282
    84  H    0.037685
    85  H    0.052057
    86  H    0.032222
    87  H    0.031936
    88  H    0.008096
    89  H    0.029465
    90  H    0.020293
    91  H    0.019621
    92  H    0.012909
    93  H    0.020839
    94  H    0.019349
    95  H    0.025686
    96  H    0.032719
    97  H    0.038458
    98  H    0.051616
    99  H    0.055340
   100  H    0.043247
   101  H    0.032032
   102  H    0.043694
   103  H    0.053589
   104  H    0.017130
   105  H    0.031573
   106  H    0.031684
   107  H    0.025280
   108  H    0.011356
   109  H    0.006681
   110  H    0.014012
   111  H    0.017925
   112  H    0.016781
   113  H    0.011658
   114  H    0.019406
   115  H    0.028984
   116  H    0.020285
   117  H    0.009030
   118  H    0.020847
   119  H    0.015597
   120  H    0.007387
   121  H    0.020850
   122  H    0.023111
   123  H    0.021385
   124  H    0.027069
   125  H    0.009527
   126  H    0.017305
   127  H    0.023284
   128  H    0.015972
   129  H    0.020923
   130  H    0.025118
   131  H    0.013219
   132  H    0.024844
   133  H    0.010075
   134  H    0.032314
   135  H    0.013319
   136  H    0.012753
   137  H    0.013520
   138  H    0.032511
   139  H    0.018543
   140  H    0.024622
 Sum of Mulliken charges =  -0.00000

 Dipole moment (field-independent basis, Debye):
    X=             -5.7235    Y=              4.0490    Z=              0.9989  Tot=              7.0817
 N-N= 4.390999480772D+03 E-N= 0.000000000000D+00  KE=-9.456285006561D+03
 Leave Link  601 at Wed May  4 20:52:11 2022, MaxMem=  6710886400 cpu:               1.3 elap:               0.1
 (Enter /sw/apps/gaussian-16.0/g16/l9999.exe)
 1\1\GINC-BP1-COMPUTE166\SP\RZINDO CIS\STO-3G\C55H74Mg1N4O6\OF15641\04-
 May-2022\0\\#p ZINDO=(nstates=5)\\step_351_chromophore_21 ZINDO\\0,1\M
 g,0,15.816,52.8,25.484\C,0,17.763,51.671,28.116\C,0,13.271,53.368,27.6
 74\C,0,13.936,53.383,22.869\C,0,18.43,51.432,23.341\N,0,15.674,52.734,
 27.618\C,0,16.631,52.34,28.522\C,0,16.104,52.398,29.931\C,0,14.542,52.
 657,29.727\C,0,14.495,52.954,28.218\C,0,13.647,51.389,30.107\C,0,16.84
 5,53.535,30.667\C,0,17.153,53.372,32.132\C,0,16.157,52.635,33.073\O,0,

 Normal termination of Gaussian 16 at Wed May  4 20:52:11 2022.
