 Gaussian 16, Revision A.03,
 Gaussian 16:  ES64L-G16RevA.03 25-Dec-2016

 ------------------------------
 #p blyp/Def2SVP td=(nstates=5)
 ------------------------------

 -------------------------------------------------
 step_901_chromophore_2 TDDFT with blyp functional
 -------------------------------------------------
 Symbolic Z-matrix:
 Charge =  0 Multiplicity = 1

                         Standard orientation:
 ---------------------------------------------------------------------
 Center     Atomic      Atomic             Coordinates (Angstroms)
 Number     Number       Type             X           Y           Z
 ---------------------------------------------------------------------
      1         12           0        4.514063    1.130119   -0.725048
      2          6           0        4.904592   -2.381489   -0.330035
      3          6           0        2.006386    0.347368   -3.075469
      4          6           0        3.339251    4.199400   -0.421953
      5          6           0        6.520957    1.484185    2.159675
      6          7           0        3.475832   -0.774930   -1.450054
      7          6           0        3.942389   -1.987851   -1.255871
      8          6           0        3.155741   -2.990938   -2.123675
      9          6           0        2.612167   -2.088718   -3.202169
     10          6           0        2.621809   -0.765373   -2.535528
     11          6           0        3.372232   -2.070324   -4.551223
     12          6           0        2.070475   -3.743466   -1.395150
     13          6           0        1.469165   -3.040580   -0.172316
     14          6           0        0.179961   -3.612532    0.408297
     15          8           0       -0.151691   -4.800596    0.374163
     16          8           0       -0.626711   -2.704813    1.147847
     17          7           0        3.013166    2.149106   -1.699041
     18          6           0        2.166689    1.694442   -2.680644
     19          6           0        1.524569    2.822674   -3.290451
     20          6           0        1.900365    3.970503   -2.526474
     21          6           0        2.838369    3.493374   -1.492164
     22          6           0        0.528725    2.663562   -4.406479
     23          6           0        1.447534    5.425897   -2.793785
     24          8           0        0.644853    5.700733   -3.660755
     25          6           0        1.810746    6.526191   -1.944250
     26          7           0        4.804433    2.556282    0.783921
     27          6           0        4.229217    3.814341    0.658686
     28          6           0        4.807366    4.900572    1.654570
     29          6           0        5.963398    4.056750    2.290152
     30          6           0        5.755567    2.589682    1.831105
     31          6           0        5.265400    6.203116    0.954118
     32          6           0        6.069059    4.310198    3.804245
     33          6           0        7.422525    4.673041    4.312587
     34          7           0        5.574054   -0.206487    0.661328
     35          6           0        6.380387    0.130801    1.755482
     36          6           0        6.829305   -1.129556    2.327633
     37          6           0        6.319342   -2.111608    1.443942
     38          6           0        5.532997   -1.533139    0.506789
     39          6           0        7.859787   -1.320608    3.482201
     40          6           0        6.346566   -3.528675    1.202300
     41          8           0        6.860727   -4.453693    1.860847
     42          6           0        5.356848   -3.759489    0.068375
     43          6           0        5.932273   -4.570478   -1.053560
     44          8           0        5.714571   -5.720726   -1.361467
     45          8           0        6.789947   -3.668484   -1.725438
     46          6           0        7.193030   -4.168624   -3.079451
     47          6           0       -1.796701   -3.283070    1.799892
     48          6           0       -2.737263   -2.147314    2.200882
     49          6           0       -3.445403   -2.030485    3.332027
     50          6           0       -3.524402   -3.143614    4.433090
     51          6           0       -4.298361   -0.768117    3.670449
     52          6           0       -5.859601   -0.681913    3.276462
     53          6           0       -6.197833    0.715291    2.734696
     54          6           0       -6.429661    0.779000    1.217937
     55          6           0       -5.529211    1.844502    0.516960
     56          6           0       -7.895451    0.896767    0.739885
     57          6           0       -8.536397   -0.392715    0.212810
     58          6           0       -8.834781   -0.536921   -1.265992
     59          6           0      -10.265600   -0.958646   -1.572277
     60          6           0      -10.401072   -1.461574   -2.979106
     61          6           0      -11.332263    0.131303   -1.291932
     62          6           0      -12.216053   -0.318388   -0.134035
     63          6           0      -13.194154    0.845490    0.455743
     64          6           0      -14.629024    0.449892    0.682078
     65          6           0      -15.183664   -0.149239   -0.613375
     66          6           0      -15.616198    1.522800    1.190843
     67          1           0        1.331471    0.168419   -3.916002
     68          1           0        2.980986    5.213975   -0.235148
     69          1           0        7.198883    1.666841    2.995944
     70          1           0        3.765762   -3.795677   -2.533458
     71          1           0        1.577951   -2.231819   -3.515910
     72          1           0        2.946170   -2.733864   -5.303544
     73          1           0        4.395171   -2.446589   -4.573723
     74          1           0        3.459138   -1.105788   -5.050879
     75          1           0        2.528763   -4.710741   -1.186049
     76          1           0        1.222460   -3.953036   -2.047366
     77          1           0        1.180805   -2.027375   -0.453630
     78          1           0        2.129634   -3.063901    0.694184
     79          1           0       -0.471840    2.385477   -4.074505
     80          1           0        0.850914    1.859257   -5.067899
     81          1           0        0.357713    3.561507   -5.000527
     82          1           0        2.833385    6.890204   -1.846689
     83          1           0        1.308771    6.295976   -1.003604
     84          1           0        1.374704    7.473880   -2.262051
     85          1           0        4.060029    5.103649    2.422214
     86          1           0        6.876922    4.237095    1.722207
     87          1           0        4.447844    6.901466    0.776011
     88          1           0        5.691395    5.952371   -0.017851
     89          1           0        6.011340    6.774506    1.506390
     90          1           0        5.794928    3.378934    4.299790
     91          1           0        5.313538    5.025233    4.128519
     92          1           0        7.130711    5.406803    5.064040
     93          1           0        8.118109    5.077433    3.577025
     94          1           0        7.882988    3.910896    4.940888
     95          1           0        7.425145   -1.719367    4.399177
     96          1           0        8.366993   -0.383304    3.711930
     97          1           0        8.714807   -1.908060    3.147508
     98          1           0        4.656165   -4.420559    0.577027
     99          1           0        7.405812   -3.260969   -3.644228
    100          1           0        6.391651   -4.793900   -3.472686
    101          1           0        8.158001   -4.668104   -2.990884
    102          1           0       -1.472485   -3.854207    2.669849
    103          1           0       -2.290182   -4.049158    1.203689
    104          1           0       -2.875185   -1.260834    1.580612
    105          1           0       -2.885222   -3.998087    4.211927
    106          1           0       -4.526180   -3.519969    4.639882
    107          1           0       -3.181772   -2.660728    5.347919
    108          1           0       -3.708651    0.069834    3.300232
    109          1           0       -4.278692   -0.703092    4.758894
    110          1           0       -6.370477   -0.895115    4.215293
    111          1           0       -6.162567   -1.390430    2.504917
    112          1           0       -5.483490    1.475342    3.050663
    113          1           0       -7.197901    0.862126    3.142293
    114          1           0       -6.075020   -0.150714    0.772199
    115          1           0       -5.386744    2.733695    1.131260
    116          1           0       -5.949879    2.178984   -0.431234
    117          1           0       -4.582938    1.390827    0.222992
    118          1           0       -7.934603    1.683141   -0.013937
    119          1           0       -8.509056    1.397607    1.489816
    120          1           0       -9.457707   -0.474580    0.790037
    121          1           0       -7.858707   -1.204423    0.479215
    122          1           0       -8.166763   -1.303497   -1.658630
    123          1           0       -8.588243    0.450574   -1.656654
    124          1           0      -10.404204   -1.923349   -1.085122
    125          1           0      -11.408478   -1.504361   -3.393064
    126          1           0      -10.080015   -2.497484   -3.086461
    127          1           0       -9.883922   -0.869590   -3.733434
    128          1           0      -11.920673    0.436518   -2.157985
    129          1           0      -10.808067    1.027207   -0.958403
    130          1           0      -11.645876   -0.779570    0.671754
    131          1           0      -12.815005   -1.100603   -0.599974
    132          1           0      -13.127952    1.615502   -0.312466
    133          1           0      -12.702823    1.267910    1.331816
    134          1           0      -14.593344   -0.382028    1.385190
    135          1           0      -15.592571   -1.131103   -0.370924
    136          1           0      -14.459147   -0.159860   -1.427526
    137          1           0      -16.041952    0.346308   -1.065899
    138          1           0      -15.132368    2.467342    1.441071
    139          1           0      -16.097054    1.162378    2.101002
    140          1           0      -16.368603    1.843834    0.469629
 ---------------------------------------------------------------------

 SCF Done:  E(RB-LYP) =  -3007.36110306     A.U. after   21 cycles

 Excitation energies and oscillator strengths:

 Excited State   1:      Singlet-A      1.7273 eV  717.79 nm  f=0.0163  <S**2>=0.000
     244 -> 247        0.68584
     246 -> 247       -0.16126
 This state for optimization and/or second-order correction.
 Total Energy, E(TD-HF/TD-DFT) =  -3007.29762578
 Copying the excited state density for this state as the 1-particle RhoCI density.

 Excited State   2:      Singlet-A      1.7873 eV  693.68 nm  f=0.0422  <S**2>=0.000
     243 -> 247        0.64785
     246 -> 247       -0.25219

 Excited State   3:      Singlet-A      1.8336 eV  676.19 nm  f=0.2605  <S**2>=0.000
     243 -> 247        0.26735
     244 -> 247        0.13449
     245 -> 248       -0.17458
     246 -> 247        0.62476
     246 <- 247       -0.13917

 Excited State   4:      Singlet-A      2.0477 eV  605.49 nm  f=0.0603  <S**2>=0.000
     241 -> 247        0.10815
     245 -> 247        0.63396
     246 -> 248        0.25316

 Excited State   5:      Singlet-A      2.0993 eV  590.60 nm  f=0.0000  <S**2>=0.000
     242 -> 247        0.70706

 The electronic state is 1-A.
 Alpha  occ. eigenvalues --  -46.28261 -18.81795 -18.81004 -18.78031 -18.76370
 Alpha  occ. eigenvalues --  -18.75397 -18.75138 -14.03891 -14.03534 -14.01454
 Alpha  occ. eigenvalues --  -14.00471 -10.04332 -10.03824  -9.99856  -9.99048
 Alpha  occ. eigenvalues --   -9.98012  -9.97796  -9.97365  -9.97198  -9.96559
 Alpha  occ. eigenvalues --   -9.96438  -9.96412  -9.96028  -9.95864  -9.95340
 Alpha  occ. eigenvalues --   -9.94608  -9.94033  -9.94004  -9.93913  -9.93867
 Alpha  occ. eigenvalues --   -9.93864  -9.93686  -9.93562  -9.93397  -9.93360
 Alpha  occ. eigenvalues --   -9.93344  -9.93325  -9.93279  -9.93085  -9.93002
 Alpha  occ. eigenvalues --   -9.92955  -9.92822  -9.92681  -9.92560  -9.92148
 Alpha  occ. eigenvalues --   -9.92014  -9.92004  -9.91955  -9.91949  -9.91788
 Alpha  occ. eigenvalues --   -9.91760  -9.91467  -9.91360  -9.91302  -9.91099
 Alpha  occ. eigenvalues --   -9.91045  -9.91035  -9.90996  -9.90718  -9.90669
 Alpha  occ. eigenvalues --   -9.90540  -9.90525  -9.90505  -9.90360  -9.90180
 Alpha  occ. eigenvalues --   -9.90076  -2.92811  -1.73177  -1.72746  -1.72503
 Alpha  occ. eigenvalues --   -0.97025  -0.95973  -0.92366  -0.90211  -0.89804
 Alpha  occ. eigenvalues --   -0.88301  -0.87898  -0.86046  -0.85767  -0.84468
 Alpha  occ. eigenvalues --   -0.76957  -0.73762  -0.73523  -0.73224  -0.72629
 Alpha  occ. eigenvalues --   -0.72430  -0.71608  -0.71516  -0.70986  -0.70026
 Alpha  occ. eigenvalues --   -0.69369  -0.69031  -0.68401  -0.67956  -0.67628
 Alpha  occ. eigenvalues --   -0.66650  -0.66109  -0.65615  -0.65141  -0.64710
 Alpha  occ. eigenvalues --   -0.64003  -0.62900  -0.62625  -0.61973  -0.61326
 Alpha  occ. eigenvalues --   -0.60362  -0.59954  -0.59840  -0.59425  -0.59134
 Alpha  occ. eigenvalues --   -0.58632  -0.58118  -0.57569  -0.56237  -0.54985
 Alpha  occ. eigenvalues --   -0.54186  -0.53479  -0.53010  -0.52393  -0.52193
 Alpha  occ. eigenvalues --   -0.51754  -0.51182  -0.51063  -0.50683  -0.49628
 Alpha  occ. eigenvalues --   -0.49360  -0.49112  -0.48913  -0.48448  -0.46645
 Alpha  occ. eigenvalues --   -0.46537  -0.46025  -0.45435  -0.44981  -0.44754
 Alpha  occ. eigenvalues --   -0.44246  -0.43846  -0.43650  -0.43350  -0.42678
 Alpha  occ. eigenvalues --   -0.42349  -0.42224  -0.41932  -0.41194  -0.41129
 Alpha  occ. eigenvalues --   -0.40978  -0.40649  -0.40490  -0.40357  -0.40119
 Alpha  occ. eigenvalues --   -0.40009  -0.39759  -0.39690  -0.39287  -0.39214
 Alpha  occ. eigenvalues --   -0.38865  -0.38728  -0.38427  -0.38361  -0.38201
 Alpha  occ. eigenvalues --   -0.38086  -0.37993  -0.37663  -0.37573  -0.37455
 Alpha  occ. eigenvalues --   -0.37014  -0.36854  -0.36792  -0.36491  -0.36473
 Alpha  occ. eigenvalues --   -0.36307  -0.36066  -0.35936  -0.35805  -0.35612
 Alpha  occ. eigenvalues --   -0.35499  -0.35285  -0.35152  -0.35015  -0.34849
 Alpha  occ. eigenvalues --   -0.34775  -0.34612  -0.34460  -0.34262  -0.33987
 Alpha  occ. eigenvalues --   -0.33825  -0.33657  -0.33627  -0.33537  -0.33080
 Alpha  occ. eigenvalues --   -0.32946  -0.32644  -0.32351  -0.32327  -0.32064
 Alpha  occ. eigenvalues --   -0.32003  -0.31933  -0.31749  -0.31533  -0.31463
 Alpha  occ. eigenvalues --   -0.31290  -0.31149  -0.31019  -0.30767  -0.30662
 Alpha  occ. eigenvalues --   -0.30496  -0.30384  -0.30272  -0.30226  -0.29854
 Alpha  occ. eigenvalues --   -0.29807  -0.29655  -0.29406  -0.29370  -0.29294
 Alpha  occ. eigenvalues --   -0.28592  -0.28524  -0.28372  -0.28183  -0.27775
 Alpha  occ. eigenvalues --   -0.27192  -0.27160  -0.26974  -0.26698  -0.26274
 Alpha  occ. eigenvalues --   -0.26055  -0.25881  -0.25776  -0.25532  -0.25335
 Alpha  occ. eigenvalues --   -0.25248  -0.24944  -0.24684  -0.24125  -0.23981
 Alpha  occ. eigenvalues --   -0.23345  -0.23194  -0.22091  -0.21419  -0.20674
 Alpha  occ. eigenvalues --   -0.20217  -0.19765  -0.18576  -0.18302  -0.17997
 Alpha  occ. eigenvalues --   -0.16334
 Alpha virt. eigenvalues --   -0.12051  -0.07437  -0.06205  -0.05138  -0.04706
 Alpha virt. eigenvalues --   -0.03179  -0.02622  -0.01900  -0.01049  -0.00156
 Alpha virt. eigenvalues --    0.00846   0.01713   0.01966   0.02727   0.02945

 Mulliken charges:
               1
     1  Mg   0.695057
     2  C    0.065737
     3  C   -0.090081
     4  C   -0.055645
     5  C   -0.057780
     6  N   -0.155143
     7  C   -0.142328
     8  C    0.038216
     9  C    0.067415
    10  C    0.008322
    11  C    0.111217
    12  C    0.110610
    13  C    0.137063
    14  C    0.084378
    15  O   -0.205681
    16  O   -0.299599
    17  N   -0.309794
    18  C    0.130747
    19  C   -0.122530
    20  C    0.004480
    21  C    0.184541
    22  C    0.166161
    23  C   -0.065583
    24  O   -0.150713
    25  C    0.141362
    26  N   -0.273993
    27  C   -0.022377
    28  C    0.035452
    29  C    0.022248
    30  C    0.019345
    31  C    0.118707
    32  C    0.101535
    33  C    0.081439
    34  N   -0.231234
    35  C    0.102221
    36  C   -0.164203
    37  C    0.099025
    38  C    0.085966
    39  C    0.157085
    40  C   -0.072256
    41  O   -0.154094
    42  C    0.083148
    43  C    0.104974
    44  O   -0.139705
    45  O   -0.323399
    46  C    0.211763
    47  C    0.330748
    48  C   -0.052301
    49  C   -0.169006
    50  C    0.117156
    51  C    0.094420
    52  C    0.082976
    53  C    0.151636
    54  C   -0.090001
    55  C    0.081788
    56  C    0.097884
    57  C    0.076083
    58  C    0.136283
    59  C   -0.044386
    60  C    0.086236
    61  C    0.143199
    62  C   -0.003141
    63  C    0.120693
    64  C   -0.059526
    65  C    0.080771
    66  C    0.120890
    67  H   -0.060473
    68  H   -0.073583
    69  H   -0.064172
    70  H   -0.038510
    71  H   -0.036096
    72  H   -0.014542
    73  H   -0.023504
    74  H   -0.013049
    75  H   -0.001996
    76  H   -0.023309
    77  H    0.006266
    78  H    0.024003
    79  H    0.003262
    80  H   -0.014258
    81  H    0.003034
    82  H    0.008212
    83  H    0.020232
    84  H   -0.025092
    85  H   -0.014552
    86  H   -0.014611
    87  H   -0.002492
    88  H   -0.005977
    89  H   -0.006087
    90  H   -0.021664
    91  H   -0.021656
    92  H   -0.022215
    93  H    0.001059
    94  H   -0.007837
    95  H    0.015040
    96  H   -0.030177
    97  H    0.008978
    98  H    0.004295
    99  H    0.009920
   100  H    0.033390
   101  H    0.018773
   102  H   -0.013526
   103  H    0.004706
   104  H   -0.048439
   105  H   -0.017354
   106  H    0.001890
   107  H   -0.006138
   108  H   -0.016875
   109  H   -0.035962
   110  H   -0.027806
   111  H   -0.014153
   112  H   -0.024103
   113  H   -0.045300
   114  H   -0.036980
   115  H   -0.011516
   116  H   -0.026053
   117  H   -0.014052
   118  H   -0.054140
   119  H   -0.046779
   120  H   -0.035334
   121  H   -0.030950
   122  H   -0.042297
   123  H   -0.039964
   124  H   -0.038931
   125  H   -0.032408
   126  H   -0.028528
   127  H   -0.029166
   128  H   -0.026359
   129  H   -0.041714
   130  H   -0.020359
   131  H   -0.027349
   132  H   -0.045448
   133  H   -0.034689
   134  H   -0.033682
   135  H   -0.018621
   136  H   -0.007887
   137  H   -0.030440
   138  H   -0.030345
   139  H   -0.012200
   140  H   -0.015837
 Sum of Mulliken charges =  -0.00000

 Dipole moment (field-independent basis, Debye):
    X=              1.2579    Y=              6.6421    Z=             -0.2109  Tot=              6.7634
 Quadrupole moment (field-independent basis, Debye-Ang):
   XX=           -382.5738   YY=           -439.5560   ZZ=           -389.5501
   XY=             52.0106   XZ=            -20.5730   YZ=             32.9646

 Normal termination of Gaussian 16 at Sat Apr 30 22:17:15 2022.
