 Gaussian 16, Revision A.03,
 Gaussian 16:  ES64L-G16RevA.03 25-Dec-2016

 -----------------------------------
 #p cam-b3lyp/Def2SVP td=(nstates=5)
 -----------------------------------

 ------------------------------------------------------
 step_901_chromophore_2 TDDFT with cam-b3lyp functional
 ------------------------------------------------------
 Symbolic Z-matrix:
 Charge =  0 Multiplicity = 1

                         Standard orientation:
 ---------------------------------------------------------------------
 Center     Atomic      Atomic             Coordinates (Angstroms)
 Number     Number       Type             X           Y           Z
 ---------------------------------------------------------------------
      1         12           0        4.514063    1.130119   -0.725048
      2          6           0        4.904592   -2.381489   -0.330035
      3          6           0        2.006386    0.347368   -3.075469
      4          6           0        3.339251    4.199400   -0.421953
      5          6           0        6.520957    1.484185    2.159675
      6          7           0        3.475832   -0.774930   -1.450054
      7          6           0        3.942389   -1.987851   -1.255871
      8          6           0        3.155741   -2.990938   -2.123675
      9          6           0        2.612167   -2.088718   -3.202169
     10          6           0        2.621809   -0.765373   -2.535528
     11          6           0        3.372232   -2.070324   -4.551223
     12          6           0        2.070475   -3.743466   -1.395150
     13          6           0        1.469165   -3.040580   -0.172316
     14          6           0        0.179961   -3.612532    0.408297
     15          8           0       -0.151691   -4.800596    0.374163
     16          8           0       -0.626711   -2.704813    1.147847
     17          7           0        3.013166    2.149106   -1.699041
     18          6           0        2.166689    1.694442   -2.680644
     19          6           0        1.524569    2.822674   -3.290451
     20          6           0        1.900365    3.970503   -2.526474
     21          6           0        2.838369    3.493374   -1.492164
     22          6           0        0.528725    2.663562   -4.406479
     23          6           0        1.447534    5.425897   -2.793785
     24          8           0        0.644853    5.700733   -3.660755
     25          6           0        1.810746    6.526191   -1.944250
     26          7           0        4.804433    2.556282    0.783921
     27          6           0        4.229217    3.814341    0.658686
     28          6           0        4.807366    4.900572    1.654570
     29          6           0        5.963398    4.056750    2.290152
     30          6           0        5.755567    2.589682    1.831105
     31          6           0        5.265400    6.203116    0.954118
     32          6           0        6.069059    4.310198    3.804245
     33          6           0        7.422525    4.673041    4.312587
     34          7           0        5.574054   -0.206487    0.661328
     35          6           0        6.380387    0.130801    1.755482
     36          6           0        6.829305   -1.129556    2.327633
     37          6           0        6.319342   -2.111608    1.443942
     38          6           0        5.532997   -1.533139    0.506789
     39          6           0        7.859787   -1.320608    3.482201
     40          6           0        6.346566   -3.528675    1.202300
     41          8           0        6.860727   -4.453693    1.860847
     42          6           0        5.356848   -3.759489    0.068375
     43          6           0        5.932273   -4.570478   -1.053560
     44          8           0        5.714571   -5.720726   -1.361467
     45          8           0        6.789947   -3.668484   -1.725438
     46          6           0        7.193030   -4.168624   -3.079451
     47          6           0       -1.796701   -3.283070    1.799892
     48          6           0       -2.737263   -2.147314    2.200882
     49          6           0       -3.445403   -2.030485    3.332027
     50          6           0       -3.524402   -3.143614    4.433090
     51          6           0       -4.298361   -0.768117    3.670449
     52          6           0       -5.859601   -0.681913    3.276462
     53          6           0       -6.197833    0.715291    2.734696
     54          6           0       -6.429661    0.779000    1.217937
     55          6           0       -5.529211    1.844502    0.516960
     56          6           0       -7.895451    0.896767    0.739885
     57          6           0       -8.536397   -0.392715    0.212810
     58          6           0       -8.834781   -0.536921   -1.265992
     59          6           0      -10.265600   -0.958646   -1.572277
     60          6           0      -10.401072   -1.461574   -2.979106
     61          6           0      -11.332263    0.131303   -1.291932
     62          6           0      -12.216053   -0.318388   -0.134035
     63          6           0      -13.194154    0.845490    0.455743
     64          6           0      -14.629024    0.449892    0.682078
     65          6           0      -15.183664   -0.149239   -0.613375
     66          6           0      -15.616198    1.522800    1.190843
     67          1           0        1.331471    0.168419   -3.916002
     68          1           0        2.980986    5.213975   -0.235148
     69          1           0        7.198883    1.666841    2.995944
     70          1           0        3.765762   -3.795677   -2.533458
     71          1           0        1.577951   -2.231819   -3.515910
     72          1           0        2.946170   -2.733864   -5.303544
     73          1           0        4.395171   -2.446589   -4.573723
     74          1           0        3.459138   -1.105788   -5.050879
     75          1           0        2.528763   -4.710741   -1.186049
     76          1           0        1.222460   -3.953036   -2.047366
     77          1           0        1.180805   -2.027375   -0.453630
     78          1           0        2.129634   -3.063901    0.694184
     79          1           0       -0.471840    2.385477   -4.074505
     80          1           0        0.850914    1.859257   -5.067899
     81          1           0        0.357713    3.561507   -5.000527
     82          1           0        2.833385    6.890204   -1.846689
     83          1           0        1.308771    6.295976   -1.003604
     84          1           0        1.374704    7.473880   -2.262051
     85          1           0        4.060029    5.103649    2.422214
     86          1           0        6.876922    4.237095    1.722207
     87          1           0        4.447844    6.901466    0.776011
     88          1           0        5.691395    5.952371   -0.017851
     89          1           0        6.011340    6.774506    1.506390
     90          1           0        5.794928    3.378934    4.299790
     91          1           0        5.313538    5.025233    4.128519
     92          1           0        7.130711    5.406803    5.064040
     93          1           0        8.118109    5.077433    3.577025
     94          1           0        7.882988    3.910896    4.940888
     95          1           0        7.425145   -1.719367    4.399177
     96          1           0        8.366993   -0.383304    3.711930
     97          1           0        8.714807   -1.908060    3.147508
     98          1           0        4.656165   -4.420559    0.577027
     99          1           0        7.405812   -3.260969   -3.644228
    100          1           0        6.391651   -4.793900   -3.472686
    101          1           0        8.158001   -4.668104   -2.990884
    102          1           0       -1.472485   -3.854207    2.669849
    103          1           0       -2.290182   -4.049158    1.203689
    104          1           0       -2.875185   -1.260834    1.580612
    105          1           0       -2.885222   -3.998087    4.211927
    106          1           0       -4.526180   -3.519969    4.639882
    107          1           0       -3.181772   -2.660728    5.347919
    108          1           0       -3.708651    0.069834    3.300232
    109          1           0       -4.278692   -0.703092    4.758894
    110          1           0       -6.370477   -0.895115    4.215293
    111          1           0       -6.162567   -1.390430    2.504917
    112          1           0       -5.483490    1.475342    3.050663
    113          1           0       -7.197901    0.862126    3.142293
    114          1           0       -6.075020   -0.150714    0.772199
    115          1           0       -5.386744    2.733695    1.131260
    116          1           0       -5.949879    2.178984   -0.431234
    117          1           0       -4.582938    1.390827    0.222992
    118          1           0       -7.934603    1.683141   -0.013937
    119          1           0       -8.509056    1.397607    1.489816
    120          1           0       -9.457707   -0.474580    0.790037
    121          1           0       -7.858707   -1.204423    0.479215
    122          1           0       -8.166763   -1.303497   -1.658630
    123          1           0       -8.588243    0.450574   -1.656654
    124          1           0      -10.404204   -1.923349   -1.085122
    125          1           0      -11.408478   -1.504361   -3.393064
    126          1           0      -10.080015   -2.497484   -3.086461
    127          1           0       -9.883922   -0.869590   -3.733434
    128          1           0      -11.920673    0.436518   -2.157985
    129          1           0      -10.808067    1.027207   -0.958403
    130          1           0      -11.645876   -0.779570    0.671754
    131          1           0      -12.815005   -1.100603   -0.599974
    132          1           0      -13.127952    1.615502   -0.312466
    133          1           0      -12.702823    1.267910    1.331816
    134          1           0      -14.593344   -0.382028    1.385190
    135          1           0      -15.592571   -1.131103   -0.370924
    136          1           0      -14.459147   -0.159860   -1.427526
    137          1           0      -16.041952    0.346308   -1.065899
    138          1           0      -15.132368    2.467342    1.441071
    139          1           0      -16.097054    1.162378    2.101002
    140          1           0      -16.368603    1.843834    0.469629
 ---------------------------------------------------------------------

 SCF Done:  E(RCAM-B3LYP) =  -3007.15802477     A.U. after   17 cycles

 Excitation energies and oscillator strengths:

 Excited State   1:      Singlet-A      1.7174 eV  721.93 nm  f=0.3823  <S**2>=0.000
     245 -> 248       -0.17432
     246 -> 247        0.68687
     245 <- 248       -0.10678
 This state for optimization and/or second-order correction.
 Total Energy, E(TD-HF/TD-DFT) =  -3007.09491136
 Copying the excited state density for this state as the 1-particle RhoCI density.

 Excited State   2:      Singlet-A      2.2659 eV  547.18 nm  f=0.0858  <S**2>=0.000
     245 -> 247        0.62823
     246 -> 248        0.30511

 Excited State   3:      Singlet-A      3.1991 eV  387.56 nm  f=0.0025  <S**2>=0.000
     241 -> 247        0.10447
     244 -> 247        0.66683

 Excited State   4:      Singlet-A      3.3171 eV  373.78 nm  f=0.0051  <S**2>=0.000
     241 -> 250       -0.14420
     241 -> 251       -0.11156
     242 -> 247        0.64627
     246 -> 248        0.10139

 Excited State   5:      Singlet-A      3.4003 eV  364.63 nm  f=0.0296  <S**2>=0.000
     241 -> 247        0.57607
     241 -> 250        0.11701
     241 -> 251        0.13478
     242 -> 250       -0.12366
     244 -> 247       -0.11320
     246 -> 248        0.22792

 The electronic state is 1-A.
 Alpha  occ. eigenvalues --  -46.89941 -19.24637 -19.23780 -19.21191 -19.19323
 Alpha  occ. eigenvalues --  -19.18766 -19.18136 -14.42873 -14.42448 -14.40056
 Alpha  occ. eigenvalues --  -14.38668 -10.39844 -10.39173 -10.35129 -10.34213
 Alpha  occ. eigenvalues --  -10.32717 -10.32004 -10.31517 -10.31325 -10.31192
 Alpha  occ. eigenvalues --  -10.31003 -10.30854 -10.30478 -10.29991 -10.29478
 Alpha  occ. eigenvalues --  -10.28737 -10.28543 -10.28187 -10.28108 -10.27908
 Alpha  occ. eigenvalues --  -10.27864 -10.27767 -10.27658 -10.27558 -10.27550
 Alpha  occ. eigenvalues --  -10.27542 -10.27419 -10.27318 -10.27271 -10.26807
 Alpha  occ. eigenvalues --  -10.26776 -10.26703 -10.26587 -10.26130 -10.26027
 Alpha  occ. eigenvalues --  -10.25995 -10.25772 -10.25733 -10.25648 -10.25436
 Alpha  occ. eigenvalues --  -10.25394 -10.25202 -10.25172 -10.25019 -10.24822
 Alpha  occ. eigenvalues --  -10.24733 -10.24712 -10.24612 -10.24293 -10.24292
 Alpha  occ. eigenvalues --  -10.24167 -10.24162 -10.24143 -10.24139 -10.23738
 Alpha  occ. eigenvalues --  -10.23660  -3.18380  -1.93225  -1.92874  -1.92650
 Alpha  occ. eigenvalues --   -1.15577  -1.14324  -1.10963  -1.08143  -1.07925
 Alpha  occ. eigenvalues --   -1.06032  -1.05713  -1.03585  -1.03478  -1.02055
 Alpha  occ. eigenvalues --   -0.94001  -0.90546  -0.90376  -0.89964  -0.89451
 Alpha  occ. eigenvalues --   -0.89191  -0.88276  -0.88164  -0.87598  -0.86642
 Alpha  occ. eigenvalues --   -0.86045  -0.85287  -0.84608  -0.84199  -0.83890
 Alpha  occ. eigenvalues --   -0.82912  -0.82135  -0.81577  -0.80962  -0.80565
 Alpha  occ. eigenvalues --   -0.79738  -0.78456  -0.78179  -0.77736  -0.76712
 Alpha  occ. eigenvalues --   -0.75718  -0.75276  -0.75168  -0.74729  -0.74403
 Alpha  occ. eigenvalues --   -0.73686  -0.73113  -0.72526  -0.71067  -0.69578
 Alpha  occ. eigenvalues --   -0.68779  -0.68027  -0.67566  -0.66759  -0.66356
 Alpha  occ. eigenvalues --   -0.65948  -0.65338  -0.65277  -0.64601  -0.63656
 Alpha  occ. eigenvalues --   -0.63329  -0.62826  -0.62564  -0.62298  -0.60394
 Alpha  occ. eigenvalues --   -0.60069  -0.59471  -0.58984  -0.58470  -0.58121
 Alpha  occ. eigenvalues --   -0.57524  -0.57213  -0.56989  -0.56479  -0.55749
 Alpha  occ. eigenvalues --   -0.55345  -0.55080  -0.54915  -0.54547  -0.54052
 Alpha  occ. eigenvalues --   -0.53674  -0.53496  -0.53296  -0.53138  -0.52948
 Alpha  occ. eigenvalues --   -0.52561  -0.52519  -0.52263  -0.51998  -0.51791
 Alpha  occ. eigenvalues --   -0.51422  -0.51319  -0.51002  -0.50755  -0.50631
 Alpha  occ. eigenvalues --   -0.50512  -0.50290  -0.50174  -0.49786  -0.49750
 Alpha  occ. eigenvalues --   -0.49620  -0.49285  -0.49095  -0.48894  -0.48668
 Alpha  occ. eigenvalues --   -0.48526  -0.48279  -0.48070  -0.47851  -0.47714
 Alpha  occ. eigenvalues --   -0.47582  -0.47464  -0.47341  -0.47052  -0.46898
 Alpha  occ. eigenvalues --   -0.46619  -0.46542  -0.46336  -0.46205  -0.45878
 Alpha  occ. eigenvalues --   -0.45517  -0.45437  -0.45310  -0.45288  -0.44987
 Alpha  occ. eigenvalues --   -0.44679  -0.44192  -0.43893  -0.43860  -0.43691
 Alpha  occ. eigenvalues --   -0.43486  -0.43386  -0.43339  -0.43223  -0.43066
 Alpha  occ. eigenvalues --   -0.42823  -0.42660  -0.42514  -0.42346  -0.42203
 Alpha  occ. eigenvalues --   -0.41848  -0.41758  -0.41743  -0.41544  -0.41407
 Alpha  occ. eigenvalues --   -0.41297  -0.40871  -0.40766  -0.40572  -0.40420
 Alpha  occ. eigenvalues --   -0.39738  -0.39642  -0.39457  -0.39122  -0.38718
 Alpha  occ. eigenvalues --   -0.38075  -0.37912  -0.37792  -0.37453  -0.37302
 Alpha  occ. eigenvalues --   -0.36981  -0.36853  -0.36772  -0.36548  -0.36247
 Alpha  occ. eigenvalues --   -0.36027  -0.35613  -0.35447  -0.35268  -0.34354
 Alpha  occ. eigenvalues --   -0.34141  -0.33925  -0.33426  -0.31577  -0.31184
 Alpha  occ. eigenvalues --   -0.30444  -0.30181  -0.29512  -0.29200  -0.24858
 Alpha  occ. eigenvalues --   -0.21661
 Alpha virt. eigenvalues --   -0.09167  -0.02351  -0.00224   0.00570   0.02099
 Alpha virt. eigenvalues --    0.04655   0.05292   0.05546   0.06536   0.06894
 Alpha virt. eigenvalues --    0.07621   0.08011   0.08577   0.08809   0.09123

 Mulliken charges:
               1
     1  Mg   0.822850
     2  C    0.029330
     3  C   -0.101261
     4  C   -0.090143
     5  C   -0.065961
     6  N   -0.219948
     7  C   -0.091232
     8  C   -0.016353
     9  C   -0.000055
    10  C    0.026495
    11  C    0.056855
    12  C    0.065451
    13  C    0.061591
    14  C    0.172687
    15  O   -0.246228
    16  O   -0.364412
    17  N   -0.399748
    18  C    0.141158
    19  C   -0.126834
    20  C   -0.062434
    21  C    0.215293
    22  C    0.109803
    23  C    0.017520
    24  O   -0.190289
    25  C    0.046619
    26  N   -0.344801
    27  C    0.015592
    28  C   -0.020721
    29  C   -0.038198
    30  C    0.045718
    31  C    0.060910
    32  C    0.041675
    33  C    0.016249
    34  N   -0.318655
    35  C    0.103471
    36  C   -0.159144
    37  C    0.015220
    38  C    0.124888
    39  C    0.109957
    40  C    0.033212
    41  O   -0.194031
    42  C    0.004020
    43  C    0.193340
    44  O   -0.178760
    45  O   -0.384915
    46  C    0.174272
    47  C    0.297499
    48  C   -0.075387
    49  C   -0.191256
    50  C    0.059520
    51  C    0.041182
    52  C    0.032900
    53  C    0.089324
    54  C   -0.147141
    55  C    0.030175
    56  C    0.045804
    57  C    0.021201
    58  C    0.082827
    59  C   -0.106492
    60  C    0.030263
    61  C    0.086751
    62  C   -0.054864
    63  C    0.068559
    64  C   -0.119403
    65  C    0.018563
    66  C    0.059220
    67  H   -0.022810
    68  H   -0.036429
    69  H   -0.031875
    70  H   -0.002531
    71  H    0.000831
    72  H    0.011761
    73  H    0.000273
    74  H    0.013178
    75  H    0.027818
    76  H    0.008650
    77  H    0.038046
    78  H    0.053096
    79  H    0.032169
    80  H    0.010115
    81  H    0.035679
    82  H    0.037388
    83  H    0.046519
    84  H    0.014009
    85  H    0.020320
    86  H    0.019550
    87  H    0.019861
    88  H    0.019414
    89  H    0.020080
    90  H    0.010136
    91  H    0.007022
    92  H    0.002954
    93  H    0.023652
    94  H    0.016524
    95  H    0.039595
    96  H   -0.006361
    97  H    0.033865
    98  H    0.044429
    99  H    0.032603
   100  H    0.053990
   101  H    0.041866
   102  H    0.013763
   103  H    0.034859
   104  H   -0.014450
   105  H    0.006353
   106  H    0.024948
   107  H    0.017122
   108  H    0.010704
   109  H   -0.007033
   110  H    0.001554
   111  H    0.010965
   112  H    0.004385
   113  H   -0.013955
   114  H   -0.006121
   115  H    0.010957
   116  H   -0.001691
   117  H    0.008706
   118  H   -0.024452
   119  H   -0.016548
   120  H   -0.007932
   121  H   -0.003631
   122  H   -0.011194
   123  H   -0.012097
   124  H   -0.005947
   125  H   -0.006505
   126  H   -0.003212
   127  H   -0.004462
   128  H    0.001918
   129  H   -0.014224
   130  H    0.006786
   131  H   -0.000161
   132  H   -0.016823
   133  H   -0.005997
   134  H   -0.001805
   135  H    0.006605
   136  H    0.012645
   137  H   -0.004298
   138  H   -0.004759
   139  H    0.012088
   140  H    0.008259
 Sum of Mulliken charges =  -0.00000

 Dipole moment (field-independent basis, Debye):
    X=              1.0466    Y=              7.4439    Z=             -0.7586  Tot=              7.5553
 Quadrupole moment (field-independent basis, Debye-Ang):
   XX=           -384.8971   YY=           -436.4824   ZZ=           -386.8077
   XY=             54.7789   XZ=            -21.6491   YZ=             33.9893

 Normal termination of Gaussian 16 at Sat Apr 30 20:59:55 2022.
