 Gaussian 16, Revision A.03,
 Gaussian 16:  ES64L-G16RevA.03 25-Dec-2016

 ---------------------------------
 #p PBE1PBE/Def2SVP td=(nstates=5)
 ---------------------------------

 ----------------------------------------------------
 step_901_chromophore_2 TDDFT with PBE1PBE functional
 ----------------------------------------------------
 Symbolic Z-matrix:
 Charge =  0 Multiplicity = 1

                         Standard orientation:
 ---------------------------------------------------------------------
 Center     Atomic      Atomic             Coordinates (Angstroms)
 Number     Number       Type             X           Y           Z
 ---------------------------------------------------------------------
      1         12           0        4.514063    1.130119   -0.725048
      2          6           0        4.904592   -2.381489   -0.330035
      3          6           0        2.006386    0.347368   -3.075469
      4          6           0        3.339251    4.199400   -0.421953
      5          6           0        6.520957    1.484185    2.159675
      6          7           0        3.475832   -0.774930   -1.450054
      7          6           0        3.942389   -1.987851   -1.255871
      8          6           0        3.155741   -2.990938   -2.123675
      9          6           0        2.612167   -2.088718   -3.202169
     10          6           0        2.621809   -0.765373   -2.535528
     11          6           0        3.372232   -2.070324   -4.551223
     12          6           0        2.070475   -3.743466   -1.395150
     13          6           0        1.469165   -3.040580   -0.172316
     14          6           0        0.179961   -3.612532    0.408297
     15          8           0       -0.151691   -4.800596    0.374163
     16          8           0       -0.626711   -2.704813    1.147847
     17          7           0        3.013166    2.149106   -1.699041
     18          6           0        2.166689    1.694442   -2.680644
     19          6           0        1.524569    2.822674   -3.290451
     20          6           0        1.900365    3.970503   -2.526474
     21          6           0        2.838369    3.493374   -1.492164
     22          6           0        0.528725    2.663562   -4.406479
     23          6           0        1.447534    5.425897   -2.793785
     24          8           0        0.644853    5.700733   -3.660755
     25          6           0        1.810746    6.526191   -1.944250
     26          7           0        4.804433    2.556282    0.783921
     27          6           0        4.229217    3.814341    0.658686
     28          6           0        4.807366    4.900572    1.654570
     29          6           0        5.963398    4.056750    2.290152
     30          6           0        5.755567    2.589682    1.831105
     31          6           0        5.265400    6.203116    0.954118
     32          6           0        6.069059    4.310198    3.804245
     33          6           0        7.422525    4.673041    4.312587
     34          7           0        5.574054   -0.206487    0.661328
     35          6           0        6.380387    0.130801    1.755482
     36          6           0        6.829305   -1.129556    2.327633
     37          6           0        6.319342   -2.111608    1.443942
     38          6           0        5.532997   -1.533139    0.506789
     39          6           0        7.859787   -1.320608    3.482201
     40          6           0        6.346566   -3.528675    1.202300
     41          8           0        6.860727   -4.453693    1.860847
     42          6           0        5.356848   -3.759489    0.068375
     43          6           0        5.932273   -4.570478   -1.053560
     44          8           0        5.714571   -5.720726   -1.361467
     45          8           0        6.789947   -3.668484   -1.725438
     46          6           0        7.193030   -4.168624   -3.079451
     47          6           0       -1.796701   -3.283070    1.799892
     48          6           0       -2.737263   -2.147314    2.200882
     49          6           0       -3.445403   -2.030485    3.332027
     50          6           0       -3.524402   -3.143614    4.433090
     51          6           0       -4.298361   -0.768117    3.670449
     52          6           0       -5.859601   -0.681913    3.276462
     53          6           0       -6.197833    0.715291    2.734696
     54          6           0       -6.429661    0.779000    1.217937
     55          6           0       -5.529211    1.844502    0.516960
     56          6           0       -7.895451    0.896767    0.739885
     57          6           0       -8.536397   -0.392715    0.212810
     58          6           0       -8.834781   -0.536921   -1.265992
     59          6           0      -10.265600   -0.958646   -1.572277
     60          6           0      -10.401072   -1.461574   -2.979106
     61          6           0      -11.332263    0.131303   -1.291932
     62          6           0      -12.216053   -0.318388   -0.134035
     63          6           0      -13.194154    0.845490    0.455743
     64          6           0      -14.629024    0.449892    0.682078
     65          6           0      -15.183664   -0.149239   -0.613375
     66          6           0      -15.616198    1.522800    1.190843
     67          1           0        1.331471    0.168419   -3.916002
     68          1           0        2.980986    5.213975   -0.235148
     69          1           0        7.198883    1.666841    2.995944
     70          1           0        3.765762   -3.795677   -2.533458
     71          1           0        1.577951   -2.231819   -3.515910
     72          1           0        2.946170   -2.733864   -5.303544
     73          1           0        4.395171   -2.446589   -4.573723
     74          1           0        3.459138   -1.105788   -5.050879
     75          1           0        2.528763   -4.710741   -1.186049
     76          1           0        1.222460   -3.953036   -2.047366
     77          1           0        1.180805   -2.027375   -0.453630
     78          1           0        2.129634   -3.063901    0.694184
     79          1           0       -0.471840    2.385477   -4.074505
     80          1           0        0.850914    1.859257   -5.067899
     81          1           0        0.357713    3.561507   -5.000527
     82          1           0        2.833385    6.890204   -1.846689
     83          1           0        1.308771    6.295976   -1.003604
     84          1           0        1.374704    7.473880   -2.262051
     85          1           0        4.060029    5.103649    2.422214
     86          1           0        6.876922    4.237095    1.722207
     87          1           0        4.447844    6.901466    0.776011
     88          1           0        5.691395    5.952371   -0.017851
     89          1           0        6.011340    6.774506    1.506390
     90          1           0        5.794928    3.378934    4.299790
     91          1           0        5.313538    5.025233    4.128519
     92          1           0        7.130711    5.406803    5.064040
     93          1           0        8.118109    5.077433    3.577025
     94          1           0        7.882988    3.910896    4.940888
     95          1           0        7.425145   -1.719367    4.399177
     96          1           0        8.366993   -0.383304    3.711930
     97          1           0        8.714807   -1.908060    3.147508
     98          1           0        4.656165   -4.420559    0.577027
     99          1           0        7.405812   -3.260969   -3.644228
    100          1           0        6.391651   -4.793900   -3.472686
    101          1           0        8.158001   -4.668104   -2.990884
    102          1           0       -1.472485   -3.854207    2.669849
    103          1           0       -2.290182   -4.049158    1.203689
    104          1           0       -2.875185   -1.260834    1.580612
    105          1           0       -2.885222   -3.998087    4.211927
    106          1           0       -4.526180   -3.519969    4.639882
    107          1           0       -3.181772   -2.660728    5.347919
    108          1           0       -3.708651    0.069834    3.300232
    109          1           0       -4.278692   -0.703092    4.758894
    110          1           0       -6.370477   -0.895115    4.215293
    111          1           0       -6.162567   -1.390430    2.504917
    112          1           0       -5.483490    1.475342    3.050663
    113          1           0       -7.197901    0.862126    3.142293
    114          1           0       -6.075020   -0.150714    0.772199
    115          1           0       -5.386744    2.733695    1.131260
    116          1           0       -5.949879    2.178984   -0.431234
    117          1           0       -4.582938    1.390827    0.222992
    118          1           0       -7.934603    1.683141   -0.013937
    119          1           0       -8.509056    1.397607    1.489816
    120          1           0       -9.457707   -0.474580    0.790037
    121          1           0       -7.858707   -1.204423    0.479215
    122          1           0       -8.166763   -1.303497   -1.658630
    123          1           0       -8.588243    0.450574   -1.656654
    124          1           0      -10.404204   -1.923349   -1.085122
    125          1           0      -11.408478   -1.504361   -3.393064
    126          1           0      -10.080015   -2.497484   -3.086461
    127          1           0       -9.883922   -0.869590   -3.733434
    128          1           0      -11.920673    0.436518   -2.157985
    129          1           0      -10.808067    1.027207   -0.958403
    130          1           0      -11.645876   -0.779570    0.671754
    131          1           0      -12.815005   -1.100603   -0.599974
    132          1           0      -13.127952    1.615502   -0.312466
    133          1           0      -12.702823    1.267910    1.331816
    134          1           0      -14.593344   -0.382028    1.385190
    135          1           0      -15.592571   -1.131103   -0.370924
    136          1           0      -14.459147   -0.159860   -1.427526
    137          1           0      -16.041952    0.346308   -1.065899
    138          1           0      -15.132368    2.467342    1.441071
    139          1           0      -16.097054    1.162378    2.101002
    140          1           0      -16.368603    1.843834    0.469629
 ---------------------------------------------------------------------

 SCF Done:  E(RPBE1PBE) =  -3005.34723952     A.U. after   16 cycles

 Excitation energies and oscillator strengths:

 Excited State   1:      Singlet-A      1.8667 eV  664.19 nm  f=0.3710  <S**2>=0.000
     245 -> 248       -0.16948
     246 -> 247        0.69398
     246 <- 247       -0.10934
 This state for optimization and/or second-order correction.
 Total Energy, E(TD-HF/TD-DFT) =  -3005.27863952
 Copying the excited state density for this state as the 1-particle RhoCI density.

 Excited State   2:      Singlet-A      2.2708 eV  545.99 nm  f=0.0832  <S**2>=0.000
     245 -> 247        0.63979
     246 -> 248        0.27692

 Excited State   3:      Singlet-A      2.7651 eV  448.39 nm  f=0.0025  <S**2>=0.000
     241 -> 247        0.12981
     242 -> 247        0.30334
     243 -> 247        0.59781

 Excited State   4:      Singlet-A      2.8965 eV  428.06 nm  f=0.0005  <S**2>=0.000
     242 -> 247        0.61807
     243 -> 247       -0.30653

 Excited State   5:      Singlet-A      2.9657 eV  418.07 nm  f=0.0039  <S**2>=0.000
     240 -> 247        0.12353
     241 -> 247        0.65275
     243 -> 247       -0.14177

 The electronic state is 1-A.
 Alpha  occ. eigenvalues --  -46.93319 -19.25357 -19.24481 -19.21446 -19.19601
 Alpha  occ. eigenvalues --  -19.18854 -19.18504 -14.42408 -14.41905 -14.39619
 Alpha  occ. eigenvalues --  -14.38438 -10.36903 -10.36234 -10.32133 -10.31461
 Alpha  occ. eigenvalues --  -10.30318 -10.29398 -10.29243 -10.28728 -10.28681
 Alpha  occ. eigenvalues --  -10.28634 -10.28606 -10.27962 -10.27937 -10.27248
 Alpha  occ. eigenvalues --  -10.26407 -10.26192 -10.26124 -10.25774 -10.25613
 Alpha  occ. eigenvalues --  -10.25455 -10.25390 -10.25349 -10.25328 -10.25165
 Alpha  occ. eigenvalues --  -10.25082 -10.25038 -10.25012 -10.24847 -10.24477
 Alpha  occ. eigenvalues --  -10.24392 -10.24323 -10.24043 -10.23682 -10.23345
 Alpha  occ. eigenvalues --  -10.23313 -10.23260 -10.23200 -10.23169 -10.23016
 Alpha  occ. eigenvalues --  -10.22867 -10.22821 -10.22736 -10.22697 -10.22377
 Alpha  occ. eigenvalues --  -10.22267 -10.22241 -10.22166 -10.22004 -10.21810
 Alpha  occ. eigenvalues --  -10.21728 -10.21676 -10.21666 -10.21533 -10.21134
 Alpha  occ. eigenvalues --  -10.21032  -3.15339  -1.88120  -1.87751  -1.87530
 Alpha  occ. eigenvalues --   -1.10342  -1.09115  -1.05588  -1.02991  -1.02772
 Alpha  occ. eigenvalues --   -1.00900  -1.00309  -0.98282  -0.98094  -0.96632
 Alpha  occ. eigenvalues --   -0.88487  -0.84822  -0.84448  -0.84225  -0.83709
 Alpha  occ. eigenvalues --   -0.83280  -0.82512  -0.82322  -0.81728  -0.80866
 Alpha  occ. eigenvalues --   -0.80241  -0.79683  -0.78890  -0.78431  -0.78061
 Alpha  occ. eigenvalues --   -0.77104  -0.76314  -0.75837  -0.75305  -0.74758
 Alpha  occ. eigenvalues --   -0.73957  -0.72775  -0.72411  -0.71940  -0.71011
 Alpha  occ. eigenvalues --   -0.70051  -0.69400  -0.69251  -0.68871  -0.68528
 Alpha  occ. eigenvalues --   -0.68062  -0.67538  -0.66913  -0.65392  -0.63943
 Alpha  occ. eigenvalues --   -0.63275  -0.62267  -0.61931  -0.61009  -0.60783
 Alpha  occ. eigenvalues --   -0.60391  -0.59842  -0.59497  -0.59184  -0.57754
 Alpha  occ. eigenvalues --   -0.57447  -0.57392  -0.57110  -0.56491  -0.54883
 Alpha  occ. eigenvalues --   -0.54655  -0.54041  -0.53492  -0.53087  -0.52589
 Alpha  occ. eigenvalues --   -0.51959  -0.51633  -0.51449  -0.51087  -0.50315
 Alpha  occ. eigenvalues --   -0.49814  -0.49367  -0.49356  -0.49172  -0.48464
 Alpha  occ. eigenvalues --   -0.48136  -0.47996  -0.47898  -0.47663  -0.47446
 Alpha  occ. eigenvalues --   -0.47134  -0.47112  -0.46709  -0.46584  -0.46286
 Alpha  occ. eigenvalues --   -0.46067  -0.45819  -0.45519  -0.45378  -0.45206
 Alpha  occ. eigenvalues --   -0.45096  -0.44833  -0.44801  -0.44378  -0.44231
 Alpha  occ. eigenvalues --   -0.44136  -0.43908  -0.43693  -0.43541  -0.43321
 Alpha  occ. eigenvalues --   -0.43166  -0.42886  -0.42683  -0.42464  -0.42301
 Alpha  occ. eigenvalues --   -0.42223  -0.42113  -0.41974  -0.41693  -0.41539
 Alpha  occ. eigenvalues --   -0.41240  -0.41130  -0.41032  -0.40908  -0.40603
 Alpha  occ. eigenvalues --   -0.40235  -0.40120  -0.40032  -0.39867  -0.39766
 Alpha  occ. eigenvalues --   -0.39525  -0.39043  -0.38726  -0.38531  -0.38461
 Alpha  occ. eigenvalues --   -0.38259  -0.38195  -0.38133  -0.37861  -0.37843
 Alpha  occ. eigenvalues --   -0.37646  -0.37469  -0.37332  -0.37100  -0.37000
 Alpha  occ. eigenvalues --   -0.36652  -0.36575  -0.36497  -0.36311  -0.36227
 Alpha  occ. eigenvalues --   -0.36137  -0.35597  -0.35483  -0.35438  -0.35192
 Alpha  occ. eigenvalues --   -0.34585  -0.34374  -0.34360  -0.34118  -0.33501
 Alpha  occ. eigenvalues --   -0.32937  -0.32835  -0.32605  -0.32289  -0.32220
 Alpha  occ. eigenvalues --   -0.31850  -0.31745  -0.31723  -0.31376  -0.31065
 Alpha  occ. eigenvalues --   -0.30896  -0.30487  -0.30443  -0.30199  -0.29478
 Alpha  occ. eigenvalues --   -0.29328  -0.29311  -0.28204  -0.27227  -0.25958
 Alpha  occ. eigenvalues --   -0.25568  -0.25364  -0.24885  -0.24787  -0.21752
 Alpha  occ. eigenvalues --   -0.19293
 Alpha virt. eigenvalues --   -0.11655  -0.05823  -0.03932  -0.02770  -0.02233
 Alpha virt. eigenvalues --   -0.00056   0.00711   0.00995   0.02047   0.02896
 Alpha virt. eigenvalues --    0.03872   0.04422   0.04799   0.05594   0.05925

 Mulliken charges:
               1
     1  Mg   0.957541
     2  C    0.005708
     3  C   -0.089092
     4  C   -0.094936
     5  C   -0.069502
     6  N   -0.324518
     7  C    0.004811
     8  C   -0.093561
     9  C   -0.087257
    10  C    0.061614
    11  C    0.006182
    12  C    0.026965
    13  C   -0.027616
    14  C    0.242626
    15  O   -0.277368
    16  O   -0.394609
    17  N   -0.516527
    18  C    0.164656
    19  C   -0.150488
    20  C   -0.112329
    21  C    0.240459
    22  C    0.053781
    23  C    0.070268
    24  O   -0.227097
    25  C   -0.031844
    26  N   -0.441949
    27  C    0.063801
    28  C   -0.102049
    29  C   -0.114512
    30  C    0.087274
    31  C    0.001200
    32  C   -0.019184
    33  C   -0.055548
    34  N   -0.444449
    35  C    0.129195
    36  C   -0.168332
    37  C   -0.043438
    38  C    0.186545
    39  C    0.057774
    40  C    0.137262
    41  O   -0.239575
    42  C   -0.109884
    43  C    0.281410
    44  O   -0.218150
    45  O   -0.409750
    46  C    0.119841
    47  C    0.257162
    48  C   -0.090721
    49  C   -0.229816
    50  C   -0.004106
    51  C   -0.020028
    52  C   -0.032241
    53  C    0.031846
    54  C   -0.232515
    55  C   -0.029131
    56  C   -0.000619
    57  C   -0.046451
    58  C    0.026545
    59  C   -0.198990
    60  C   -0.024976
    61  C    0.030869
    62  C   -0.118530
    63  C    0.011381
    64  C   -0.213779
    65  C   -0.042500
    66  C    0.000030
    67  H    0.006844
    68  H   -0.001109
    69  H    0.002756
    70  H    0.039281
    71  H    0.036989
    72  H    0.039144
    73  H    0.028295
    74  H    0.040821
    75  H    0.058895
    76  H    0.042043
    77  H    0.073741
    78  H    0.086855
    79  H    0.059429
    80  H    0.036076
    81  H    0.062649
    82  H    0.062810
    83  H    0.072743
    84  H    0.042407
    85  H    0.056845
    86  H    0.057918
    87  H    0.047099
    88  H    0.047757
    89  H    0.048224
    90  H    0.043304
    91  H    0.038440
    92  H    0.031346
    93  H    0.050359
    94  H    0.043440
    95  H    0.067077
    96  H    0.021578
    97  H    0.061237
    98  H    0.081386
    99  H    0.054380
   100  H    0.073607
   101  H    0.064293
   102  H    0.040990
   103  H    0.061237
   104  H    0.017179
   105  H    0.033102
   106  H    0.052632
   107  H    0.044993
   108  H    0.041916
   109  H    0.025875
   110  H    0.033736
   111  H    0.044020
   112  H    0.035116
   113  H    0.020815
   114  H    0.033707
   115  H    0.038110
   116  H    0.025798
   117  H    0.036811
   118  H    0.006656
   119  H    0.014562
   120  H    0.028374
   121  H    0.029837
   122  H    0.021786
   123  H    0.020930
   124  H    0.032273
   125  H    0.021462
   126  H    0.024611
   127  H    0.023501
   128  H    0.032456
   129  H    0.021100
   130  H    0.038719
   131  H    0.034326
   132  H    0.017476
   133  H    0.026838
   134  H    0.036528
   135  H    0.034403
   136  H    0.040474
   137  H    0.023471
   138  H    0.022730
   139  H    0.039364
   140  H    0.034350
 Sum of Mulliken charges =  -0.00000

 Dipole moment (field-independent basis, Debye):
    X=              1.2652    Y=              7.3120    Z=             -0.5554  Tot=              7.4414
 Quadrupole moment (field-independent basis, Debye-Ang):
   XX=           -379.6191   YY=           -433.4231   ZZ=           -383.1133
   XY=             54.8023   XZ=            -19.9763   YZ=             35.0798

 Normal termination of Gaussian 16 at Sat Apr 30 21:25:35 2022.
