 Gaussian 16, Revision A.03,
 Gaussian 16:  ES64L-G16RevA.03 25-Dec-2016

 --------------------------------
 #p wB97XD/Def2SVP td=(nstates=5)
 --------------------------------

 ---------------------------------------------------
 step_901_chromophore_2 TDDFT with wB97XD functional
 ---------------------------------------------------
 Symbolic Z-matrix:
 Charge =  0 Multiplicity = 1

                         Standard orientation:
 ---------------------------------------------------------------------
 Center     Atomic      Atomic             Coordinates (Angstroms)
 Number     Number       Type             X           Y           Z
 ---------------------------------------------------------------------
      1         12           0        4.514063    1.130119   -0.725048
      2          6           0        4.904592   -2.381489   -0.330035
      3          6           0        2.006386    0.347368   -3.075469
      4          6           0        3.339251    4.199400   -0.421953
      5          6           0        6.520957    1.484185    2.159675
      6          7           0        3.475832   -0.774930   -1.450054
      7          6           0        3.942389   -1.987851   -1.255871
      8          6           0        3.155741   -2.990938   -2.123675
      9          6           0        2.612167   -2.088718   -3.202169
     10          6           0        2.621809   -0.765373   -2.535528
     11          6           0        3.372232   -2.070324   -4.551223
     12          6           0        2.070475   -3.743466   -1.395150
     13          6           0        1.469165   -3.040580   -0.172316
     14          6           0        0.179961   -3.612532    0.408297
     15          8           0       -0.151691   -4.800596    0.374163
     16          8           0       -0.626711   -2.704813    1.147847
     17          7           0        3.013166    2.149106   -1.699041
     18          6           0        2.166689    1.694442   -2.680644
     19          6           0        1.524569    2.822674   -3.290451
     20          6           0        1.900365    3.970503   -2.526474
     21          6           0        2.838369    3.493374   -1.492164
     22          6           0        0.528725    2.663562   -4.406479
     23          6           0        1.447534    5.425897   -2.793785
     24          8           0        0.644853    5.700733   -3.660755
     25          6           0        1.810746    6.526191   -1.944250
     26          7           0        4.804433    2.556282    0.783921
     27          6           0        4.229217    3.814341    0.658686
     28          6           0        4.807366    4.900572    1.654570
     29          6           0        5.963398    4.056750    2.290152
     30          6           0        5.755567    2.589682    1.831105
     31          6           0        5.265400    6.203116    0.954118
     32          6           0        6.069059    4.310198    3.804245
     33          6           0        7.422525    4.673041    4.312587
     34          7           0        5.574054   -0.206487    0.661328
     35          6           0        6.380387    0.130801    1.755482
     36          6           0        6.829305   -1.129556    2.327633
     37          6           0        6.319342   -2.111608    1.443942
     38          6           0        5.532997   -1.533139    0.506789
     39          6           0        7.859787   -1.320608    3.482201
     40          6           0        6.346566   -3.528675    1.202300
     41          8           0        6.860727   -4.453693    1.860847
     42          6           0        5.356848   -3.759489    0.068375
     43          6           0        5.932273   -4.570478   -1.053560
     44          8           0        5.714571   -5.720726   -1.361467
     45          8           0        6.789947   -3.668484   -1.725438
     46          6           0        7.193030   -4.168624   -3.079451
     47          6           0       -1.796701   -3.283070    1.799892
     48          6           0       -2.737263   -2.147314    2.200882
     49          6           0       -3.445403   -2.030485    3.332027
     50          6           0       -3.524402   -3.143614    4.433090
     51          6           0       -4.298361   -0.768117    3.670449
     52          6           0       -5.859601   -0.681913    3.276462
     53          6           0       -6.197833    0.715291    2.734696
     54          6           0       -6.429661    0.779000    1.217937
     55          6           0       -5.529211    1.844502    0.516960
     56          6           0       -7.895451    0.896767    0.739885
     57          6           0       -8.536397   -0.392715    0.212810
     58          6           0       -8.834781   -0.536921   -1.265992
     59          6           0      -10.265600   -0.958646   -1.572277
     60          6           0      -10.401072   -1.461574   -2.979106
     61          6           0      -11.332263    0.131303   -1.291932
     62          6           0      -12.216053   -0.318388   -0.134035
     63          6           0      -13.194154    0.845490    0.455743
     64          6           0      -14.629024    0.449892    0.682078
     65          6           0      -15.183664   -0.149239   -0.613375
     66          6           0      -15.616198    1.522800    1.190843
     67          1           0        1.331471    0.168419   -3.916002
     68          1           0        2.980986    5.213975   -0.235148
     69          1           0        7.198883    1.666841    2.995944
     70          1           0        3.765762   -3.795677   -2.533458
     71          1           0        1.577951   -2.231819   -3.515910
     72          1           0        2.946170   -2.733864   -5.303544
     73          1           0        4.395171   -2.446589   -4.573723
     74          1           0        3.459138   -1.105788   -5.050879
     75          1           0        2.528763   -4.710741   -1.186049
     76          1           0        1.222460   -3.953036   -2.047366
     77          1           0        1.180805   -2.027375   -0.453630
     78          1           0        2.129634   -3.063901    0.694184
     79          1           0       -0.471840    2.385477   -4.074505
     80          1           0        0.850914    1.859257   -5.067899
     81          1           0        0.357713    3.561507   -5.000527
     82          1           0        2.833385    6.890204   -1.846689
     83          1           0        1.308771    6.295976   -1.003604
     84          1           0        1.374704    7.473880   -2.262051
     85          1           0        4.060029    5.103649    2.422214
     86          1           0        6.876922    4.237095    1.722207
     87          1           0        4.447844    6.901466    0.776011
     88          1           0        5.691395    5.952371   -0.017851
     89          1           0        6.011340    6.774506    1.506390
     90          1           0        5.794928    3.378934    4.299790
     91          1           0        5.313538    5.025233    4.128519
     92          1           0        7.130711    5.406803    5.064040
     93          1           0        8.118109    5.077433    3.577025
     94          1           0        7.882988    3.910896    4.940888
     95          1           0        7.425145   -1.719367    4.399177
     96          1           0        8.366993   -0.383304    3.711930
     97          1           0        8.714807   -1.908060    3.147508
     98          1           0        4.656165   -4.420559    0.577027
     99          1           0        7.405812   -3.260969   -3.644228
    100          1           0        6.391651   -4.793900   -3.472686
    101          1           0        8.158001   -4.668104   -2.990884
    102          1           0       -1.472485   -3.854207    2.669849
    103          1           0       -2.290182   -4.049158    1.203689
    104          1           0       -2.875185   -1.260834    1.580612
    105          1           0       -2.885222   -3.998087    4.211927
    106          1           0       -4.526180   -3.519969    4.639882
    107          1           0       -3.181772   -2.660728    5.347919
    108          1           0       -3.708651    0.069834    3.300232
    109          1           0       -4.278692   -0.703092    4.758894
    110          1           0       -6.370477   -0.895115    4.215293
    111          1           0       -6.162567   -1.390430    2.504917
    112          1           0       -5.483490    1.475342    3.050663
    113          1           0       -7.197901    0.862126    3.142293
    114          1           0       -6.075020   -0.150714    0.772199
    115          1           0       -5.386744    2.733695    1.131260
    116          1           0       -5.949879    2.178984   -0.431234
    117          1           0       -4.582938    1.390827    0.222992
    118          1           0       -7.934603    1.683141   -0.013937
    119          1           0       -8.509056    1.397607    1.489816
    120          1           0       -9.457707   -0.474580    0.790037
    121          1           0       -7.858707   -1.204423    0.479215
    122          1           0       -8.166763   -1.303497   -1.658630
    123          1           0       -8.588243    0.450574   -1.656654
    124          1           0      -10.404204   -1.923349   -1.085122
    125          1           0      -11.408478   -1.504361   -3.393064
    126          1           0      -10.080015   -2.497484   -3.086461
    127          1           0       -9.883922   -0.869590   -3.733434
    128          1           0      -11.920673    0.436518   -2.157985
    129          1           0      -10.808067    1.027207   -0.958403
    130          1           0      -11.645876   -0.779570    0.671754
    131          1           0      -12.815005   -1.100603   -0.599974
    132          1           0      -13.127952    1.615502   -0.312466
    133          1           0      -12.702823    1.267910    1.331816
    134          1           0      -14.593344   -0.382028    1.385190
    135          1           0      -15.592571   -1.131103   -0.370924
    136          1           0      -14.459147   -0.159860   -1.427526
    137          1           0      -16.041952    0.346308   -1.065899
    138          1           0      -15.132368    2.467342    1.441071
    139          1           0      -16.097054    1.162378    2.101002
    140          1           0      -16.368603    1.843834    0.469629
 ---------------------------------------------------------------------

 SCF Done:  E(RwB97XD) =  -3007.85656394     A.U. after   17 cycles

 Excitation energies and oscillator strengths:

 Excited State   1:      Singlet-A      1.6640 eV  745.08 nm  f=0.3813  <S**2>=0.000
     245 -> 248       -0.17928
     246 -> 247        0.68497
     245 <- 248       -0.11569
 This state for optimization and/or second-order correction.
 Total Energy, E(TD-HF/TD-DFT) =  -3007.79541175
 Copying the excited state density for this state as the 1-particle RhoCI density.

 Excited State   2:      Singlet-A      2.2106 eV  560.87 nm  f=0.0833  <S**2>=0.000
     245 -> 247        0.62650
     246 -> 248        0.30669

 Excited State   3:      Singlet-A      3.2283 eV  384.05 nm  f=0.0025  <S**2>=0.000
     241 -> 247       -0.14012
     244 -> 247        0.65337
     246 -> 248       -0.10036

 Excited State   4:      Singlet-A      3.3348 eV  371.79 nm  f=0.0114  <S**2>=0.000
     241 -> 247        0.31841
     241 -> 249        0.14193
     242 -> 247        0.54869
     246 -> 248       -0.15056

 Excited State   5:      Singlet-A      3.4321 eV  361.25 nm  f=0.0410  <S**2>=0.000
     241 -> 247        0.49296
     242 -> 247       -0.26605
     242 -> 249        0.22805
     242 -> 251       -0.15884
     246 -> 248       -0.23867

 The electronic state is 1-A.
 Alpha  occ. eigenvalues --  -46.96308 -19.29859 -19.29025 -19.26123 -19.24249
 Alpha  occ. eigenvalues --  -19.23807 -19.23173 -14.47500 -14.47034 -14.44670
 Alpha  occ. eigenvalues --  -14.43237 -10.43704 -10.42989 -10.39103 -10.38203
 Alpha  occ. eigenvalues --  -10.36812 -10.35731 -10.35526 -10.35284 -10.35210
 Alpha  occ. eigenvalues --  -10.35057 -10.34827 -10.34561 -10.33968 -10.33536
 Alpha  occ. eigenvalues --  -10.32927 -10.32587 -10.32284 -10.32130 -10.31917
 Alpha  occ. eigenvalues --  -10.31911 -10.31812 -10.31701 -10.31643 -10.31629
 Alpha  occ. eigenvalues --  -10.31600 -10.31316 -10.31312 -10.31175 -10.30810
 Alpha  occ. eigenvalues --  -10.30728 -10.30619 -10.30476 -10.29973 -10.29956
 Alpha  occ. eigenvalues --  -10.29913 -10.29721 -10.29570 -10.29535 -10.29317
 Alpha  occ. eigenvalues --  -10.29263 -10.29145 -10.29122 -10.28986 -10.28755
 Alpha  occ. eigenvalues --  -10.28644 -10.28628 -10.28530 -10.28201 -10.28116
 Alpha  occ. eigenvalues --  -10.28098 -10.28093 -10.28065 -10.27970 -10.27553
 Alpha  occ. eigenvalues --  -10.27476  -3.22214  -1.95739  -1.95369  -1.95147
 Alpha  occ. eigenvalues --   -1.17715  -1.16479  -1.13199  -1.10333  -1.10127
 Alpha  occ. eigenvalues --   -1.08231  -1.07710  -1.05654  -1.05483  -1.04068
 Alpha  occ. eigenvalues --   -0.95981  -0.92411  -0.92119  -0.91836  -0.91389
 Alpha  occ. eigenvalues --   -0.90956  -0.90141  -0.89986  -0.89390  -0.88604
 Alpha  occ. eigenvalues --   -0.87992  -0.87185  -0.86487  -0.86079  -0.85742
 Alpha  occ. eigenvalues --   -0.84854  -0.83979  -0.83467  -0.82913  -0.82406
 Alpha  occ. eigenvalues --   -0.81595  -0.80372  -0.80057  -0.79698  -0.78621
 Alpha  occ. eigenvalues --   -0.77675  -0.77095  -0.76949  -0.76547  -0.76211
 Alpha  occ. eigenvalues --   -0.75612  -0.75083  -0.74479  -0.72998  -0.71485
 Alpha  occ. eigenvalues --   -0.70772  -0.69899  -0.69561  -0.68631  -0.68289
 Alpha  occ. eigenvalues --   -0.67908  -0.67341  -0.67134  -0.66596  -0.65447
 Alpha  occ. eigenvalues --   -0.65126  -0.64810  -0.64542  -0.64120  -0.62420
 Alpha  occ. eigenvalues --   -0.62028  -0.61454  -0.60961  -0.60435  -0.60067
 Alpha  occ. eigenvalues --   -0.59432  -0.59099  -0.58946  -0.58447  -0.57693
 Alpha  occ. eigenvalues --   -0.57239  -0.56897  -0.56798  -0.56504  -0.55922
 Alpha  occ. eigenvalues --   -0.55562  -0.55443  -0.55254  -0.55094  -0.54830
 Alpha  occ. eigenvalues --   -0.54458  -0.54423  -0.54117  -0.53933  -0.53664
 Alpha  occ. eigenvalues --   -0.53375  -0.53208  -0.52908  -0.52669  -0.52544
 Alpha  occ. eigenvalues --   -0.52414  -0.52240  -0.52086  -0.51733  -0.51663
 Alpha  occ. eigenvalues --   -0.51510  -0.51181  -0.50987  -0.50809  -0.50602
 Alpha  occ. eigenvalues --   -0.50398  -0.50163  -0.49958  -0.49754  -0.49601
 Alpha  occ. eigenvalues --   -0.49488  -0.49368  -0.49236  -0.48958  -0.48783
 Alpha  occ. eigenvalues --   -0.48592  -0.48385  -0.48260  -0.48149  -0.47801
 Alpha  occ. eigenvalues --   -0.47408  -0.47327  -0.47208  -0.47134  -0.46911
 Alpha  occ. eigenvalues --   -0.46599  -0.46149  -0.45785  -0.45721  -0.45630
 Alpha  occ. eigenvalues --   -0.45363  -0.45283  -0.45281  -0.45061  -0.44974
 Alpha  occ. eigenvalues --   -0.44711  -0.44577  -0.44466  -0.44363  -0.44105
 Alpha  occ. eigenvalues --   -0.43793  -0.43674  -0.43620  -0.43420  -0.43321
 Alpha  occ. eigenvalues --   -0.43238  -0.42729  -0.42607  -0.42471  -0.42270
 Alpha  occ. eigenvalues --   -0.41617  -0.41480  -0.41390  -0.41014  -0.40565
 Alpha  occ. eigenvalues --   -0.40027  -0.39911  -0.39636  -0.39280  -0.39235
 Alpha  occ. eigenvalues --   -0.38801  -0.38786  -0.38756  -0.38381  -0.38101
 Alpha  occ. eigenvalues --   -0.37904  -0.37494  -0.37441  -0.37159  -0.36191
 Alpha  occ. eigenvalues --   -0.36176  -0.36079  -0.35321  -0.33797  -0.33154
 Alpha  occ. eigenvalues --   -0.32509  -0.32255  -0.31514  -0.31322  -0.26780
 Alpha  occ. eigenvalues --   -0.23469
 Alpha virt. eigenvalues --   -0.07509  -0.00441   0.02303   0.03288   0.04252
 Alpha virt. eigenvalues --    0.06789   0.07572   0.07839   0.08740   0.09593
 Alpha virt. eigenvalues --    0.10534   0.10928   0.11573   0.12364   0.12647

 Mulliken charges:
               1
     1  Mg   0.951548
     2  C    0.014618
     3  C   -0.108946
     4  C   -0.102126
     5  C   -0.078898
     6  N   -0.288008
     7  C   -0.043228
     8  C   -0.061179
     9  C   -0.059178
    10  C    0.050485
    11  C    0.011706
    12  C    0.027828
    13  C   -0.001037
    14  C    0.232578
    15  O   -0.275424
    16  O   -0.394086
    17  N   -0.483834
    18  C    0.158443
    19  C   -0.143132
    20  C   -0.105758
    21  C    0.238708
    22  C    0.065234
    23  C    0.067237
    24  O   -0.221648
    25  C   -0.019989
    26  N   -0.414589
    27  C    0.048086
    28  C   -0.074309
    29  C   -0.089105
    30  C    0.073675
    31  C    0.012539
    32  C   -0.004843
    33  C   -0.041079
    34  N   -0.404456
    35  C    0.116485
    36  C   -0.170390
    37  C   -0.034200
    38  C    0.161201
    39  C    0.070443
    40  C    0.112919
    41  O   -0.230219
    42  C   -0.067209
    43  C    0.258635
    44  O   -0.212159
    45  O   -0.411420
    46  C    0.135158
    47  C    0.271056
    48  C   -0.099012
    49  C   -0.219085
    50  C    0.011493
    51  C   -0.000881
    52  C   -0.013315
    53  C    0.045698
    54  C   -0.202473
    55  C   -0.014518
    56  C    0.012539
    57  C   -0.024958
    58  C    0.041751
    59  C   -0.165124
    60  C   -0.015734
    61  C    0.044491
    62  C   -0.098434
    63  C    0.027903
    64  C   -0.185053
    65  C   -0.028901
    66  C    0.010632
    67  H    0.001838
    68  H   -0.016860
    69  H   -0.005838
    70  H    0.025297
    71  H    0.027711
    72  H    0.034492
    73  H    0.022611
    74  H    0.034276
    75  H    0.053433
    76  H    0.034336
    77  H    0.062382
    78  H    0.078630
    79  H    0.056131
    80  H    0.030498
    81  H    0.059950
    82  H    0.058801
    83  H    0.067382
    84  H    0.041466
    85  H    0.047669
    86  H    0.044675
    87  H    0.041449
    88  H    0.040308
    89  H    0.043289
    90  H    0.035268
    91  H    0.030455
    92  H    0.025360
    93  H    0.044654
    94  H    0.038416
    95  H    0.062288
    96  H    0.014492
    97  H    0.055785
    98  H    0.074872
    99  H    0.050642
   100  H    0.069038
   101  H    0.060737
   102  H    0.034097
   103  H    0.056723
   104  H    0.013814
   105  H    0.027257
   106  H    0.047073
   107  H    0.038224
   108  H    0.032612
   109  H    0.017685
   110  H    0.027560
   111  H    0.032209
   112  H    0.026718
   113  H    0.011245
   114  H    0.016724
   115  H    0.031803
   116  H    0.018975
   117  H    0.030850
   118  H   -0.004942
   119  H    0.006979
   120  H    0.014830
   121  H    0.019588
   122  H    0.014896
   123  H    0.009456
   124  H    0.019574
   125  H    0.015158
   126  H    0.019229
   127  H    0.017112
   128  H    0.024892
   129  H    0.008883
   130  H    0.029958
   131  H    0.020906
   132  H    0.006131
   133  H    0.019880
   134  H    0.025989
   135  H    0.029176
   136  H    0.030694
   137  H    0.017328
   138  H    0.017100
   139  H    0.034331
   140  H    0.028194
 Sum of Mulliken charges =  -0.00000

 Dipole moment (field-independent basis, Debye):
    X=              1.0443    Y=              7.6442    Z=             -0.8921  Tot=              7.7666
 Quadrupole moment (field-independent basis, Debye-Ang):
   XX=           -381.1682   YY=           -432.5491   ZZ=           -382.4454
   XY=             55.4627   XZ=            -21.5993   YZ=             34.3582

 Normal termination of Gaussian 16 at Sat Apr 30 22:04:33 2022.
