 Gaussian 16, Revision A.03,
 Gaussian 16:  ES64L-G16RevA.03 25-Dec-2016

 --------------------
 #p ZINDO=(nstates=5)
 --------------------

 ----------------------------
 step_901_chromophore_2 ZINDO
 ----------------------------
 Symbolic Z-matrix:
 Charge =  0 Multiplicity = 1

                         Standard orientation:
 ---------------------------------------------------------------------
 Center     Atomic      Atomic             Coordinates (Angstroms)
 Number     Number       Type             X           Y           Z
 ---------------------------------------------------------------------
      1         12           0        4.514063    1.130119   -0.725048
      2          6           0        4.904592   -2.381489   -0.330035
      3          6           0        2.006386    0.347368   -3.075469
      4          6           0        3.339251    4.199400   -0.421953
      5          6           0        6.520957    1.484185    2.159675
      6          7           0        3.475832   -0.774930   -1.450054
      7          6           0        3.942389   -1.987851   -1.255871
      8          6           0        3.155741   -2.990938   -2.123675
      9          6           0        2.612167   -2.088718   -3.202169
     10          6           0        2.621809   -0.765373   -2.535528
     11          6           0        3.372232   -2.070324   -4.551223
     12          6           0        2.070475   -3.743466   -1.395150
     13          6           0        1.469165   -3.040580   -0.172316
     14          6           0        0.179961   -3.612532    0.408297
     15          8           0       -0.151691   -4.800596    0.374163
     16          8           0       -0.626711   -2.704813    1.147847
     17          7           0        3.013166    2.149106   -1.699041
     18          6           0        2.166689    1.694442   -2.680644
     19          6           0        1.524569    2.822674   -3.290451
     20          6           0        1.900365    3.970503   -2.526474
     21          6           0        2.838369    3.493374   -1.492164
     22          6           0        0.528725    2.663562   -4.406479
     23          6           0        1.447534    5.425897   -2.793785
     24          8           0        0.644853    5.700733   -3.660755
     25          6           0        1.810746    6.526191   -1.944250
     26          7           0        4.804433    2.556282    0.783921
     27          6           0        4.229217    3.814341    0.658686
     28          6           0        4.807366    4.900572    1.654570
     29          6           0        5.963398    4.056750    2.290152
     30          6           0        5.755567    2.589682    1.831105
     31          6           0        5.265400    6.203116    0.954118
     32          6           0        6.069059    4.310198    3.804245
     33          6           0        7.422525    4.673041    4.312587
     34          7           0        5.574054   -0.206487    0.661328
     35          6           0        6.380387    0.130801    1.755482
     36          6           0        6.829305   -1.129556    2.327633
     37          6           0        6.319342   -2.111608    1.443942
     38          6           0        5.532997   -1.533139    0.506789
     39          6           0        7.859787   -1.320608    3.482201
     40          6           0        6.346566   -3.528675    1.202300
     41          8           0        6.860727   -4.453693    1.860847
     42          6           0        5.356848   -3.759489    0.068375
     43          6           0        5.932273   -4.570478   -1.053560
     44          8           0        5.714571   -5.720726   -1.361467
     45          8           0        6.789947   -3.668484   -1.725438
     46          6           0        7.193030   -4.168624   -3.079451
     47          6           0       -1.796701   -3.283070    1.799892
     48          6           0       -2.737263   -2.147314    2.200882
     49          6           0       -3.445403   -2.030485    3.332027
     50          6           0       -3.524402   -3.143614    4.433090
     51          6           0       -4.298361   -0.768117    3.670449
     52          6           0       -5.859601   -0.681913    3.276462
     53          6           0       -6.197833    0.715291    2.734696
     54          6           0       -6.429661    0.779000    1.217937
     55          6           0       -5.529211    1.844502    0.516960
     56          6           0       -7.895451    0.896767    0.739885
     57          6           0       -8.536397   -0.392715    0.212810
     58          6           0       -8.834781   -0.536921   -1.265992
     59          6           0      -10.265600   -0.958646   -1.572277
     60          6           0      -10.401072   -1.461574   -2.979106
     61          6           0      -11.332263    0.131303   -1.291932
     62          6           0      -12.216053   -0.318388   -0.134035
     63          6           0      -13.194154    0.845490    0.455743
     64          6           0      -14.629024    0.449892    0.682078
     65          6           0      -15.183664   -0.149239   -0.613375
     66          6           0      -15.616198    1.522800    1.190843
     67          1           0        1.331471    0.168419   -3.916002
     68          1           0        2.980986    5.213975   -0.235148
     69          1           0        7.198883    1.666841    2.995944
     70          1           0        3.765762   -3.795677   -2.533458
     71          1           0        1.577951   -2.231819   -3.515910
     72          1           0        2.946170   -2.733864   -5.303544
     73          1           0        4.395171   -2.446589   -4.573723
     74          1           0        3.459138   -1.105788   -5.050879
     75          1           0        2.528763   -4.710741   -1.186049
     76          1           0        1.222460   -3.953036   -2.047366
     77          1           0        1.180805   -2.027375   -0.453630
     78          1           0        2.129634   -3.063901    0.694184
     79          1           0       -0.471840    2.385477   -4.074505
     80          1           0        0.850914    1.859257   -5.067899
     81          1           0        0.357713    3.561507   -5.000527
     82          1           0        2.833385    6.890204   -1.846689
     83          1           0        1.308771    6.295976   -1.003604
     84          1           0        1.374704    7.473880   -2.262051
     85          1           0        4.060029    5.103649    2.422214
     86          1           0        6.876922    4.237095    1.722207
     87          1           0        4.447844    6.901466    0.776011
     88          1           0        5.691395    5.952371   -0.017851
     89          1           0        6.011340    6.774506    1.506390
     90          1           0        5.794928    3.378934    4.299790
     91          1           0        5.313538    5.025233    4.128519
     92          1           0        7.130711    5.406803    5.064040
     93          1           0        8.118109    5.077433    3.577025
     94          1           0        7.882988    3.910896    4.940888
     95          1           0        7.425145   -1.719367    4.399177
     96          1           0        8.366993   -0.383304    3.711930
     97          1           0        8.714807   -1.908060    3.147508
     98          1           0        4.656165   -4.420559    0.577027
     99          1           0        7.405812   -3.260969   -3.644228
    100          1           0        6.391651   -4.793900   -3.472686
    101          1           0        8.158001   -4.668104   -2.990884
    102          1           0       -1.472485   -3.854207    2.669849
    103          1           0       -2.290182   -4.049158    1.203689
    104          1           0       -2.875185   -1.260834    1.580612
    105          1           0       -2.885222   -3.998087    4.211927
    106          1           0       -4.526180   -3.519969    4.639882
    107          1           0       -3.181772   -2.660728    5.347919
    108          1           0       -3.708651    0.069834    3.300232
    109          1           0       -4.278692   -0.703092    4.758894
    110          1           0       -6.370477   -0.895115    4.215293
    111          1           0       -6.162567   -1.390430    2.504917
    112          1           0       -5.483490    1.475342    3.050663
    113          1           0       -7.197901    0.862126    3.142293
    114          1           0       -6.075020   -0.150714    0.772199
    115          1           0       -5.386744    2.733695    1.131260
    116          1           0       -5.949879    2.178984   -0.431234
    117          1           0       -4.582938    1.390827    0.222992
    118          1           0       -7.934603    1.683141   -0.013937
    119          1           0       -8.509056    1.397607    1.489816
    120          1           0       -9.457707   -0.474580    0.790037
    121          1           0       -7.858707   -1.204423    0.479215
    122          1           0       -8.166763   -1.303497   -1.658630
    123          1           0       -8.588243    0.450574   -1.656654
    124          1           0      -10.404204   -1.923349   -1.085122
    125          1           0      -11.408478   -1.504361   -3.393064
    126          1           0      -10.080015   -2.497484   -3.086461
    127          1           0       -9.883922   -0.869590   -3.733434
    128          1           0      -11.920673    0.436518   -2.157985
    129          1           0      -10.808067    1.027207   -0.958403
    130          1           0      -11.645876   -0.779570    0.671754
    131          1           0      -12.815005   -1.100603   -0.599974
    132          1           0      -13.127952    1.615502   -0.312466
    133          1           0      -12.702823    1.267910    1.331816
    134          1           0      -14.593344   -0.382028    1.385190
    135          1           0      -15.592571   -1.131103   -0.370924
    136          1           0      -14.459147   -0.159860   -1.427526
    137          1           0      -16.041952    0.346308   -1.065899
    138          1           0      -15.132368    2.467342    1.441071
    139          1           0      -16.097054    1.162378    2.101002
    140          1           0      -16.368603    1.843834    0.469629
 ---------------------------------------------------------------------

 SCF Done:  E(RZINDO/S) =  -474.418376192     A.U. after   20 cycles

 Excitation energies and oscillator strengths:

 Excited State   1:      Singlet-A      1.2706 eV  975.80 nm  f=0.5891  <S**2>=0.000
     175 ->178         0.17759
     176 ->177         0.66666
 This state for optimization and/or second-order correction.
 Total Energy, E(CIS/TDA) =  -474.371682663
 Copying the excited state density for this state as the 1-particle RhoCI density.

 Excited State   2:      Singlet-A      1.9148 eV  647.51 nm  f=0.0332  <S**2>=0.000
     175 ->177         0.53829
     176 ->178        -0.42837

 Excited State   3:      Singlet-A      2.8289 eV  438.28 nm  f=0.0065  <S**2>=0.000
     176 ->179         0.22338
     176 ->180         0.66579

 Excited State   4:      Singlet-A      2.8988 eV  427.71 nm  f=0.0017  <S**2>=0.000
     168 ->177        -0.11562
     168 ->179         0.10798
     168 ->181        -0.10726
     169 ->179         0.17479
     169 ->185         0.12468
     170 ->177         0.20771
     170 ->179         0.22020
     170 ->181         0.23477
     170 ->185         0.10606
     170 ->187         0.12950
     171 ->177         0.21068
     171 ->179         0.13201
     171 ->181         0.19110
     174 ->177        -0.14401

 Excited State   5:      Singlet-A      2.9067 eV  426.55 nm  f=0.0017  <S**2>=0.000
     168 ->177         0.16834
     168 ->179        -0.22185
     168 ->181         0.16378
     168 ->185        -0.17299
     169 ->177         0.21554
     169 ->178        -0.10607
     169 ->179        -0.20486
     169 ->181         0.21500
     169 ->185        -0.17107
     170 ->177         0.14408
     170 ->179         0.11085
     170 ->181         0.14645
     171 ->179         0.13542

 The electronic state is 1-A.
 Alpha  occ. eigenvalues --   -1.87830  -1.83032  -1.79963  -1.73369  -1.70846
 Alpha  occ. eigenvalues --   -1.70193  -1.66540  -1.62527  -1.60589  -1.58110
 Alpha  occ. eigenvalues --   -1.55436  -1.50892  -1.49143  -1.48110  -1.47145
 Alpha  occ. eigenvalues --   -1.45439  -1.42458  -1.41222  -1.40504  -1.37744
 Alpha  occ. eigenvalues --   -1.37078  -1.32830  -1.32058  -1.30323  -1.29183
 Alpha  occ. eigenvalues --   -1.28939  -1.27693  -1.23336  -1.21157  -1.19752
 Alpha  occ. eigenvalues --   -1.17026  -1.15025  -1.14917  -1.14639  -1.13625
 Alpha  occ. eigenvalues --   -1.12440  -1.11927  -1.11223  -1.05847  -1.04686
 Alpha  occ. eigenvalues --   -1.03507  -1.02205  -1.00571  -0.98546  -0.97163
 Alpha  occ. eigenvalues --   -0.96896  -0.94759  -0.93609  -0.93051  -0.91796
 Alpha  occ. eigenvalues --   -0.91401  -0.90918  -0.90293  -0.88906  -0.86585
 Alpha  occ. eigenvalues --   -0.85973  -0.84649  -0.84299  -0.82898  -0.81150
 Alpha  occ. eigenvalues --   -0.80356  -0.78805  -0.78180  -0.77970  -0.77361
 Alpha  occ. eigenvalues --   -0.76314  -0.74967  -0.74329  -0.74053  -0.73602
 Alpha  occ. eigenvalues --   -0.73150  -0.73058  -0.72448  -0.71621  -0.71054
 Alpha  occ. eigenvalues --   -0.70919  -0.70156  -0.69545  -0.67878  -0.67718
 Alpha  occ. eigenvalues --   -0.67245  -0.67100  -0.66584  -0.66420  -0.65935
 Alpha  occ. eigenvalues --   -0.65559  -0.65116  -0.64405  -0.63717  -0.63592
 Alpha  occ. eigenvalues --   -0.63180  -0.62913  -0.62326  -0.62157  -0.61991
 Alpha  occ. eigenvalues --   -0.61682  -0.61386  -0.61106  -0.60566  -0.60409
 Alpha  occ. eigenvalues --   -0.60281  -0.59739  -0.58905  -0.58663  -0.58616
 Alpha  occ. eigenvalues --   -0.57833  -0.57263  -0.57109  -0.56905  -0.56383
 Alpha  occ. eigenvalues --   -0.55867  -0.55694  -0.55462  -0.55047  -0.54556
 Alpha  occ. eigenvalues --   -0.54442  -0.54091  -0.53594  -0.53194  -0.52925
 Alpha  occ. eigenvalues --   -0.52847  -0.52740  -0.52206  -0.52031  -0.51826
 Alpha  occ. eigenvalues --   -0.51407  -0.51241  -0.51081  -0.50985  -0.50590
 Alpha  occ. eigenvalues --   -0.50215  -0.49990  -0.49745  -0.49665  -0.49284
 Alpha  occ. eigenvalues --   -0.48836  -0.48767  -0.48408  -0.48220  -0.47991
 Alpha  occ. eigenvalues --   -0.47521  -0.47182  -0.46782  -0.46682  -0.46273
 Alpha  occ. eigenvalues --   -0.46128  -0.45817  -0.45788  -0.45166  -0.45022
 Alpha  occ. eigenvalues --   -0.44879  -0.44458  -0.44395  -0.44332  -0.44083
 Alpha  occ. eigenvalues --   -0.43570  -0.43356  -0.43089  -0.42770  -0.42524
 Alpha  occ. eigenvalues --   -0.42224  -0.42125  -0.42070  -0.40100  -0.38923
 Alpha  occ. eigenvalues --   -0.38702  -0.37229  -0.35959  -0.35869  -0.34444
 Alpha  occ. eigenvalues --   -0.34186  -0.33220  -0.32600  -0.32155  -0.27579
 Alpha  occ. eigenvalues --   -0.22579
 Alpha virt. eigenvalues --   -0.09220  -0.03057  -0.00887  -0.00636   0.01021
 Alpha virt. eigenvalues --    0.01851   0.02174   0.02480   0.03856   0.05195
 Alpha virt. eigenvalues --    0.05728   0.06222   0.07256   0.07479   0.07710

 Mulliken charges:
               1
     1  Mg   0.436990
     2  C   -0.030627
     3  C   -0.075259
     4  C   -0.088721
     5  C   -0.048011
     6  N   -0.286055
     7  C    0.121969
     8  C    0.007380
     9  C    0.017822
    10  C    0.149841
    11  C   -0.052717
    12  C   -0.015193
    13  C    0.017740
    14  C    0.449996
    15  O   -0.516858
    16  O   -0.282484
    17  N   -0.332959
    18  C    0.130817
    19  C    0.048420
    20  C   -0.050819
    21  C    0.148999
    22  C   -0.035582
    23  C    0.339385
    24  O   -0.517029
    25  C   -0.024281
    26  N   -0.278581
    27  C    0.143539
    28  C    0.005549
    29  C    0.005771
    30  C    0.088385
    31  C   -0.046756
    32  C   -0.022333
    33  C   -0.058542
    34  N   -0.344547
    35  C    0.076722
    36  C    0.006421
    37  C   -0.048125
    38  C    0.120303
    39  C   -0.041707
    40  C    0.325195
    41  O   -0.538226
    42  C    0.058801
    43  C    0.484710
    44  O   -0.497312
    45  O   -0.290921
    46  C    0.068464
    47  C    0.115344
    48  C   -0.082207
    49  C   -0.018925
    50  C   -0.050945
    51  C   -0.033598
    52  C   -0.029966
    53  C   -0.031335
    54  C   -0.012071
    55  C   -0.060911
    56  C   -0.035277
    57  C   -0.037039
    58  C   -0.025874
    59  C   -0.004568
    60  C   -0.058077
    61  C   -0.024344
    62  C   -0.046601
    63  C   -0.034225
    64  C    0.003202
    65  C   -0.059958
    66  C   -0.054637
    67  H    0.031763
    68  H    0.026639
    69  H    0.019782
    70  H    0.029728
    71  H    0.027138
    72  H    0.015509
    73  H    0.019552
    74  H    0.020792
    75  H    0.032849
    76  H    0.025359
    77  H    0.039842
    78  H    0.055764
    79  H    0.036232
    80  H    0.021800
    81  H    0.039361
    82  H    0.037998
    83  H    0.041745
    84  H    0.026049
    85  H    0.038856
    86  H    0.036233
    87  H    0.017638
    88  H    0.022269
    89  H    0.021622
    90  H    0.018603
    91  H    0.021366
    92  H    0.011693
    93  H    0.028716
    94  H    0.023845
    95  H    0.039091
    96  H    0.012268
    97  H    0.033336
    98  H    0.062486
    99  H    0.028492
   100  H    0.055693
   101  H    0.046167
   102  H    0.044394
   103  H    0.056191
   104  H    0.032600
   105  H    0.023204
   106  H    0.029060
   107  H    0.023007
   108  H    0.023680
   109  H    0.015678
   110  H    0.021005
   111  H    0.029578
   112  H    0.030137
   113  H    0.014300
   114  H    0.015566
   115  H    0.019901
   116  H    0.013397
   117  H    0.015240
   118  H    0.011723
   119  H    0.013610
   120  H    0.016580
   121  H    0.016381
   122  H    0.016858
   123  H    0.022997
   124  H    0.023897
   125  H    0.008542
   126  H    0.008946
   127  H    0.011350
   128  H    0.028136
   129  H    0.011423
   130  H    0.023863
   131  H    0.017784
   132  H    0.013822
   133  H    0.013913
   134  H    0.017898
   135  H    0.014352
   136  H    0.022290
   137  H    0.011785
   138  H    0.012258
   139  H    0.018181
   140  H    0.022640
 Sum of Mulliken charges =  -0.00000

 Dipole moment (field-independent basis, Debye):
    X=             -0.4708    Y=             10.4766    Z=             -1.9797  Tot=             10.6724
 N-N= 4.402242872869D+03 E-N= 0.000000000000D+00  KE=-9.478017156057D+03
 Leave Link  601 at Sat Apr 30 22:17:23 2022, MaxMem=  6710886400 cpu:               4.6 elap:               0.2
 (Enter /sw/apps/gaussian-16.0/g16/l9999.exe)
 1\1\GINC-BP1-COMPUTE176\SP\RZINDO CIS\STO-3G\C55H74Mg1N4O6\OF15641\30-
 Apr-2022\0\\#p ZINDO=(nstates=5)\\step_901_chromophore_2 ZINDO\\0,1\Mg
 ,0,3.476,1.062,44.352\C,0,6.226,3.258,43.847\C,0,1.532,3.502,42.711\C,
 0,1.157,-1.222,43.806\C,0,5.849,-1.391,45.261\N,0,3.885,3.03,43.26\C,0
 ,5.001,3.715,43.369\C,0,4.815,5.112,42.743\C,0,3.317,5.269,42.806\C,0,
 2.858,3.861,42.857\C,0,2.748,6.113,43.973\C,0,5.355,5.255,41.342\C,0,5
 .424,3.967,40.513\C,0,5.67,4.104,39.014\O,0,6.313,5.01,38.477\O,0,5.21

 Normal termination of Gaussian 16 at Sat Apr 30 22:17:24 2022.
