 Gaussian 16, Revision A.03,
 Gaussian 16:  ES64L-G16RevA.03 25-Dec-2016

 ------------------------------
 #p blyp/Def2SVP td=(nstates=5)
 ------------------------------

 --------------------------------------------------
 step_351_chromophore_11 TDDFT with blyp functional
 --------------------------------------------------
 Symbolic Z-matrix:
 Charge =  0 Multiplicity = 1

                         Standard orientation:
 ---------------------------------------------------------------------
 Center     Atomic      Atomic             Coordinates (Angstroms)
 Number     Number       Type             X           Y           Z
 ---------------------------------------------------------------------
      1         12           0       -4.835000    1.418631    0.731345
      2          6           0       -5.420604   -2.032018   -0.086004
      3          6           0       -2.802179    0.334208    3.161609
      4          6           0       -3.123269    4.379273    0.409634
      5          6           0       -6.802978    2.390736   -2.086843
      6          7           0       -4.266095   -0.586911    1.415380
      7          6           0       -4.553722   -1.859925    0.968398
      8          6           0       -4.197057   -2.915672    2.044338
      9          6           0       -3.692198   -2.052080    3.248905
     10          6           0       -3.512386   -0.696452    2.596307
     11          6           0       -4.458788   -2.089948    4.633738
     12          6           0       -3.364105   -4.180024    1.646855
     13          6           0       -2.140494   -4.037772    0.686598
     14          6           0       -0.735692   -4.485249    1.122279
     15          8           0       -0.295897   -4.245710    2.234960
     16          8           0        0.048783   -4.970494    0.022589
     17          7           0       -3.283467    2.315647    1.785208
     18          6           0       -2.585595    1.757258    2.786592
     19          6           0       -1.736055    2.731247    3.378723
     20          6           0       -1.771259    3.872328    2.590138
     21          6           0       -2.792314    3.532013    1.530083
     22          6           0       -0.898953    2.363685    4.624791
     23          6           0       -1.061733    5.169427    2.837732
     24          8           0       -0.232091    5.340463    3.704461
     25          6           0       -1.475732    6.466553    2.194166
     26          7           0       -5.018796    3.248793   -0.580846
     27          6           0       -4.178192    4.340601   -0.505656
     28          6           0       -4.734851    5.560480   -1.379349
     29          6           0       -5.910563    4.822728   -2.115391
     30          6           0       -5.868095    3.342620   -1.616625
     31          6           0       -5.118560    6.717599   -0.432071
     32          6           0       -5.727221    4.675144   -3.691574
     33          6           0       -6.924210    5.189544   -4.498255
     34          7           0       -6.007680    0.471654   -0.737327
     35          6           0       -6.841488    1.001106   -1.693479
     36          6           0       -7.535789   -0.213076   -2.244556
     37          6           0       -6.971663   -1.385040   -1.634714
     38          6           0       -6.025318   -0.966755   -0.821995
     39          6           0       -8.653265   -0.283818   -3.206015
     40          6           0       -7.100787   -2.827880   -1.644442
     41          8           0       -7.885826   -3.583559   -2.216953
     42          6           0       -6.096188   -3.362574   -0.622802
     43          6           0       -5.125736   -4.143709   -1.396493
     44          8           0       -4.127931   -3.716422   -1.989800
     45          8           0       -5.511822   -5.485136   -1.353730
     46          6           0       -4.580494   -6.336720   -2.096823
     47          6           0        1.409997   -5.253538    0.420909
     48          6           0        2.474461   -4.437373   -0.420970
     49          6           0        3.649838   -3.955117   -0.022518
     50          6           0        4.414648   -4.488662    1.187708
     51          6           0        4.481990   -3.035845   -0.940226
     52          6           0        5.242179   -1.922968   -0.238128
     53          6           0        5.508564   -0.906102   -1.322338
     54          6           0        6.622307    0.149765   -1.042748
     55          6           0        6.357688    1.416156   -1.964043
     56          6           0        8.001468   -0.426021   -1.226664
     57          6           0        8.997929   -0.484277   -0.000265
     58          6           0        9.775972    0.790789    0.316825
     59          6           0       11.196837    0.367757    0.685496
     60          6           0       11.153501    0.136877    2.207005
     61          6           0       12.141823    1.581834    0.325315
     62          6           0       12.743174    1.368743   -1.066175
     63          6           0       14.131759    0.542519   -1.243699
     64          6           0       15.422321    1.415773   -1.436658
     65          6           0       15.407967    1.855444   -2.920810
     66          6           0       16.605831    0.541728   -1.214067
     67          1           0       -2.232557    0.093619    4.062436
     68          1           0       -2.646936    5.352195    0.277848
     69          1           0       -7.529318    2.669901   -2.852817
     70          1           0       -5.076575   -3.430766    2.429686
     71          1           0       -2.697056   -2.370873    3.559190
     72          1           0       -4.838217   -1.083310    4.810482
     73          1           0       -3.807408   -2.489587    5.410858
     74          1           0       -5.410026   -2.603320    4.491482
     75          1           0       -3.955557   -4.963492    1.174946
     76          1           0       -2.976089   -4.724651    2.507801
     77          1           0       -2.232764   -2.970481    0.489063
     78          1           0       -2.354177   -4.546657   -0.252828
     79          1           0       -1.426037    1.610076    5.209611
     80          1           0       -0.787897    3.187590    5.328705
     81          1           0       -0.002362    1.870172    4.251390
     82          1           0       -1.122038    6.591175    1.170847
     83          1           0       -1.115510    7.347863    2.726252
     84          1           0       -2.564714    6.502714    2.206332
     85          1           0       -4.001568    5.964084   -2.077744
     86          1           0       -6.871629    5.311744   -1.956652
     87          1           0       -5.255449    7.618316   -1.031062
     88          1           0       -4.389097    6.843563    0.368683
     89          1           0       -6.055773    6.456139    0.059102
     90          1           0       -5.528212    3.657249   -4.025806
     91          1           0       -4.902426    5.281486   -4.065080
     92          1           0       -7.828919    5.324274   -3.906066
     93          1           0       -7.094277    4.494119   -5.319869
     94          1           0       -6.730825    6.122685   -5.028943
     95          1           0       -9.407484    0.433885   -2.882839
     96          1           0       -9.055155   -1.290184   -3.323902
     97          1           0       -8.415691    0.070670   -4.209175
     98          1           0       -6.606880   -3.960611    0.132295
     99          1           0       -5.103014   -7.221419   -2.462217
    100          1           0       -3.908394   -6.928092   -1.473727
    101          1           0       -4.343277   -5.943941   -3.085160
    102          1           0        1.607102   -6.293995    0.166096
    103          1           0        1.668364   -5.215768    1.479350
    104          1           0        2.089696   -4.111412   -1.387498
    105          1           0        5.476972   -4.423449    0.952023
    106          1           0        4.217875   -5.536230    1.412599
    107          1           0        4.191328   -3.781865    1.987533
    108          1           0        3.950432   -2.855810   -1.874970
    109          1           0        5.194509   -3.762528   -1.330666
    110          1           0        6.164722   -2.156056    0.292450
    111          1           0        4.529193   -1.706516    0.558229
    112          1           0        4.629211   -0.271233   -1.433154
    113          1           0        5.667913   -1.384022   -2.288371
    114          1           0        6.484884    0.448776   -0.003089
    115          1           0        6.820338    2.254674   -1.444906
    116          1           0        5.307080    1.703748   -1.943494
    117          1           0        6.613215    1.288903   -3.016418
    118          1           0        8.470117    0.094587   -2.061854
    119          1           0        7.929385   -1.460527   -1.562772
    120          1           0        9.551254   -1.413151   -0.138383
    121          1           0        8.277253   -0.615094    0.807380
    122          1           0        9.349790    1.308297    1.176523
    123          1           0        9.797990    1.559094   -0.456366
    124          1           0       11.541056   -0.539931    0.190835
    125          1           0       11.198306    1.050170    2.800725
    126          1           0       12.021928   -0.500188    2.375107
    127          1           0       10.200022   -0.358917    2.391753
    128          1           0       12.906702    1.618130    1.100237
    129          1           0       11.644840    2.551026    0.284948
    130          1           0       12.763450    2.358679   -1.521747
    131          1           0       11.962420    0.746803   -1.503989
    132          1           0       14.125540   -0.108512   -2.118228
    133          1           0       14.395578    0.001535   -0.334104
    134          1           0       15.369239    2.282361   -0.777740
    135          1           0       14.485634    1.678443   -3.473749
    136          1           0       16.106448    1.229275   -3.476589
    137          1           0       15.583211    2.926773   -3.017960
    138          1           0       16.826807    0.592183   -0.148412
    139          1           0       17.531967    0.912561   -1.654163
    140          1           0       16.375769   -0.479860   -1.516044
 ---------------------------------------------------------------------

 SCF Done:  E(RB-LYP) =  -3007.31498233     A.U. after   21 cycles

 Excitation energies and oscillator strengths:

 Excited State   1:      Singlet-A      1.5822 eV  783.61 nm  f=0.0002  <S**2>=0.000
     244 -> 247        0.69858
     245 -> 247        0.10786
 This state for optimization and/or second-order correction.
 Total Energy, E(TD-HF/TD-DFT) =  -3007.25683682
 Copying the excited state density for this state as the 1-particle RhoCI density.

 Excited State   2:      Singlet-A      1.7469 eV  709.75 nm  f=0.2875  <S**2>=0.000
     245 -> 248        0.16991
     246 -> 247        0.69567
     246 <- 247       -0.16311

 Excited State   3:      Singlet-A      1.9215 eV  645.24 nm  f=0.0002  <S**2>=0.000
     243 -> 247        0.70698

 Excited State   4:      Singlet-A      2.0067 eV  617.85 nm  f=0.0762  <S**2>=0.000
     241 -> 247        0.18274
     242 -> 247        0.16939
     245 -> 247        0.60949
     246 -> 248       -0.19100
     246 -> 249        0.11878

 Excited State   5:      Singlet-A      2.0817 eV  595.59 nm  f=0.0126  <S**2>=0.000
     241 -> 247        0.16845
     242 -> 247        0.65070
     245 -> 247       -0.18713

 The electronic state is 1-A.
 Alpha  occ. eigenvalues --  -46.28182 -18.82653 -18.81996 -18.77346 -18.77311
 Alpha  occ. eigenvalues --  -18.76538 -18.74887 -14.03391 -14.03376 -14.01745
 Alpha  occ. eigenvalues --  -14.01183 -10.04410 -10.04249 -10.00470  -9.99383
 Alpha  occ. eigenvalues --   -9.97402  -9.97208  -9.97029  -9.96935  -9.96933
 Alpha  occ. eigenvalues --   -9.96803  -9.96698  -9.96544  -9.95726  -9.95049
 Alpha  occ. eigenvalues --   -9.94812  -9.94791  -9.94784  -9.94468  -9.94305
 Alpha  occ. eigenvalues --   -9.94269  -9.93951  -9.93879  -9.93344  -9.93285
 Alpha  occ. eigenvalues --   -9.93252  -9.93180  -9.93135  -9.93003  -9.92740
 Alpha  occ. eigenvalues --   -9.92629  -9.92626  -9.92007  -9.91889  -9.91876
 Alpha  occ. eigenvalues --   -9.91852  -9.91780  -9.91520  -9.91450  -9.91405
 Alpha  occ. eigenvalues --   -9.91384  -9.91352  -9.91350  -9.91197  -9.91092
 Alpha  occ. eigenvalues --   -9.91048  -9.90991  -9.90743  -9.90720  -9.90660
 Alpha  occ. eigenvalues --   -9.90566  -9.90543  -9.90455  -9.90414  -9.90364
 Alpha  occ. eigenvalues --   -9.90046  -2.92655  -1.73067  -1.72540  -1.72367
 Alpha  occ. eigenvalues --   -0.97398  -0.96484  -0.91811  -0.91792  -0.89885
 Alpha  occ. eigenvalues --   -0.89720  -0.87238  -0.85789  -0.85348  -0.84272
 Alpha  occ. eigenvalues --   -0.76273  -0.73459  -0.72862  -0.72142  -0.72056
 Alpha  occ. eigenvalues --   -0.71716  -0.71701  -0.71082  -0.70942  -0.69928
 Alpha  occ. eigenvalues --   -0.69140  -0.68802  -0.68096  -0.67776  -0.67293
 Alpha  occ. eigenvalues --   -0.66185  -0.65962  -0.65026  -0.64586  -0.64105
 Alpha  occ. eigenvalues --   -0.63510  -0.62179  -0.62115  -0.61813  -0.61221
 Alpha  occ. eigenvalues --   -0.59888  -0.59830  -0.59823  -0.59126  -0.58652
 Alpha  occ. eigenvalues --   -0.57996  -0.57240  -0.56721  -0.55695  -0.54385
 Alpha  occ. eigenvalues --   -0.53933  -0.53485  -0.53186  -0.52186  -0.51586
 Alpha  occ. eigenvalues --   -0.51167  -0.51094  -0.50872  -0.50677  -0.49775
 Alpha  occ. eigenvalues --   -0.48991  -0.48650  -0.48555  -0.48155  -0.46474
 Alpha  occ. eigenvalues --   -0.46020  -0.45903  -0.45435  -0.45238  -0.44910
 Alpha  occ. eigenvalues --   -0.44361  -0.43722  -0.43315  -0.43084  -0.42422
 Alpha  occ. eigenvalues --   -0.41905  -0.41655  -0.41355  -0.41053  -0.41022
 Alpha  occ. eigenvalues --   -0.40610  -0.40485  -0.40218  -0.40105  -0.39728
 Alpha  occ. eigenvalues --   -0.39553  -0.39468  -0.39309  -0.39163  -0.39059
 Alpha  occ. eigenvalues --   -0.38900  -0.38642  -0.38547  -0.38344  -0.37871
 Alpha  occ. eigenvalues --   -0.37801  -0.37698  -0.37553  -0.37373  -0.37168
 Alpha  occ. eigenvalues --   -0.37105  -0.36910  -0.36691  -0.36574  -0.36258
 Alpha  occ. eigenvalues --   -0.36060  -0.35910  -0.35746  -0.35543  -0.35484
 Alpha  occ. eigenvalues --   -0.35413  -0.35088  -0.34848  -0.34802  -0.34722
 Alpha  occ. eigenvalues --   -0.34483  -0.34210  -0.34129  -0.33942  -0.33860
 Alpha  occ. eigenvalues --   -0.33780  -0.33692  -0.33648  -0.33029  -0.32976
 Alpha  occ. eigenvalues --   -0.32905  -0.32623  -0.32465  -0.32361  -0.32246
 Alpha  occ. eigenvalues --   -0.32007  -0.31817  -0.31579  -0.31257  -0.31151
 Alpha  occ. eigenvalues --   -0.30986  -0.30973  -0.30788  -0.30608  -0.30532
 Alpha  occ. eigenvalues --   -0.30294  -0.30213  -0.30156  -0.29956  -0.29637
 Alpha  occ. eigenvalues --   -0.29515  -0.29129  -0.29113  -0.29064  -0.28777
 Alpha  occ. eigenvalues --   -0.28646  -0.28113  -0.27995  -0.27980  -0.27688
 Alpha  occ. eigenvalues --   -0.27455  -0.27273  -0.26940  -0.26669  -0.26455
 Alpha  occ. eigenvalues --   -0.26213  -0.25921  -0.25915  -0.25310  -0.25196
 Alpha  occ. eigenvalues --   -0.25133  -0.24186  -0.24163  -0.23762  -0.23243
 Alpha  occ. eigenvalues --   -0.22989  -0.22521  -0.22352  -0.22068  -0.21141
 Alpha  occ. eigenvalues --   -0.19858  -0.19639  -0.19190  -0.17890  -0.17600
 Alpha  occ. eigenvalues --   -0.16110
 Alpha virt. eigenvalues --   -0.12129  -0.07175  -0.06817  -0.04980  -0.04156
 Alpha virt. eigenvalues --   -0.03557  -0.03052  -0.02012  -0.00880  -0.00355
 Alpha virt. eigenvalues --    0.00654   0.01904   0.02403   0.03071   0.03187

 Mulliken charges:
               1
     1  Mg   0.701313
     2  C   -0.078227
     3  C   -0.034260
     4  C   -0.020222
     5  C   -0.056025
     6  N   -0.251869
     7  C   -0.012614
     8  C    0.044346
     9  C    0.002226
    10  C    0.041987
    11  C    0.147704
    12  C    0.069742
    13  C    0.085458
    14  C    0.109894
    15  O   -0.181270
    16  O   -0.277621
    17  N   -0.243378
    18  C    0.064604
    19  C   -0.131997
    20  C    0.030612
    21  C    0.115024
    22  C    0.186694
    23  C   -0.087573
    24  O   -0.152968
    25  C    0.108409
    26  N   -0.194169
    27  C   -0.060468
    28  C    0.056834
    29  C    0.004058
    30  C    0.071809
    31  C    0.118846
    32  C    0.064357
    33  C    0.047766
    34  N   -0.322840
    35  C    0.114052
    36  C   -0.180585
    37  C    0.106273
    38  C    0.161058
    39  C    0.161289
    40  C   -0.070547
    41  O   -0.131961
    42  C    0.117667
    43  C    0.140988
    44  O   -0.190046
    45  O   -0.274827
    46  C    0.227482
    47  C    0.302115
    48  C   -0.124383
    49  C   -0.145109
    50  C    0.148209
    51  C    0.106422
    52  C    0.113905
    53  C    0.077885
    54  C   -0.062085
    55  C    0.098099
    56  C    0.122459
    57  C    0.062200
    58  C    0.127249
    59  C   -0.134100
    60  C    0.123375
    61  C    0.115543
    62  C    0.078535
    63  C    0.081779
    64  C   -0.110653
    65  C    0.105491
    66  C    0.134890
    67  H   -0.066850
    68  H   -0.076535
    69  H   -0.053118
    70  H   -0.028201
    71  H   -0.018474
    72  H   -0.016094
    73  H    0.018126
    74  H   -0.020876
    75  H   -0.021932
    76  H   -0.023657
    77  H    0.026443
    78  H    0.000899
    79  H   -0.022798
    80  H    0.008933
    81  H    0.013036
    82  H    0.016069
    83  H   -0.011284
    84  H    0.003081
    85  H   -0.022372
    86  H   -0.014948
    87  H   -0.000338
    88  H   -0.003116
    89  H   -0.014610
    90  H    0.000297
    91  H   -0.026877
    92  H   -0.006756
    93  H   -0.014618
    94  H   -0.013152
    95  H   -0.011569
    96  H    0.009668
    97  H   -0.010055
    98  H    0.008658
    99  H   -0.020963
   100  H    0.017839
   101  H    0.028461
   102  H   -0.019466
   103  H   -0.000765
   104  H   -0.040488
   105  H   -0.014530
   106  H    0.001318
   107  H    0.008058
   108  H   -0.034427
   109  H   -0.029867
   110  H   -0.028422
   111  H   -0.027271
   112  H   -0.037018
   113  H   -0.025746
   114  H   -0.046559
   115  H   -0.017074
   116  H   -0.029907
   117  H   -0.002501
   118  H   -0.043700
   119  H   -0.049687
   120  H   -0.021203
   121  H   -0.026804
   122  H   -0.038764
   123  H   -0.032629
   124  H   -0.024092
   125  H   -0.009753
   126  H   -0.019756
   127  H   -0.021887
   128  H   -0.049856
   129  H   -0.034579
   130  H   -0.032382
   131  H   -0.030222
   132  H   -0.026306
   133  H   -0.036231
   134  H   -0.033643
   135  H   -0.024421
   136  H   -0.028480
   137  H   -0.015065
   138  H   -0.025436
   139  H   -0.020102
   140  H   -0.011503
 Sum of Mulliken charges =  -0.00000

 Dipole moment (field-independent basis, Debye):
    X=             -1.9300    Y=              1.4406    Z=             -0.1404  Tot=              2.4125
 Quadrupole moment (field-independent basis, Debye-Ang):
   XX=           -396.9173   YY=           -385.5860   ZZ=           -409.2432
   XY=            -35.2726   XZ=            -14.8550   YZ=            -24.6258

 Normal termination of Gaussian 16 at Fri Apr 29 14:40:19 2022.
