 Gaussian 16, Revision A.03,
 Gaussian 16:  ES64L-G16RevA.03 25-Dec-2016

 -----------------------------------
 #p cam-b3lyp/Def2SVP td=(nstates=5)
 -----------------------------------

 -------------------------------------------------------
 step_351_chromophore_11 TDDFT with cam-b3lyp functional
 -------------------------------------------------------
 Symbolic Z-matrix:
 Charge =  0 Multiplicity = 1

                         Standard orientation:
 ---------------------------------------------------------------------
 Center     Atomic      Atomic             Coordinates (Angstroms)
 Number     Number       Type             X           Y           Z
 ---------------------------------------------------------------------
      1         12           0       -4.835000    1.418631    0.731345
      2          6           0       -5.420604   -2.032018   -0.086004
      3          6           0       -2.802179    0.334208    3.161609
      4          6           0       -3.123269    4.379273    0.409634
      5          6           0       -6.802978    2.390736   -2.086843
      6          7           0       -4.266095   -0.586911    1.415380
      7          6           0       -4.553722   -1.859925    0.968398
      8          6           0       -4.197057   -2.915672    2.044338
      9          6           0       -3.692198   -2.052080    3.248905
     10          6           0       -3.512386   -0.696452    2.596307
     11          6           0       -4.458788   -2.089948    4.633738
     12          6           0       -3.364105   -4.180024    1.646855
     13          6           0       -2.140494   -4.037772    0.686598
     14          6           0       -0.735692   -4.485249    1.122279
     15          8           0       -0.295897   -4.245710    2.234960
     16          8           0        0.048783   -4.970494    0.022589
     17          7           0       -3.283467    2.315647    1.785208
     18          6           0       -2.585595    1.757258    2.786592
     19          6           0       -1.736055    2.731247    3.378723
     20          6           0       -1.771259    3.872328    2.590138
     21          6           0       -2.792314    3.532013    1.530083
     22          6           0       -0.898953    2.363685    4.624791
     23          6           0       -1.061733    5.169427    2.837732
     24          8           0       -0.232091    5.340463    3.704461
     25          6           0       -1.475732    6.466553    2.194166
     26          7           0       -5.018796    3.248793   -0.580846
     27          6           0       -4.178192    4.340601   -0.505656
     28          6           0       -4.734851    5.560480   -1.379349
     29          6           0       -5.910563    4.822728   -2.115391
     30          6           0       -5.868095    3.342620   -1.616625
     31          6           0       -5.118560    6.717599   -0.432071
     32          6           0       -5.727221    4.675144   -3.691574
     33          6           0       -6.924210    5.189544   -4.498255
     34          7           0       -6.007680    0.471654   -0.737327
     35          6           0       -6.841488    1.001106   -1.693479
     36          6           0       -7.535789   -0.213076   -2.244556
     37          6           0       -6.971663   -1.385040   -1.634714
     38          6           0       -6.025318   -0.966755   -0.821995
     39          6           0       -8.653265   -0.283818   -3.206015
     40          6           0       -7.100787   -2.827880   -1.644442
     41          8           0       -7.885826   -3.583559   -2.216953
     42          6           0       -6.096188   -3.362574   -0.622802
     43          6           0       -5.125736   -4.143709   -1.396493
     44          8           0       -4.127931   -3.716422   -1.989800
     45          8           0       -5.511822   -5.485136   -1.353730
     46          6           0       -4.580494   -6.336720   -2.096823
     47          6           0        1.409997   -5.253538    0.420909
     48          6           0        2.474461   -4.437373   -0.420970
     49          6           0        3.649838   -3.955117   -0.022518
     50          6           0        4.414648   -4.488662    1.187708
     51          6           0        4.481990   -3.035845   -0.940226
     52          6           0        5.242179   -1.922968   -0.238128
     53          6           0        5.508564   -0.906102   -1.322338
     54          6           0        6.622307    0.149765   -1.042748
     55          6           0        6.357688    1.416156   -1.964043
     56          6           0        8.001468   -0.426021   -1.226664
     57          6           0        8.997929   -0.484277   -0.000265
     58          6           0        9.775972    0.790789    0.316825
     59          6           0       11.196837    0.367757    0.685496
     60          6           0       11.153501    0.136877    2.207005
     61          6           0       12.141823    1.581834    0.325315
     62          6           0       12.743174    1.368743   -1.066175
     63          6           0       14.131759    0.542519   -1.243699
     64          6           0       15.422321    1.415773   -1.436658
     65          6           0       15.407967    1.855444   -2.920810
     66          6           0       16.605831    0.541728   -1.214067
     67          1           0       -2.232557    0.093619    4.062436
     68          1           0       -2.646936    5.352195    0.277848
     69          1           0       -7.529318    2.669901   -2.852817
     70          1           0       -5.076575   -3.430766    2.429686
     71          1           0       -2.697056   -2.370873    3.559190
     72          1           0       -4.838217   -1.083310    4.810482
     73          1           0       -3.807408   -2.489587    5.410858
     74          1           0       -5.410026   -2.603320    4.491482
     75          1           0       -3.955557   -4.963492    1.174946
     76          1           0       -2.976089   -4.724651    2.507801
     77          1           0       -2.232764   -2.970481    0.489063
     78          1           0       -2.354177   -4.546657   -0.252828
     79          1           0       -1.426037    1.610076    5.209611
     80          1           0       -0.787897    3.187590    5.328705
     81          1           0       -0.002362    1.870172    4.251390
     82          1           0       -1.122038    6.591175    1.170847
     83          1           0       -1.115510    7.347863    2.726252
     84          1           0       -2.564714    6.502714    2.206332
     85          1           0       -4.001568    5.964084   -2.077744
     86          1           0       -6.871629    5.311744   -1.956652
     87          1           0       -5.255449    7.618316   -1.031062
     88          1           0       -4.389097    6.843563    0.368683
     89          1           0       -6.055773    6.456139    0.059102
     90          1           0       -5.528212    3.657249   -4.025806
     91          1           0       -4.902426    5.281486   -4.065080
     92          1           0       -7.828919    5.324274   -3.906066
     93          1           0       -7.094277    4.494119   -5.319869
     94          1           0       -6.730825    6.122685   -5.028943
     95          1           0       -9.407484    0.433885   -2.882839
     96          1           0       -9.055155   -1.290184   -3.323902
     97          1           0       -8.415691    0.070670   -4.209175
     98          1           0       -6.606880   -3.960611    0.132295
     99          1           0       -5.103014   -7.221419   -2.462217
    100          1           0       -3.908394   -6.928092   -1.473727
    101          1           0       -4.343277   -5.943941   -3.085160
    102          1           0        1.607102   -6.293995    0.166096
    103          1           0        1.668364   -5.215768    1.479350
    104          1           0        2.089696   -4.111412   -1.387498
    105          1           0        5.476972   -4.423449    0.952023
    106          1           0        4.217875   -5.536230    1.412599
    107          1           0        4.191328   -3.781865    1.987533
    108          1           0        3.950432   -2.855810   -1.874970
    109          1           0        5.194509   -3.762528   -1.330666
    110          1           0        6.164722   -2.156056    0.292450
    111          1           0        4.529193   -1.706516    0.558229
    112          1           0        4.629211   -0.271233   -1.433154
    113          1           0        5.667913   -1.384022   -2.288371
    114          1           0        6.484884    0.448776   -0.003089
    115          1           0        6.820338    2.254674   -1.444906
    116          1           0        5.307080    1.703748   -1.943494
    117          1           0        6.613215    1.288903   -3.016418
    118          1           0        8.470117    0.094587   -2.061854
    119          1           0        7.929385   -1.460527   -1.562772
    120          1           0        9.551254   -1.413151   -0.138383
    121          1           0        8.277253   -0.615094    0.807380
    122          1           0        9.349790    1.308297    1.176523
    123          1           0        9.797990    1.559094   -0.456366
    124          1           0       11.541056   -0.539931    0.190835
    125          1           0       11.198306    1.050170    2.800725
    126          1           0       12.021928   -0.500188    2.375107
    127          1           0       10.200022   -0.358917    2.391753
    128          1           0       12.906702    1.618130    1.100237
    129          1           0       11.644840    2.551026    0.284948
    130          1           0       12.763450    2.358679   -1.521747
    131          1           0       11.962420    0.746803   -1.503989
    132          1           0       14.125540   -0.108512   -2.118228
    133          1           0       14.395578    0.001535   -0.334104
    134          1           0       15.369239    2.282361   -0.777740
    135          1           0       14.485634    1.678443   -3.473749
    136          1           0       16.106448    1.229275   -3.476589
    137          1           0       15.583211    2.926773   -3.017960
    138          1           0       16.826807    0.592183   -0.148412
    139          1           0       17.531967    0.912561   -1.654163
    140          1           0       16.375769   -0.479860   -1.516044
 ---------------------------------------------------------------------

 SCF Done:  E(RCAM-B3LYP) =  -3007.09587384     A.U. after   19 cycles

 Excitation energies and oscillator strengths:

 Excited State   1:      Singlet-A      1.6273 eV  761.89 nm  f=0.3671  <S**2>=0.000
     245 -> 248       -0.16709
     246 -> 247        0.68874
     245 <- 248       -0.10699
 This state for optimization and/or second-order correction.
 Total Energy, E(TD-HF/TD-DFT) =  -3007.03607068
 Copying the excited state density for this state as the 1-particle RhoCI density.

 Excited State   2:      Singlet-A      2.1824 eV  568.10 nm  f=0.1450  <S**2>=0.000
     245 -> 247        0.65097
     246 -> 248        0.25854

 Excited State   3:      Singlet-A      2.9845 eV  415.42 nm  f=0.0063  <S**2>=0.000
     243 -> 247        0.68573

 Excited State   4:      Singlet-A      3.4393 eV  360.49 nm  f=0.0021  <S**2>=0.000
     241 -> 247       -0.24420
     242 -> 247        0.54875
     242 -> 248        0.14615
     242 -> 249        0.12578
     242 -> 251       -0.26031

 Excited State   5:      Singlet-A      3.5174 eV  352.49 nm  f=0.0534  <S**2>=0.000
     241 -> 247        0.57051
     242 -> 247        0.15481
     242 -> 248        0.10103
     242 -> 251       -0.18627
     246 -> 248        0.26257

 The electronic state is 1-A.
 Alpha  occ. eigenvalues --  -46.89781 -19.25744 -19.24865 -19.20613 -19.20443
 Alpha  occ. eigenvalues --  -19.19912 -19.17964 -14.42305 -14.42255 -14.40228
 Alpha  occ. eigenvalues --  -14.39565 -10.40112 -10.39742 -10.35935 -10.34354
 Alpha  occ. eigenvalues --  -10.31750 -10.31575 -10.31432 -10.31418 -10.31173
 Alpha  occ. eigenvalues --  -10.31151 -10.31037 -10.30882 -10.29849 -10.29274
 Alpha  occ. eigenvalues --  -10.29261 -10.29098 -10.28977 -10.28916 -10.28632
 Alpha  occ. eigenvalues --  -10.28509 -10.28053 -10.27886 -10.27664 -10.27413
 Alpha  occ. eigenvalues --  -10.27336 -10.27274 -10.26817 -10.26812 -10.26753
 Alpha  occ. eigenvalues --  -10.26733 -10.26410 -10.25966 -10.25711 -10.25637
 Alpha  occ. eigenvalues --  -10.25519 -10.25404 -10.25326 -10.25204 -10.25160
 Alpha  occ. eigenvalues --  -10.25093 -10.25081 -10.25003 -10.24996 -10.24884
 Alpha  occ. eigenvalues --  -10.24781 -10.24690 -10.24642 -10.24333 -10.24273
 Alpha  occ. eigenvalues --  -10.24215 -10.24146 -10.24027 -10.23992 -10.23924
 Alpha  occ. eigenvalues --  -10.23606  -3.18147  -1.93038  -1.92591  -1.92448
 Alpha  occ. eigenvalues --   -1.16067  -1.14952  -1.10358  -1.10100  -1.07795
 Alpha  occ. eigenvalues --   -1.07758  -1.04833  -1.03452  -1.03040  -1.01822
 Alpha  occ. eigenvalues --   -0.93501  -0.90298  -0.89654  -0.88889  -0.88751
 Alpha  occ. eigenvalues --   -0.88388  -0.88338  -0.87701  -0.87552  -0.86443
 Alpha  occ. eigenvalues --   -0.85637  -0.85199  -0.84396  -0.84003  -0.83474
 Alpha  occ. eigenvalues --   -0.82244  -0.82021  -0.80893  -0.80548  -0.79902
 Alpha  occ. eigenvalues --   -0.79239  -0.77738  -0.77712  -0.77349  -0.76682
 Alpha  occ. eigenvalues --   -0.75168  -0.75138  -0.75069  -0.74374  -0.73870
 Alpha  occ. eigenvalues --   -0.73088  -0.72242  -0.71563  -0.70511  -0.69095
 Alpha  occ. eigenvalues --   -0.68481  -0.68008  -0.67699  -0.66501  -0.65743
 Alpha  occ. eigenvalues --   -0.65354  -0.65172  -0.64958  -0.64677  -0.63814
 Alpha  occ. eigenvalues --   -0.62817  -0.62489  -0.62328  -0.61988  -0.60193
 Alpha  occ. eigenvalues --   -0.59675  -0.59342  -0.59051  -0.58752  -0.58289
 Alpha  occ. eigenvalues --   -0.57755  -0.57062  -0.56532  -0.56254  -0.55593
 Alpha  occ. eigenvalues --   -0.55043  -0.54770  -0.54406  -0.54102  -0.53764
 Alpha  occ. eigenvalues --   -0.53618  -0.53304  -0.52906  -0.52856  -0.52494
 Alpha  occ. eigenvalues --   -0.52215  -0.52114  -0.51961  -0.51803  -0.51543
 Alpha  occ. eigenvalues --   -0.51392  -0.51293  -0.51002  -0.50863  -0.50433
 Alpha  occ. eigenvalues --   -0.50194  -0.50096  -0.50009  -0.49650  -0.49471
 Alpha  occ. eigenvalues --   -0.49390  -0.49319  -0.48977  -0.48724  -0.48688
 Alpha  occ. eigenvalues --   -0.48632  -0.48201  -0.48077  -0.47767  -0.47503
 Alpha  occ. eigenvalues --   -0.47374  -0.47048  -0.46927  -0.46752  -0.46583
 Alpha  occ. eigenvalues --   -0.46197  -0.46194  -0.45981  -0.45854  -0.45765
 Alpha  occ. eigenvalues --   -0.45541  -0.45471  -0.45361  -0.45044  -0.44705
 Alpha  occ. eigenvalues --   -0.44497  -0.44125  -0.44054  -0.44022  -0.43886
 Alpha  occ. eigenvalues --   -0.43698  -0.43511  -0.43176  -0.42896  -0.42671
 Alpha  occ. eigenvalues --   -0.42449  -0.42351  -0.42095  -0.41980  -0.41858
 Alpha  occ. eigenvalues --   -0.41730  -0.41516  -0.41465  -0.41290  -0.41184
 Alpha  occ. eigenvalues --   -0.40793  -0.40618  -0.40272  -0.40168  -0.39777
 Alpha  occ. eigenvalues --   -0.39755  -0.39119  -0.39016  -0.38920  -0.38736
 Alpha  occ. eigenvalues --   -0.38333  -0.38041  -0.37779  -0.37724  -0.37193
 Alpha  occ. eigenvalues --   -0.37078  -0.36921  -0.36802  -0.36601  -0.36152
 Alpha  occ. eigenvalues --   -0.35795  -0.35087  -0.34751  -0.34497  -0.34400
 Alpha  occ. eigenvalues --   -0.34126  -0.33294  -0.33171  -0.31894  -0.31679
 Alpha  occ. eigenvalues --   -0.30572  -0.30122  -0.28961  -0.28816  -0.24321
 Alpha  occ. eigenvalues --   -0.21513
 Alpha virt. eigenvalues --   -0.09438  -0.01877  -0.00285   0.01046   0.02001
 Alpha virt. eigenvalues --    0.03944   0.04504   0.05360   0.06528   0.06864
 Alpha virt. eigenvalues --    0.07585   0.08504   0.08572   0.09168   0.09510

 Mulliken charges:
               1
     1  Mg   0.829718
     2  C   -0.098975
     3  C   -0.047245
     4  C   -0.043424
     5  C   -0.066010
     6  N   -0.320026
     7  C    0.019310
     8  C   -0.006378
     9  C   -0.049055
    10  C    0.054075
    11  C    0.087773
    12  C    0.021513
    13  C    0.017175
    14  C    0.194123
    15  O   -0.221037
    16  O   -0.343440
    17  N   -0.329824
    18  C    0.069100
    19  C   -0.138809
    20  C   -0.042338
    21  C    0.142325
    22  C    0.135161
    23  C   -0.007312
    24  O   -0.192619
    25  C    0.025010
    26  N   -0.262502
    27  C   -0.037720
    28  C    0.006294
    29  C   -0.052865
    30  C    0.091753
    31  C    0.065997
    32  C    0.007566
    33  C   -0.013318
    34  N   -0.408450
    35  C    0.127138
    36  C   -0.170688
    37  C    0.016516
    38  C    0.202178
    39  C    0.102076
    40  C    0.026948
    41  O   -0.168489
    42  C    0.040238
    43  C    0.225994
    44  O   -0.224568
    45  O   -0.336146
    46  C    0.183430
    47  C    0.268084
    48  C   -0.146669
    49  C   -0.158858
    50  C    0.077853
    51  C    0.044199
    52  C    0.060168
    53  C    0.023515
    54  C   -0.122118
    55  C    0.042350
    56  C    0.069164
    57  C    0.009801
    58  C    0.071124
    59  C   -0.191508
    60  C    0.066747
    61  C    0.063670
    62  C    0.025699
    63  C    0.028747
    64  C   -0.164366
    65  C    0.041291
    66  C    0.066685
    67  H   -0.031474
    68  H   -0.041244
    69  H   -0.017816
    70  H    0.007842
    71  H    0.017633
    72  H    0.010678
    73  H    0.041193
    74  H    0.003991
    75  H    0.006027
    76  H    0.011004
    77  H    0.057278
    78  H    0.033395
    79  H    0.001640
    80  H    0.037214
    81  H    0.039424
    82  H    0.042026
    83  H    0.024299
    84  H    0.027679
    85  H    0.011744
    86  H    0.019103
    87  H    0.024124
    88  H    0.017415
    89  H    0.009885
    90  H    0.030544
    91  H    0.002596
    92  H    0.014083
    93  H    0.009902
    94  H    0.011676
    95  H    0.013682
    96  H    0.038979
    97  H    0.016995
    98  H    0.052643
    99  H    0.004485
   100  H    0.038750
   101  H    0.054993
   102  H    0.008153
   103  H    0.031935
   104  H   -0.005857
   105  H    0.011670
   106  H    0.025751
   107  H    0.032772
   108  H   -0.001833
   109  H   -0.000631
   110  H   -0.003110
   111  H    0.002077
   112  H   -0.006982
   113  H    0.001666
   114  H   -0.013685
   115  H    0.007282
   116  H   -0.004348
   117  H    0.020331
   118  H   -0.014832
   119  H   -0.018918
   120  H    0.006909
   121  H   -0.002815
   122  H   -0.008214
   123  H   -0.005600
   124  H    0.006134
   125  H    0.014353
   126  H    0.004711
   127  H    0.001966
   128  H   -0.020735
   129  H   -0.004735
   130  H   -0.004334
   131  H   -0.003909
   132  H    0.001092
   133  H   -0.008911
   134  H   -0.002729
   135  H    0.000094
   136  H   -0.002419
   137  H    0.009512
   138  H    0.000353
   139  H    0.006803
   140  H    0.012894
 Sum of Mulliken charges =  -0.00000

 Dipole moment (field-independent basis, Debye):
    X=             -2.2196    Y=              1.4783    Z=             -0.2583  Tot=              2.6793
 Quadrupole moment (field-independent basis, Debye-Ang):
   XX=           -395.4689   YY=           -380.8081   ZZ=           -408.1843
   XY=            -35.8447   XZ=            -14.1107   YZ=            -25.8995

 Normal termination of Gaussian 16 at Fri Apr 29 13:41:59 2022.
