 Gaussian 16, Revision A.03,
 Gaussian 16:  ES64L-G16RevA.03 25-Dec-2016

 ---------------------------------
 #p PBE1PBE/Def2SVP td=(nstates=5)
 ---------------------------------

 -----------------------------------------------------
 step_351_chromophore_11 TDDFT with PBE1PBE functional
 -----------------------------------------------------
 Symbolic Z-matrix:
 Charge =  0 Multiplicity = 1

                         Standard orientation:
 ---------------------------------------------------------------------
 Center     Atomic      Atomic             Coordinates (Angstroms)
 Number     Number       Type             X           Y           Z
 ---------------------------------------------------------------------
      1         12           0       -4.835000    1.418631    0.731345
      2          6           0       -5.420604   -2.032018   -0.086004
      3          6           0       -2.802179    0.334208    3.161609
      4          6           0       -3.123269    4.379273    0.409634
      5          6           0       -6.802978    2.390736   -2.086843
      6          7           0       -4.266095   -0.586911    1.415380
      7          6           0       -4.553722   -1.859925    0.968398
      8          6           0       -4.197057   -2.915672    2.044338
      9          6           0       -3.692198   -2.052080    3.248905
     10          6           0       -3.512386   -0.696452    2.596307
     11          6           0       -4.458788   -2.089948    4.633738
     12          6           0       -3.364105   -4.180024    1.646855
     13          6           0       -2.140494   -4.037772    0.686598
     14          6           0       -0.735692   -4.485249    1.122279
     15          8           0       -0.295897   -4.245710    2.234960
     16          8           0        0.048783   -4.970494    0.022589
     17          7           0       -3.283467    2.315647    1.785208
     18          6           0       -2.585595    1.757258    2.786592
     19          6           0       -1.736055    2.731247    3.378723
     20          6           0       -1.771259    3.872328    2.590138
     21          6           0       -2.792314    3.532013    1.530083
     22          6           0       -0.898953    2.363685    4.624791
     23          6           0       -1.061733    5.169427    2.837732
     24          8           0       -0.232091    5.340463    3.704461
     25          6           0       -1.475732    6.466553    2.194166
     26          7           0       -5.018796    3.248793   -0.580846
     27          6           0       -4.178192    4.340601   -0.505656
     28          6           0       -4.734851    5.560480   -1.379349
     29          6           0       -5.910563    4.822728   -2.115391
     30          6           0       -5.868095    3.342620   -1.616625
     31          6           0       -5.118560    6.717599   -0.432071
     32          6           0       -5.727221    4.675144   -3.691574
     33          6           0       -6.924210    5.189544   -4.498255
     34          7           0       -6.007680    0.471654   -0.737327
     35          6           0       -6.841488    1.001106   -1.693479
     36          6           0       -7.535789   -0.213076   -2.244556
     37          6           0       -6.971663   -1.385040   -1.634714
     38          6           0       -6.025318   -0.966755   -0.821995
     39          6           0       -8.653265   -0.283818   -3.206015
     40          6           0       -7.100787   -2.827880   -1.644442
     41          8           0       -7.885826   -3.583559   -2.216953
     42          6           0       -6.096188   -3.362574   -0.622802
     43          6           0       -5.125736   -4.143709   -1.396493
     44          8           0       -4.127931   -3.716422   -1.989800
     45          8           0       -5.511822   -5.485136   -1.353730
     46          6           0       -4.580494   -6.336720   -2.096823
     47          6           0        1.409997   -5.253538    0.420909
     48          6           0        2.474461   -4.437373   -0.420970
     49          6           0        3.649838   -3.955117   -0.022518
     50          6           0        4.414648   -4.488662    1.187708
     51          6           0        4.481990   -3.035845   -0.940226
     52          6           0        5.242179   -1.922968   -0.238128
     53          6           0        5.508564   -0.906102   -1.322338
     54          6           0        6.622307    0.149765   -1.042748
     55          6           0        6.357688    1.416156   -1.964043
     56          6           0        8.001468   -0.426021   -1.226664
     57          6           0        8.997929   -0.484277   -0.000265
     58          6           0        9.775972    0.790789    0.316825
     59          6           0       11.196837    0.367757    0.685496
     60          6           0       11.153501    0.136877    2.207005
     61          6           0       12.141823    1.581834    0.325315
     62          6           0       12.743174    1.368743   -1.066175
     63          6           0       14.131759    0.542519   -1.243699
     64          6           0       15.422321    1.415773   -1.436658
     65          6           0       15.407967    1.855444   -2.920810
     66          6           0       16.605831    0.541728   -1.214067
     67          1           0       -2.232557    0.093619    4.062436
     68          1           0       -2.646936    5.352195    0.277848
     69          1           0       -7.529318    2.669901   -2.852817
     70          1           0       -5.076575   -3.430766    2.429686
     71          1           0       -2.697056   -2.370873    3.559190
     72          1           0       -4.838217   -1.083310    4.810482
     73          1           0       -3.807408   -2.489587    5.410858
     74          1           0       -5.410026   -2.603320    4.491482
     75          1           0       -3.955557   -4.963492    1.174946
     76          1           0       -2.976089   -4.724651    2.507801
     77          1           0       -2.232764   -2.970481    0.489063
     78          1           0       -2.354177   -4.546657   -0.252828
     79          1           0       -1.426037    1.610076    5.209611
     80          1           0       -0.787897    3.187590    5.328705
     81          1           0       -0.002362    1.870172    4.251390
     82          1           0       -1.122038    6.591175    1.170847
     83          1           0       -1.115510    7.347863    2.726252
     84          1           0       -2.564714    6.502714    2.206332
     85          1           0       -4.001568    5.964084   -2.077744
     86          1           0       -6.871629    5.311744   -1.956652
     87          1           0       -5.255449    7.618316   -1.031062
     88          1           0       -4.389097    6.843563    0.368683
     89          1           0       -6.055773    6.456139    0.059102
     90          1           0       -5.528212    3.657249   -4.025806
     91          1           0       -4.902426    5.281486   -4.065080
     92          1           0       -7.828919    5.324274   -3.906066
     93          1           0       -7.094277    4.494119   -5.319869
     94          1           0       -6.730825    6.122685   -5.028943
     95          1           0       -9.407484    0.433885   -2.882839
     96          1           0       -9.055155   -1.290184   -3.323902
     97          1           0       -8.415691    0.070670   -4.209175
     98          1           0       -6.606880   -3.960611    0.132295
     99          1           0       -5.103014   -7.221419   -2.462217
    100          1           0       -3.908394   -6.928092   -1.473727
    101          1           0       -4.343277   -5.943941   -3.085160
    102          1           0        1.607102   -6.293995    0.166096
    103          1           0        1.668364   -5.215768    1.479350
    104          1           0        2.089696   -4.111412   -1.387498
    105          1           0        5.476972   -4.423449    0.952023
    106          1           0        4.217875   -5.536230    1.412599
    107          1           0        4.191328   -3.781865    1.987533
    108          1           0        3.950432   -2.855810   -1.874970
    109          1           0        5.194509   -3.762528   -1.330666
    110          1           0        6.164722   -2.156056    0.292450
    111          1           0        4.529193   -1.706516    0.558229
    112          1           0        4.629211   -0.271233   -1.433154
    113          1           0        5.667913   -1.384022   -2.288371
    114          1           0        6.484884    0.448776   -0.003089
    115          1           0        6.820338    2.254674   -1.444906
    116          1           0        5.307080    1.703748   -1.943494
    117          1           0        6.613215    1.288903   -3.016418
    118          1           0        8.470117    0.094587   -2.061854
    119          1           0        7.929385   -1.460527   -1.562772
    120          1           0        9.551254   -1.413151   -0.138383
    121          1           0        8.277253   -0.615094    0.807380
    122          1           0        9.349790    1.308297    1.176523
    123          1           0        9.797990    1.559094   -0.456366
    124          1           0       11.541056   -0.539931    0.190835
    125          1           0       11.198306    1.050170    2.800725
    126          1           0       12.021928   -0.500188    2.375107
    127          1           0       10.200022   -0.358917    2.391753
    128          1           0       12.906702    1.618130    1.100237
    129          1           0       11.644840    2.551026    0.284948
    130          1           0       12.763450    2.358679   -1.521747
    131          1           0       11.962420    0.746803   -1.503989
    132          1           0       14.125540   -0.108512   -2.118228
    133          1           0       14.395578    0.001535   -0.334104
    134          1           0       15.369239    2.282361   -0.777740
    135          1           0       14.485634    1.678443   -3.473749
    136          1           0       16.106448    1.229275   -3.476589
    137          1           0       15.583211    2.926773   -3.017960
    138          1           0       16.826807    0.592183   -0.148412
    139          1           0       17.531967    0.912561   -1.654163
    140          1           0       16.375769   -0.479860   -1.516044
 ---------------------------------------------------------------------

 SCF Done:  E(RPBE1PBE) =  -3005.28530191     A.U. after   15 cycles

 Excitation energies and oscillator strengths:

 Excited State   1:      Singlet-A      1.7883 eV  693.32 nm  f=0.3511  <S**2>=0.000
     245 -> 248       -0.16071
     246 -> 247        0.69696
     246 <- 247       -0.12070
 This state for optimization and/or second-order correction.
 Total Energy, E(TD-HF/TD-DFT) =  -3005.21958458
 Copying the excited state density for this state as the 1-particle RhoCI density.

 Excited State   2:      Singlet-A      2.2098 eV  561.06 nm  f=0.1310  <S**2>=0.000
     245 -> 247        0.65648
     246 -> 248        0.23961

 Excited State   3:      Singlet-A      2.7183 eV  456.12 nm  f=0.0101  <S**2>=0.000
     243 -> 247        0.69011

 Excited State   4:      Singlet-A      2.8024 eV  442.42 nm  f=0.0001  <S**2>=0.000
     242 -> 247        0.68163
     242 -> 250       -0.13370

 Excited State   5:      Singlet-A      2.9680 eV  417.74 nm  f=0.0000  <S**2>=0.000
     244 -> 247        0.70701

 The electronic state is 1-A.
 Alpha  occ. eigenvalues --  -46.93179 -19.26336 -19.25558 -19.20756 -19.20654
 Alpha  occ. eigenvalues --  -19.20058 -19.18237 -14.41846 -14.41734 -14.39836
 Alpha  occ. eigenvalues --  -14.39294 -10.37039 -10.36742 -10.33019 -10.31555
 Alpha  occ. eigenvalues --  -10.29431 -10.29224 -10.29208 -10.28927 -10.28839
 Alpha  occ. eigenvalues --  -10.28663 -10.28640 -10.28455 -10.27667 -10.26910
 Alpha  occ. eigenvalues --  -10.26878 -10.26836 -10.26706 -10.26603 -10.26429
 Alpha  occ. eigenvalues --  -10.26342 -10.25707 -10.25665 -10.25430 -10.25071
 Alpha  occ. eigenvalues --  -10.24970 -10.24915 -10.24631 -10.24328 -10.24217
 Alpha  occ. eigenvalues --  -10.24199 -10.24052 -10.23624 -10.23208 -10.23012
 Alpha  occ. eigenvalues --  -10.22939 -10.22891 -10.22781 -10.22775 -10.22726
 Alpha  occ. eigenvalues --  -10.22686 -10.22660 -10.22594 -10.22573 -10.22512
 Alpha  occ. eigenvalues --  -10.22323 -10.22248 -10.22200 -10.21834 -10.21774
 Alpha  occ. eigenvalues --  -10.21752 -10.21698 -10.21572 -10.21366 -10.21317
 Alpha  occ. eigenvalues --  -10.20990  -3.15128  -1.87956  -1.87490  -1.87350
 Alpha  occ. eigenvalues --   -1.10735  -1.09706  -1.05017  -1.04912  -1.02605
 Alpha  occ. eigenvalues --   -1.02519  -0.99579  -0.98045  -0.97605  -0.96432
 Alpha  occ. eigenvalues --   -0.87844  -0.84386  -0.83749  -0.83097  -0.83013
 Alpha  occ. eigenvalues --   -0.82635  -0.82481  -0.82013  -0.81677  -0.80841
 Alpha  occ. eigenvalues --   -0.79899  -0.79458  -0.78622  -0.78183  -0.77697
 Alpha  occ. eigenvalues --   -0.76464  -0.76193  -0.75227  -0.74806  -0.74103
 Alpha  occ. eigenvalues --   -0.73407  -0.72019  -0.71983  -0.71639  -0.70969
 Alpha  occ. eigenvalues --   -0.69512  -0.69266  -0.69243  -0.68502  -0.68014
 Alpha  occ. eigenvalues --   -0.67387  -0.66649  -0.65983  -0.64839  -0.63543
 Alpha  occ. eigenvalues --   -0.62803  -0.62361  -0.62084  -0.60744  -0.60081
 Alpha  occ. eigenvalues --   -0.59704  -0.59550  -0.59453  -0.59207  -0.57919
 Alpha  occ. eigenvalues --   -0.57202  -0.56890  -0.56727  -0.56147  -0.54664
 Alpha  occ. eigenvalues --   -0.54155  -0.53985  -0.53474  -0.53255  -0.52777
 Alpha  occ. eigenvalues --   -0.52305  -0.51466  -0.51005  -0.50873  -0.50214
 Alpha  occ. eigenvalues --   -0.49587  -0.49243  -0.49033  -0.48424  -0.48219
 Alpha  occ. eigenvalues --   -0.48028  -0.47842  -0.47579  -0.47405  -0.46970
 Alpha  occ. eigenvalues --   -0.46695  -0.46653  -0.46388  -0.46307  -0.46107
 Alpha  occ. eigenvalues --   -0.45974  -0.45867  -0.45553  -0.45373  -0.44976
 Alpha  occ. eigenvalues --   -0.44752  -0.44639  -0.44555  -0.44240  -0.44022
 Alpha  occ. eigenvalues --   -0.44002  -0.43871  -0.43556  -0.43343  -0.43246
 Alpha  occ. eigenvalues --   -0.43191  -0.42870  -0.42702  -0.42394  -0.42135
 Alpha  occ. eigenvalues --   -0.41970  -0.41704  -0.41616  -0.41442  -0.41204
 Alpha  occ. eigenvalues --   -0.40951  -0.40778  -0.40681  -0.40469  -0.40412
 Alpha  occ. eigenvalues --   -0.40274  -0.40172  -0.40115  -0.39761  -0.39523
 Alpha  occ. eigenvalues --   -0.39142  -0.38834  -0.38786  -0.38779  -0.38721
 Alpha  occ. eigenvalues --   -0.38461  -0.38283  -0.37907  -0.37599  -0.37496
 Alpha  occ. eigenvalues --   -0.37347  -0.37082  -0.36992  -0.36853  -0.36600
 Alpha  occ. eigenvalues --   -0.36559  -0.36386  -0.36186  -0.36146  -0.35890
 Alpha  occ. eigenvalues --   -0.35582  -0.35418  -0.35184  -0.34867  -0.34673
 Alpha  occ. eigenvalues --   -0.34500  -0.33910  -0.33876  -0.33775  -0.33634
 Alpha  occ. eigenvalues --   -0.33141  -0.32845  -0.32755  -0.32568  -0.32094
 Alpha  occ. eigenvalues --   -0.31994  -0.31898  -0.31785  -0.31415  -0.31062
 Alpha  occ. eigenvalues --   -0.30643  -0.29823  -0.29691  -0.29664  -0.29348
 Alpha  occ. eigenvalues --   -0.28926  -0.28725  -0.28252  -0.27334  -0.26670
 Alpha  occ. eigenvalues --   -0.26174  -0.24913  -0.24632  -0.24050  -0.21273
 Alpha  occ. eigenvalues --   -0.19089
 Alpha virt. eigenvalues --   -0.11802  -0.05430  -0.04514  -0.02420  -0.01809
 Alpha virt. eigenvalues --   -0.00523  -0.00028   0.00847   0.02209   0.02667
 Alpha virt. eigenvalues --    0.03766   0.04542   0.05208   0.05928   0.06204

 Mulliken charges:
               1
     1  Mg   0.971282
     2  C   -0.109503
     3  C   -0.046903
     4  C   -0.047300
     5  C   -0.058372
     6  N   -0.418614
     7  C    0.086930
     8  C   -0.074863
     9  C   -0.114288
    10  C    0.077932
    11  C    0.027215
    12  C   -0.027563
    13  C   -0.061995
    14  C    0.257838
    15  O   -0.252713
    16  O   -0.373582
    17  N   -0.450260
    18  C    0.099986
    19  C   -0.160453
    20  C   -0.095286
    21  C    0.173192
    22  C    0.079237
    23  C    0.050023
    24  O   -0.228090
    25  C   -0.058712
    26  N   -0.360234
    27  C    0.005356
    28  C   -0.068585
    29  C   -0.127159
    30  C    0.121741
    31  C    0.004423
    32  C   -0.048165
    33  C   -0.083671
    34  N   -0.521669
    35  C    0.161525
    36  C   -0.198006
    37  C   -0.028009
    38  C    0.247827
    39  C    0.049876
    40  C    0.115501
    41  O   -0.214733
    42  C   -0.071137
    43  C    0.315048
    44  O   -0.257140
    45  O   -0.367408
    46  C    0.128970
    47  C    0.226769
    48  C   -0.157930
    49  C   -0.198498
    50  C    0.011147
    51  C   -0.018415
    52  C   -0.004355
    53  C   -0.034172
    54  C   -0.210414
    55  C   -0.019493
    56  C    0.023790
    57  C   -0.056951
    58  C    0.019012
    59  C   -0.282117
    60  C    0.004521
    61  C    0.013806
    62  C   -0.037472
    63  C   -0.028538
    64  C   -0.255840
    65  C   -0.016325
    66  C    0.001843
    67  H    0.000444
    68  H   -0.005645
    69  H    0.015473
    70  H    0.046417
    71  H    0.055627
    72  H    0.039379
    73  H    0.066588
    74  H    0.032266
    75  H    0.040111
    76  H    0.043030
    77  H    0.093886
    78  H    0.067237
    79  H    0.028752
    80  H    0.064315
    81  H    0.068103
    82  H    0.067797
    83  H    0.052962
    84  H    0.057989
    85  H    0.047025
    86  H    0.054394
    87  H    0.052490
    88  H    0.047955
    89  H    0.038060
    90  H    0.062551
    91  H    0.035465
    92  H    0.040005
    93  H    0.037699
    94  H    0.039624
    95  H    0.041759
    96  H    0.065587
    97  H    0.044977
    98  H    0.086038
    99  H    0.026871
   100  H    0.059435
   101  H    0.076213
   102  H    0.037085
   103  H    0.058322
   104  H    0.024632
   105  H    0.039349
   106  H    0.052627
   107  H    0.060509
   108  H    0.028484
   109  H    0.035407
   110  H    0.029203
   111  H    0.036772
   112  H    0.027363
   113  H    0.033727
   114  H    0.024961
   115  H    0.036334
   116  H    0.023652
   117  H    0.046920
   118  H    0.018372
   119  H    0.014180
   120  H    0.037206
   121  H    0.030396
   122  H    0.025252
   123  H    0.025475
   124  H    0.041977
   125  H    0.041771
   126  H    0.033624
   127  H    0.031839
   128  H    0.012777
   129  H    0.027040
   130  H    0.027029
   131  H    0.030889
   132  H    0.032862
   133  H    0.024344
   134  H    0.033642
   135  H    0.027384
   136  H    0.025247
   137  H    0.037221
   138  H    0.029783
   139  H    0.035419
   140  H    0.040184
 Sum of Mulliken charges =  -0.00000

 Dipole moment (field-independent basis, Debye):
    X=             -2.2079    Y=              1.6378    Z=             -0.1533  Tot=              2.7533
 Quadrupole moment (field-independent basis, Debye-Ang):
   XX=           -392.4725   YY=           -376.9494   ZZ=           -404.1574
   XY=            -36.8347   XZ=            -13.8225   YZ=            -26.6009

 Normal termination of Gaussian 16 at Fri Apr 29 13:57:37 2022.
