 Gaussian 16, Revision A.03,
 Gaussian 16:  ES64L-G16RevA.03 25-Dec-2016

 --------------------------------
 #p wB97XD/Def2SVP td=(nstates=5)
 --------------------------------

 ----------------------------------------------------
 step_351_chromophore_11 TDDFT with wB97XD functional
 ----------------------------------------------------
 Symbolic Z-matrix:
 Charge =  0 Multiplicity = 1

                         Standard orientation:
 ---------------------------------------------------------------------
 Center     Atomic      Atomic             Coordinates (Angstroms)
 Number     Number       Type             X           Y           Z
 ---------------------------------------------------------------------
      1         12           0       -4.835000    1.418631    0.731345
      2          6           0       -5.420604   -2.032018   -0.086004
      3          6           0       -2.802179    0.334208    3.161609
      4          6           0       -3.123269    4.379273    0.409634
      5          6           0       -6.802978    2.390736   -2.086843
      6          7           0       -4.266095   -0.586911    1.415380
      7          6           0       -4.553722   -1.859925    0.968398
      8          6           0       -4.197057   -2.915672    2.044338
      9          6           0       -3.692198   -2.052080    3.248905
     10          6           0       -3.512386   -0.696452    2.596307
     11          6           0       -4.458788   -2.089948    4.633738
     12          6           0       -3.364105   -4.180024    1.646855
     13          6           0       -2.140494   -4.037772    0.686598
     14          6           0       -0.735692   -4.485249    1.122279
     15          8           0       -0.295897   -4.245710    2.234960
     16          8           0        0.048783   -4.970494    0.022589
     17          7           0       -3.283467    2.315647    1.785208
     18          6           0       -2.585595    1.757258    2.786592
     19          6           0       -1.736055    2.731247    3.378723
     20          6           0       -1.771259    3.872328    2.590138
     21          6           0       -2.792314    3.532013    1.530083
     22          6           0       -0.898953    2.363685    4.624791
     23          6           0       -1.061733    5.169427    2.837732
     24          8           0       -0.232091    5.340463    3.704461
     25          6           0       -1.475732    6.466553    2.194166
     26          7           0       -5.018796    3.248793   -0.580846
     27          6           0       -4.178192    4.340601   -0.505656
     28          6           0       -4.734851    5.560480   -1.379349
     29          6           0       -5.910563    4.822728   -2.115391
     30          6           0       -5.868095    3.342620   -1.616625
     31          6           0       -5.118560    6.717599   -0.432071
     32          6           0       -5.727221    4.675144   -3.691574
     33          6           0       -6.924210    5.189544   -4.498255
     34          7           0       -6.007680    0.471654   -0.737327
     35          6           0       -6.841488    1.001106   -1.693479
     36          6           0       -7.535789   -0.213076   -2.244556
     37          6           0       -6.971663   -1.385040   -1.634714
     38          6           0       -6.025318   -0.966755   -0.821995
     39          6           0       -8.653265   -0.283818   -3.206015
     40          6           0       -7.100787   -2.827880   -1.644442
     41          8           0       -7.885826   -3.583559   -2.216953
     42          6           0       -6.096188   -3.362574   -0.622802
     43          6           0       -5.125736   -4.143709   -1.396493
     44          8           0       -4.127931   -3.716422   -1.989800
     45          8           0       -5.511822   -5.485136   -1.353730
     46          6           0       -4.580494   -6.336720   -2.096823
     47          6           0        1.409997   -5.253538    0.420909
     48          6           0        2.474461   -4.437373   -0.420970
     49          6           0        3.649838   -3.955117   -0.022518
     50          6           0        4.414648   -4.488662    1.187708
     51          6           0        4.481990   -3.035845   -0.940226
     52          6           0        5.242179   -1.922968   -0.238128
     53          6           0        5.508564   -0.906102   -1.322338
     54          6           0        6.622307    0.149765   -1.042748
     55          6           0        6.357688    1.416156   -1.964043
     56          6           0        8.001468   -0.426021   -1.226664
     57          6           0        8.997929   -0.484277   -0.000265
     58          6           0        9.775972    0.790789    0.316825
     59          6           0       11.196837    0.367757    0.685496
     60          6           0       11.153501    0.136877    2.207005
     61          6           0       12.141823    1.581834    0.325315
     62          6           0       12.743174    1.368743   -1.066175
     63          6           0       14.131759    0.542519   -1.243699
     64          6           0       15.422321    1.415773   -1.436658
     65          6           0       15.407967    1.855444   -2.920810
     66          6           0       16.605831    0.541728   -1.214067
     67          1           0       -2.232557    0.093619    4.062436
     68          1           0       -2.646936    5.352195    0.277848
     69          1           0       -7.529318    2.669901   -2.852817
     70          1           0       -5.076575   -3.430766    2.429686
     71          1           0       -2.697056   -2.370873    3.559190
     72          1           0       -4.838217   -1.083310    4.810482
     73          1           0       -3.807408   -2.489587    5.410858
     74          1           0       -5.410026   -2.603320    4.491482
     75          1           0       -3.955557   -4.963492    1.174946
     76          1           0       -2.976089   -4.724651    2.507801
     77          1           0       -2.232764   -2.970481    0.489063
     78          1           0       -2.354177   -4.546657   -0.252828
     79          1           0       -1.426037    1.610076    5.209611
     80          1           0       -0.787897    3.187590    5.328705
     81          1           0       -0.002362    1.870172    4.251390
     82          1           0       -1.122038    6.591175    1.170847
     83          1           0       -1.115510    7.347863    2.726252
     84          1           0       -2.564714    6.502714    2.206332
     85          1           0       -4.001568    5.964084   -2.077744
     86          1           0       -6.871629    5.311744   -1.956652
     87          1           0       -5.255449    7.618316   -1.031062
     88          1           0       -4.389097    6.843563    0.368683
     89          1           0       -6.055773    6.456139    0.059102
     90          1           0       -5.528212    3.657249   -4.025806
     91          1           0       -4.902426    5.281486   -4.065080
     92          1           0       -7.828919    5.324274   -3.906066
     93          1           0       -7.094277    4.494119   -5.319869
     94          1           0       -6.730825    6.122685   -5.028943
     95          1           0       -9.407484    0.433885   -2.882839
     96          1           0       -9.055155   -1.290184   -3.323902
     97          1           0       -8.415691    0.070670   -4.209175
     98          1           0       -6.606880   -3.960611    0.132295
     99          1           0       -5.103014   -7.221419   -2.462217
    100          1           0       -3.908394   -6.928092   -1.473727
    101          1           0       -4.343277   -5.943941   -3.085160
    102          1           0        1.607102   -6.293995    0.166096
    103          1           0        1.668364   -5.215768    1.479350
    104          1           0        2.089696   -4.111412   -1.387498
    105          1           0        5.476972   -4.423449    0.952023
    106          1           0        4.217875   -5.536230    1.412599
    107          1           0        4.191328   -3.781865    1.987533
    108          1           0        3.950432   -2.855810   -1.874970
    109          1           0        5.194509   -3.762528   -1.330666
    110          1           0        6.164722   -2.156056    0.292450
    111          1           0        4.529193   -1.706516    0.558229
    112          1           0        4.629211   -0.271233   -1.433154
    113          1           0        5.667913   -1.384022   -2.288371
    114          1           0        6.484884    0.448776   -0.003089
    115          1           0        6.820338    2.254674   -1.444906
    116          1           0        5.307080    1.703748   -1.943494
    117          1           0        6.613215    1.288903   -3.016418
    118          1           0        8.470117    0.094587   -2.061854
    119          1           0        7.929385   -1.460527   -1.562772
    120          1           0        9.551254   -1.413151   -0.138383
    121          1           0        8.277253   -0.615094    0.807380
    122          1           0        9.349790    1.308297    1.176523
    123          1           0        9.797990    1.559094   -0.456366
    124          1           0       11.541056   -0.539931    0.190835
    125          1           0       11.198306    1.050170    2.800725
    126          1           0       12.021928   -0.500188    2.375107
    127          1           0       10.200022   -0.358917    2.391753
    128          1           0       12.906702    1.618130    1.100237
    129          1           0       11.644840    2.551026    0.284948
    130          1           0       12.763450    2.358679   -1.521747
    131          1           0       11.962420    0.746803   -1.503989
    132          1           0       14.125540   -0.108512   -2.118228
    133          1           0       14.395578    0.001535   -0.334104
    134          1           0       15.369239    2.282361   -0.777740
    135          1           0       14.485634    1.678443   -3.473749
    136          1           0       16.106448    1.229275   -3.476589
    137          1           0       15.583211    2.926773   -3.017960
    138          1           0       16.826807    0.592183   -0.148412
    139          1           0       17.531967    0.912561   -1.654163
    140          1           0       16.375769   -0.479860   -1.516044
 ---------------------------------------------------------------------

 SCF Done:  E(RwB97XD) =  -3007.79302047     A.U. after   20 cycles

 Excitation energies and oscillator strengths:

 Excited State   1:      Singlet-A      1.5686 eV  790.41 nm  f=0.3665  <S**2>=0.000
     245 -> 248       -0.17353
     246 -> 247        0.68604
     245 <- 248       -0.11697
 This state for optimization and/or second-order correction.
 Total Energy, E(TD-HF/TD-DFT) =  -3007.73537523
 Copying the excited state density for this state as the 1-particle RhoCI density.

 Excited State   2:      Singlet-A      2.1280 eV  582.63 nm  f=0.1411  <S**2>=0.000
     245 -> 247        0.64820
     246 -> 248        0.26266

 Excited State   3:      Singlet-A      2.9937 eV  414.14 nm  f=0.0055  <S**2>=0.000
     243 -> 247        0.67982

 Excited State   4:      Singlet-A      3.4809 eV  356.19 nm  f=0.0056  <S**2>=0.000
     241 -> 247       -0.29591
     242 -> 247        0.49412
     242 -> 248        0.15517
     242 -> 249        0.14435
     242 -> 250        0.28682
     246 -> 248       -0.11459

 Excited State   5:      Singlet-A      3.5573 eV  348.53 nm  f=0.1743  <S**2>=0.000
     241 -> 247        0.46767
     242 -> 247        0.19640
     242 -> 248        0.10192
     242 -> 250        0.19452
     245 -> 247       -0.13176
     246 -> 248        0.38539

 The electronic state is 1-A.
 Alpha  occ. eigenvalues --  -46.96126 -19.30982 -19.30122 -19.25562 -19.25363
 Alpha  occ. eigenvalues --  -19.24981 -19.22945 -14.46956 -14.46837 -14.44774
 Alpha  occ. eigenvalues --  -14.44207 -10.43975 -10.43567 -10.39972 -10.38277
 Alpha  occ. eigenvalues --  -10.35771 -10.35641 -10.35438 -10.35261 -10.35191
 Alpha  occ. eigenvalues --  -10.35160 -10.34931 -10.34906 -10.33845 -10.33326
 Alpha  occ. eigenvalues --  -10.33320 -10.33171 -10.33132 -10.33007 -10.32785
 Alpha  occ. eigenvalues --  -10.32570 -10.32117 -10.31940 -10.31747 -10.31456
 Alpha  occ. eigenvalues --  -10.31338 -10.31336 -10.30867 -10.30685 -10.30669
 Alpha  occ. eigenvalues --  -10.30592 -10.30353 -10.29950 -10.29601 -10.29533
 Alpha  occ. eigenvalues --  -10.29338 -10.29224 -10.29208 -10.29174 -10.29166
 Alpha  occ. eigenvalues --  -10.29014 -10.28998 -10.28929 -10.28902 -10.28848
 Alpha  occ. eigenvalues --  -10.28696 -10.28610 -10.28572 -10.28198 -10.28163
 Alpha  occ. eigenvalues --  -10.28124 -10.28055 -10.27932 -10.27794 -10.27744
 Alpha  occ. eigenvalues --  -10.27408  -3.21963  -1.95535  -1.95067  -1.94928
 Alpha  occ. eigenvalues --   -1.18232  -1.17113  -1.12610  -1.12281  -1.09992
 Alpha  occ. eigenvalues --   -1.09971  -1.06841  -1.05453  -1.05059  -1.03880
 Alpha  occ. eigenvalues --   -0.95527  -0.92048  -0.91408  -0.90752  -0.90620
 Alpha  occ. eigenvalues --   -0.90225  -0.90137  -0.89634  -0.89332  -0.88377
 Alpha  occ. eigenvalues --   -0.87597  -0.87107  -0.86308  -0.85835  -0.85342
 Alpha  occ. eigenvalues --   -0.84128  -0.83859  -0.82847  -0.82467  -0.81768
 Alpha  occ. eigenvalues --   -0.81076  -0.79657  -0.79644  -0.79259  -0.78597
 Alpha  occ. eigenvalues --   -0.77044  -0.76938  -0.76935  -0.76177  -0.75683
 Alpha  occ. eigenvalues --   -0.75008  -0.74232  -0.73526  -0.72442  -0.71133
 Alpha  occ. eigenvalues --   -0.70384  -0.69910  -0.69643  -0.68362  -0.67648
 Alpha  occ. eigenvalues --   -0.67224  -0.67104  -0.66970  -0.66671  -0.65604
 Alpha  occ. eigenvalues --   -0.64727  -0.64387  -0.64322  -0.63794  -0.62167
 Alpha  occ. eigenvalues --   -0.61630  -0.61327  -0.61010  -0.60715  -0.60235
 Alpha  occ. eigenvalues --   -0.59739  -0.58960  -0.58446  -0.58225  -0.57577
 Alpha  occ. eigenvalues --   -0.57014  -0.56683  -0.56394  -0.55934  -0.55650
 Alpha  occ. eigenvalues --   -0.55487  -0.55234  -0.54840  -0.54768  -0.54394
 Alpha  occ. eigenvalues --   -0.54079  -0.54042  -0.53875  -0.53671  -0.53448
 Alpha  occ. eigenvalues --   -0.53286  -0.53207  -0.52896  -0.52798  -0.52354
 Alpha  occ. eigenvalues --   -0.52133  -0.51991  -0.51911  -0.51571  -0.51358
 Alpha  occ. eigenvalues --   -0.51306  -0.51190  -0.50873  -0.50626  -0.50589
 Alpha  occ. eigenvalues --   -0.50538  -0.50113  -0.49987  -0.49665  -0.49398
 Alpha  occ. eigenvalues --   -0.49258  -0.48952  -0.48846  -0.48678  -0.48446
 Alpha  occ. eigenvalues --   -0.48129  -0.48020  -0.47906  -0.47739  -0.47676
 Alpha  occ. eigenvalues --   -0.47484  -0.47341  -0.47308  -0.46984  -0.46646
 Alpha  occ. eigenvalues --   -0.46352  -0.46024  -0.45971  -0.45934  -0.45808
 Alpha  occ. eigenvalues --   -0.45642  -0.45460  -0.45053  -0.44773  -0.44600
 Alpha  occ. eigenvalues --   -0.44373  -0.44208  -0.44027  -0.43873  -0.43735
 Alpha  occ. eigenvalues --   -0.43671  -0.43446  -0.43297  -0.43199  -0.43106
 Alpha  occ. eigenvalues --   -0.42686  -0.42515  -0.42193  -0.41976  -0.41675
 Alpha  occ. eigenvalues --   -0.41581  -0.40955  -0.40870  -0.40803  -0.40645
 Alpha  occ. eigenvalues --   -0.40169  -0.39867  -0.39665  -0.39608  -0.39093
 Alpha  occ. eigenvalues --   -0.39033  -0.38959  -0.38820  -0.38425  -0.38095
 Alpha  occ. eigenvalues --   -0.37626  -0.37005  -0.36594  -0.36544  -0.36245
 Alpha  occ. eigenvalues --   -0.36037  -0.35386  -0.35111  -0.33930  -0.33831
 Alpha  occ. eigenvalues --   -0.32712  -0.32029  -0.31175  -0.30823  -0.26238
 Alpha  occ. eigenvalues --   -0.23314
 Alpha virt. eigenvalues --   -0.07785   0.00062   0.01779   0.04112   0.04198
 Alpha virt. eigenvalues --    0.06206   0.06660   0.07627   0.08920   0.09361
 Alpha virt. eigenvalues --    0.10377   0.11029   0.11897   0.12648   0.12925

 Mulliken charges:
               1
     1  Mg   0.963139
     2  C   -0.107195
     3  C   -0.058587
     4  C   -0.054035
     5  C   -0.078258
     6  N   -0.387613
     7  C    0.052772
     8  C   -0.047532
     9  C   -0.096021
    10  C    0.070045
    11  C    0.038898
    12  C   -0.018268
    13  C   -0.040883
    14  C    0.251010
    15  O   -0.250667
    16  O   -0.373863
    17  N   -0.414755
    18  C    0.086963
    19  C   -0.155711
    20  C   -0.088476
    21  C    0.165073
    22  C    0.091560
    23  C    0.043086
    24  O   -0.223893
    25  C   -0.039938
    26  N   -0.328613
    27  C   -0.011154
    28  C   -0.044768
    29  C   -0.105471
    30  C    0.117963
    31  C    0.018789
    32  C   -0.034376
    33  C   -0.068557
    34  N   -0.490784
    35  C    0.146322
    36  C   -0.188236
    37  C   -0.024452
    38  C    0.233534
    39  C    0.058258
    40  C    0.097365
    41  O   -0.203444
    42  C   -0.032096
    43  C    0.288694
    44  O   -0.250434
    45  O   -0.366289
    46  C    0.143249
    47  C    0.242014
    48  C   -0.168206
    49  C   -0.185590
    50  C    0.023098
    51  C    0.002169
    52  C    0.011828
    53  C   -0.013617
    54  C   -0.182750
    55  C   -0.005378
    56  C    0.031985
    57  C   -0.035596
    58  C    0.033115
    59  C   -0.247838
    60  C    0.017117
    61  C    0.024704
    62  C   -0.019624
    63  C   -0.010306
    64  C   -0.226833
    65  C   -0.007848
    66  C    0.013322
    67  H   -0.006610
    68  H   -0.019888
    69  H    0.010614
    70  H    0.034302
    71  H    0.046399
    72  H    0.032187
    73  H    0.063074
    74  H    0.025761
    75  H    0.030691
    76  H    0.036709
    77  H    0.083532
    78  H    0.058364
    79  H    0.021918
    80  H    0.060954
    81  H    0.063170
    82  H    0.063527
    83  H    0.051287
    84  H    0.047429
    85  H    0.038802
    86  H    0.043638
    87  H    0.047532
    88  H    0.038145
    89  H    0.031398
    90  H    0.053293
    91  H    0.027807
    92  H    0.033151
    93  H    0.032005
    94  H    0.034288
    95  H    0.036088
    96  H    0.062442
    97  H    0.040416
    98  H    0.082739
    99  H    0.022493
   100  H    0.056256
   101  H    0.072911
   102  H    0.031758
   103  H    0.052748
   104  H    0.021785
   105  H    0.033023
   106  H    0.048523
   107  H    0.055068
   108  H    0.021166
   109  H    0.023753
   110  H    0.018781
   111  H    0.027231
   112  H    0.017071
   113  H    0.023202
   114  H    0.012792
   115  H    0.029998
   116  H    0.017242
   117  H    0.041345
   118  H    0.008756
   119  H    0.005373
   120  H    0.030104
   121  H    0.017125
   122  H    0.015849
   123  H    0.015085
   124  H    0.028605
   125  H    0.035975
   126  H    0.027837
   127  H    0.023702
   128  H    0.003439
   129  H    0.019634
   130  H    0.020072
   131  H    0.018204
   132  H    0.023271
   133  H    0.013384
   134  H    0.024499
   135  H    0.020348
   136  H    0.019028
   137  H    0.032447
   138  H    0.023502
   139  H    0.029797
   140  H    0.033536
 Sum of Mulliken charges =  -0.00000

 Dipole moment (field-independent basis, Debye):
    X=             -2.3411    Y=              1.4954    Z=             -0.2414  Tot=              2.7884
 Quadrupole moment (field-independent basis, Debye-Ang):
   XX=           -390.7444   YY=           -376.3058   ZZ=           -404.1681
   XY=            -36.0376   XZ=            -13.5171   YZ=            -26.4054

 Normal termination of Gaussian 16 at Fri Apr 29 14:28:06 2022.
