 Gaussian 16, Revision A.03,
 Gaussian 16:  ES64L-G16RevA.03 25-Dec-2016

 --------------------
 #p ZINDO=(nstates=5)
 --------------------

 -----------------------------
 step_351_chromophore_11 ZINDO
 -----------------------------
 Symbolic Z-matrix:
 Charge =  0 Multiplicity = 1

                         Standard orientation:
 ---------------------------------------------------------------------
 Center     Atomic      Atomic             Coordinates (Angstroms)
 Number     Number       Type             X           Y           Z
 ---------------------------------------------------------------------
      1         12           0       -4.835000    1.418631    0.731345
      2          6           0       -5.420604   -2.032018   -0.086004
      3          6           0       -2.802179    0.334208    3.161609
      4          6           0       -3.123269    4.379273    0.409634
      5          6           0       -6.802978    2.390736   -2.086843
      6          7           0       -4.266095   -0.586911    1.415380
      7          6           0       -4.553722   -1.859925    0.968398
      8          6           0       -4.197057   -2.915672    2.044338
      9          6           0       -3.692198   -2.052080    3.248905
     10          6           0       -3.512386   -0.696452    2.596307
     11          6           0       -4.458788   -2.089948    4.633738
     12          6           0       -3.364105   -4.180024    1.646855
     13          6           0       -2.140494   -4.037772    0.686598
     14          6           0       -0.735692   -4.485249    1.122279
     15          8           0       -0.295897   -4.245710    2.234960
     16          8           0        0.048783   -4.970494    0.022589
     17          7           0       -3.283467    2.315647    1.785208
     18          6           0       -2.585595    1.757258    2.786592
     19          6           0       -1.736055    2.731247    3.378723
     20          6           0       -1.771259    3.872328    2.590138
     21          6           0       -2.792314    3.532013    1.530083
     22          6           0       -0.898953    2.363685    4.624791
     23          6           0       -1.061733    5.169427    2.837732
     24          8           0       -0.232091    5.340463    3.704461
     25          6           0       -1.475732    6.466553    2.194166
     26          7           0       -5.018796    3.248793   -0.580846
     27          6           0       -4.178192    4.340601   -0.505656
     28          6           0       -4.734851    5.560480   -1.379349
     29          6           0       -5.910563    4.822728   -2.115391
     30          6           0       -5.868095    3.342620   -1.616625
     31          6           0       -5.118560    6.717599   -0.432071
     32          6           0       -5.727221    4.675144   -3.691574
     33          6           0       -6.924210    5.189544   -4.498255
     34          7           0       -6.007680    0.471654   -0.737327
     35          6           0       -6.841488    1.001106   -1.693479
     36          6           0       -7.535789   -0.213076   -2.244556
     37          6           0       -6.971663   -1.385040   -1.634714
     38          6           0       -6.025318   -0.966755   -0.821995
     39          6           0       -8.653265   -0.283818   -3.206015
     40          6           0       -7.100787   -2.827880   -1.644442
     41          8           0       -7.885826   -3.583559   -2.216953
     42          6           0       -6.096188   -3.362574   -0.622802
     43          6           0       -5.125736   -4.143709   -1.396493
     44          8           0       -4.127931   -3.716422   -1.989800
     45          8           0       -5.511822   -5.485136   -1.353730
     46          6           0       -4.580494   -6.336720   -2.096823
     47          6           0        1.409997   -5.253538    0.420909
     48          6           0        2.474461   -4.437373   -0.420970
     49          6           0        3.649838   -3.955117   -0.022518
     50          6           0        4.414648   -4.488662    1.187708
     51          6           0        4.481990   -3.035845   -0.940226
     52          6           0        5.242179   -1.922968   -0.238128
     53          6           0        5.508564   -0.906102   -1.322338
     54          6           0        6.622307    0.149765   -1.042748
     55          6           0        6.357688    1.416156   -1.964043
     56          6           0        8.001468   -0.426021   -1.226664
     57          6           0        8.997929   -0.484277   -0.000265
     58          6           0        9.775972    0.790789    0.316825
     59          6           0       11.196837    0.367757    0.685496
     60          6           0       11.153501    0.136877    2.207005
     61          6           0       12.141823    1.581834    0.325315
     62          6           0       12.743174    1.368743   -1.066175
     63          6           0       14.131759    0.542519   -1.243699
     64          6           0       15.422321    1.415773   -1.436658
     65          6           0       15.407967    1.855444   -2.920810
     66          6           0       16.605831    0.541728   -1.214067
     67          1           0       -2.232557    0.093619    4.062436
     68          1           0       -2.646936    5.352195    0.277848
     69          1           0       -7.529318    2.669901   -2.852817
     70          1           0       -5.076575   -3.430766    2.429686
     71          1           0       -2.697056   -2.370873    3.559190
     72          1           0       -4.838217   -1.083310    4.810482
     73          1           0       -3.807408   -2.489587    5.410858
     74          1           0       -5.410026   -2.603320    4.491482
     75          1           0       -3.955557   -4.963492    1.174946
     76          1           0       -2.976089   -4.724651    2.507801
     77          1           0       -2.232764   -2.970481    0.489063
     78          1           0       -2.354177   -4.546657   -0.252828
     79          1           0       -1.426037    1.610076    5.209611
     80          1           0       -0.787897    3.187590    5.328705
     81          1           0       -0.002362    1.870172    4.251390
     82          1           0       -1.122038    6.591175    1.170847
     83          1           0       -1.115510    7.347863    2.726252
     84          1           0       -2.564714    6.502714    2.206332
     85          1           0       -4.001568    5.964084   -2.077744
     86          1           0       -6.871629    5.311744   -1.956652
     87          1           0       -5.255449    7.618316   -1.031062
     88          1           0       -4.389097    6.843563    0.368683
     89          1           0       -6.055773    6.456139    0.059102
     90          1           0       -5.528212    3.657249   -4.025806
     91          1           0       -4.902426    5.281486   -4.065080
     92          1           0       -7.828919    5.324274   -3.906066
     93          1           0       -7.094277    4.494119   -5.319869
     94          1           0       -6.730825    6.122685   -5.028943
     95          1           0       -9.407484    0.433885   -2.882839
     96          1           0       -9.055155   -1.290184   -3.323902
     97          1           0       -8.415691    0.070670   -4.209175
     98          1           0       -6.606880   -3.960611    0.132295
     99          1           0       -5.103014   -7.221419   -2.462217
    100          1           0       -3.908394   -6.928092   -1.473727
    101          1           0       -4.343277   -5.943941   -3.085160
    102          1           0        1.607102   -6.293995    0.166096
    103          1           0        1.668364   -5.215768    1.479350
    104          1           0        2.089696   -4.111412   -1.387498
    105          1           0        5.476972   -4.423449    0.952023
    106          1           0        4.217875   -5.536230    1.412599
    107          1           0        4.191328   -3.781865    1.987533
    108          1           0        3.950432   -2.855810   -1.874970
    109          1           0        5.194509   -3.762528   -1.330666
    110          1           0        6.164722   -2.156056    0.292450
    111          1           0        4.529193   -1.706516    0.558229
    112          1           0        4.629211   -0.271233   -1.433154
    113          1           0        5.667913   -1.384022   -2.288371
    114          1           0        6.484884    0.448776   -0.003089
    115          1           0        6.820338    2.254674   -1.444906
    116          1           0        5.307080    1.703748   -1.943494
    117          1           0        6.613215    1.288903   -3.016418
    118          1           0        8.470117    0.094587   -2.061854
    119          1           0        7.929385   -1.460527   -1.562772
    120          1           0        9.551254   -1.413151   -0.138383
    121          1           0        8.277253   -0.615094    0.807380
    122          1           0        9.349790    1.308297    1.176523
    123          1           0        9.797990    1.559094   -0.456366
    124          1           0       11.541056   -0.539931    0.190835
    125          1           0       11.198306    1.050170    2.800725
    126          1           0       12.021928   -0.500188    2.375107
    127          1           0       10.200022   -0.358917    2.391753
    128          1           0       12.906702    1.618130    1.100237
    129          1           0       11.644840    2.551026    0.284948
    130          1           0       12.763450    2.358679   -1.521747
    131          1           0       11.962420    0.746803   -1.503989
    132          1           0       14.125540   -0.108512   -2.118228
    133          1           0       14.395578    0.001535   -0.334104
    134          1           0       15.369239    2.282361   -0.777740
    135          1           0       14.485634    1.678443   -3.473749
    136          1           0       16.106448    1.229275   -3.476589
    137          1           0       15.583211    2.926773   -3.017960
    138          1           0       16.826807    0.592183   -0.148412
    139          1           0       17.531967    0.912561   -1.654163
    140          1           0       16.375769   -0.479860   -1.516044
 ---------------------------------------------------------------------

 SCF Done:  E(RZINDO/S) =  -473.995195580     A.U. after   20 cycles

 Excitation energies and oscillator strengths:

 Excited State   1:      Singlet-A      1.2005 eV 1032.81 nm  f=0.6179  <S**2>=0.000
     175 ->178         0.18589
     176 ->177         0.66263
 This state for optimization and/or second-order correction.
 Total Energy, E(CIS/TDA) =  -473.951079625
 Copying the excited state density for this state as the 1-particle RhoCI density.

 Excited State   2:      Singlet-A      1.8785 eV  660.03 nm  f=0.0690  <S**2>=0.000
     175 ->177         0.56399
     176 ->178        -0.39907

 Excited State   3:      Singlet-A      2.8656 eV  432.66 nm  f=0.0023  <S**2>=0.000
     169 ->177         0.17689
     169 ->178         0.12009
     169 ->179         0.13560
     169 ->181        -0.25156
     169 ->184         0.11706
     169 ->185        -0.12855
     170 ->177         0.22012
     170 ->178         0.14493
     170 ->179         0.15850
     170 ->180         0.10656
     170 ->181        -0.30247
     170 ->184         0.14031
     170 ->185        -0.15532
     170 ->186        -0.11061
     170 ->196        -0.10136

 Excited State   4:      Singlet-A      2.9398 eV  421.74 nm  f=0.3600  <S**2>=0.000
     172 ->177         0.16083
     173 ->177         0.49927
     175 ->177        -0.22815
     176 ->178        -0.28789
     176 ->179        -0.19561

 Excited State   5:      Singlet-A      2.9641 eV  418.28 nm  f=0.1288  <S**2>=0.000
     168 ->177         0.21994
     168 ->179        -0.38730
     168 ->185         0.15236
     175 ->177        -0.13711
     176 ->178        -0.20728
     176 ->179         0.33706
     176 ->180         0.10304

 The electronic state is 1-A.
 Alpha  occ. eigenvalues --   -1.82382  -1.81868  -1.77671  -1.72382  -1.70506
 Alpha  occ. eigenvalues --   -1.68885  -1.66225  -1.61620  -1.60672  -1.58746
 Alpha  occ. eigenvalues --   -1.57352  -1.51794  -1.49244  -1.48657  -1.46870
 Alpha  occ. eigenvalues --   -1.43348  -1.41730  -1.40198  -1.37901  -1.37755
 Alpha  occ. eigenvalues --   -1.35802  -1.32797  -1.32404  -1.30542  -1.28359
 Alpha  occ. eigenvalues --   -1.26927  -1.26345  -1.22392  -1.19106  -1.17780
 Alpha  occ. eigenvalues --   -1.17275  -1.15333  -1.14888  -1.13467  -1.12389
 Alpha  occ. eigenvalues --   -1.11922  -1.10482  -1.09679  -1.05469  -1.03349
 Alpha  occ. eigenvalues --   -1.02779  -1.00200  -0.99391  -0.96919  -0.96059
 Alpha  occ. eigenvalues --   -0.94571  -0.93891  -0.93404  -0.92582  -0.91510
 Alpha  occ. eigenvalues --   -0.91441  -0.90962  -0.88479  -0.88192  -0.86989
 Alpha  occ. eigenvalues --   -0.85861  -0.83980  -0.83422  -0.81536  -0.80139
 Alpha  occ. eigenvalues --   -0.79264  -0.78346  -0.77609  -0.77042  -0.76822
 Alpha  occ. eigenvalues --   -0.76275  -0.75737  -0.75105  -0.73634  -0.73452
 Alpha  occ. eigenvalues --   -0.72887  -0.71786  -0.71723  -0.71334  -0.70925
 Alpha  occ. eigenvalues --   -0.70110  -0.69282  -0.68842  -0.68552  -0.67908
 Alpha  occ. eigenvalues --   -0.67469  -0.67105  -0.66473  -0.66133  -0.65137
 Alpha  occ. eigenvalues --   -0.65009  -0.64808  -0.64175  -0.63859  -0.63722
 Alpha  occ. eigenvalues --   -0.62901  -0.62810  -0.62477  -0.62213  -0.61303
 Alpha  occ. eigenvalues --   -0.61225  -0.60655  -0.60548  -0.60092  -0.59930
 Alpha  occ. eigenvalues --   -0.59573  -0.58911  -0.58654  -0.58521  -0.58312
 Alpha  occ. eigenvalues --   -0.57880  -0.57481  -0.56712  -0.56657  -0.56322
 Alpha  occ. eigenvalues --   -0.56025  -0.55788  -0.55473  -0.55221  -0.54705
 Alpha  occ. eigenvalues --   -0.53995  -0.53802  -0.53341  -0.52806  -0.52483
 Alpha  occ. eigenvalues --   -0.52178  -0.51967  -0.51537  -0.51252  -0.51019
 Alpha  occ. eigenvalues --   -0.50912  -0.50701  -0.50495  -0.50299  -0.49678
 Alpha  occ. eigenvalues --   -0.49349  -0.49222  -0.49134  -0.48944  -0.48692
 Alpha  occ. eigenvalues --   -0.48308  -0.48079  -0.47953  -0.47788  -0.47435
 Alpha  occ. eigenvalues --   -0.47329  -0.47142  -0.46898  -0.46840  -0.46804
 Alpha  occ. eigenvalues --   -0.46393  -0.45879  -0.45680  -0.45628  -0.45549
 Alpha  occ. eigenvalues --   -0.45260  -0.44853  -0.44474  -0.44262  -0.43940
 Alpha  occ. eigenvalues --   -0.43765  -0.42786  -0.42455  -0.42413  -0.42260
 Alpha  occ. eigenvalues --   -0.41885  -0.41257  -0.40500  -0.39038  -0.38744
 Alpha  occ. eigenvalues --   -0.38729  -0.37354  -0.35693  -0.34984  -0.34858
 Alpha  occ. eigenvalues --   -0.33555  -0.33072  -0.31783  -0.31625  -0.26893
 Alpha  occ. eigenvalues --   -0.22049
 Alpha virt. eigenvalues --   -0.09217  -0.02302  -0.01073   0.00814   0.00912
 Alpha virt. eigenvalues --    0.01525   0.02370   0.02655   0.04299   0.05614
 Alpha virt. eigenvalues --    0.05725   0.06897   0.07110   0.07304   0.07924

 Mulliken charges:
               1
     1  Mg   0.432875
     2  C   -0.040159
     3  C   -0.080483
     4  C   -0.076220
     5  C   -0.067516
     6  N   -0.308803
     7  C    0.126757
     8  C    0.011034
     9  C    0.001081
    10  C    0.138051
    11  C   -0.051097
    12  C   -0.024576
    13  C   -0.003527
    14  C    0.462338
    15  O   -0.503010
    16  O   -0.262423
    17  N   -0.284343
    18  C    0.106449
    19  C    0.038725
    20  C   -0.049976
    21  C    0.125050
    22  C   -0.041931
    23  C    0.330643
    24  O   -0.516616
    25  C   -0.025749
    26  N   -0.272131
    27  C    0.113125
    28  C    0.006708
    29  C    0.000130
    30  C    0.137433
    31  C   -0.048945
    32  C   -0.036429
    33  C   -0.060879
    34  N   -0.351620
    35  C    0.099865
    36  C    0.031964
    37  C   -0.037577
    38  C    0.116388
    39  C   -0.038382
    40  C    0.344581
    41  O   -0.525052
    42  C    0.056707
    43  C    0.494577
    44  O   -0.531203
    45  O   -0.263306
    46  C    0.053679
    47  C    0.099406
    48  C   -0.095697
    49  C   -0.010036
    50  C   -0.044809
    51  C   -0.027229
    52  C   -0.025741
    53  C   -0.031355
    54  C   -0.012185
    55  C   -0.063539
    56  C   -0.037891
    57  C   -0.040692
    58  C   -0.024561
    59  C   -0.019806
    60  C   -0.061268
    61  C   -0.038468
    62  C   -0.048077
    63  C   -0.042088
    64  C   -0.010317
    65  C   -0.061832
    66  C   -0.048072
    67  H    0.022438
    68  H    0.025195
    69  H    0.034173
    70  H    0.021798
    71  H    0.026742
    72  H    0.023077
    73  H    0.038961
    74  H    0.021218
    75  H    0.018451
    76  H    0.025686
    77  H    0.056498
    78  H    0.038028
    79  H    0.015426
    80  H    0.042111
    81  H    0.042338
    82  H    0.035630
    83  H    0.035044
    84  H    0.024149
    85  H    0.035926
    86  H    0.040987
    87  H    0.021007
    88  H    0.027052
    89  H    0.020169
    90  H    0.031415
    91  H    0.015153
    92  H    0.021609
    93  H    0.014832
    94  H    0.016229
    95  H    0.023577
    96  H    0.038852
    97  H    0.028713
    98  H    0.066316
    99  H    0.012204
   100  H    0.056319
   101  H    0.067151
   102  H    0.027786
   103  H    0.057850
   104  H    0.026935
   105  H    0.018258
   106  H    0.028573
   107  H    0.035427
   108  H    0.032691
   109  H    0.010895
   110  H    0.027335
   111  H    0.025267
   112  H    0.011668
   113  H    0.024238
   114  H    0.020215
   115  H    0.016656
   116  H    0.010538
   117  H    0.030013
   118  H    0.011898
   119  H    0.008398
   120  H    0.028146
   121  H    0.013953
   122  H    0.019128
   123  H    0.017859
   124  H    0.033007
   125  H    0.025784
   126  H    0.013227
   127  H    0.018867
   128  H    0.011939
   129  H    0.023537
   130  H    0.021486
   131  H    0.016557
   132  H    0.027391
   133  H    0.016698
   134  H    0.027072
   135  H    0.012473
   136  H    0.018035
   137  H    0.016003
   138  H    0.005917
   139  H    0.015192
   140  H    0.026659
 Sum of Mulliken charges =  -0.00000

 Dipole moment (field-independent basis, Debye):
    X=             -3.3947    Y=              2.0922    Z=             -0.4070  Tot=              4.0084
 N-N= 4.325666009115D+03 E-N= 0.000000000000D+00  KE=-9.325727709196D+03
 Leave Link  601 at Fri Apr 29 14:40:28 2022, MaxMem=  6710886400 cpu:               0.8 elap:               0.1
 (Enter /sw/apps/gaussian-16.0/g16/l9999.exe)
 1\1\GINC-BP1-COMPUTE154\SP\RZINDO CIS\STO-3G\C55H74Mg1N4O6\OF15641\29-
 Apr-2022\0\\#p ZINDO=(nstates=5)\\step_351_chromophore_11 ZINDO\\0,1\M
 g,0,53.532,23.517,44.423\C,0,50.588,25.524,43.951\C,0,51.608,20.839,43
 .839\C,0,56.355,21.93,43.278\C,0,55.479,26.496,44.731\N,0,51.392,23.28
 2,44.\C,0,50.358,24.175,43.809\C,0,48.987,23.462,43.916\C,0,49.371,21.
 984,44.262\C,0,50.859,21.982,43.976\C,0,48.898,21.336,45.627\C,0,47.89
 9,23.7,42.816\C,0,48.308,23.735,41.309\C,0,47.683,22.762,40.296\O,0,47

 Normal termination of Gaussian 16 at Fri Apr 29 14:40:28 2022.
