 Gaussian 16, Revision A.03,
 Gaussian 16:  ES64L-G16RevA.03 25-Dec-2016

 ------------------------------
 #p blyp/Def2SVP td=(nstates=5)
 ------------------------------

 ---------------------------------------------------
 step_1001_chromophore_16 TDDFT with blyp functional
 ---------------------------------------------------
 Symbolic Z-matrix:
 Charge =  0 Multiplicity = 1

                         Standard orientation:
 ---------------------------------------------------------------------
 Center     Atomic      Atomic             Coordinates (Angstroms)
 Number     Number       Type             X           Y           Z
 ---------------------------------------------------------------------
      1         12           0        6.568154    0.612523    0.280203
      2          6           0        4.163866   -2.089815    0.021951
      3          6           0        4.160915    2.619808   -1.301377
      4          6           0        8.770410    3.260627    0.279640
      5          6           0        8.908243   -1.550752    1.352040
      6          7           0        4.440042    0.210070   -0.600166
      7          6           0        3.595711   -0.867944   -0.467876
      8          6           0        2.142949   -0.673716   -0.852146
      9          6           0        2.149818    0.842520   -1.309729
     10          6           0        3.675520    1.259171   -1.046778
     11          6           0        1.785313    0.977946   -2.793361
     12          6           0        1.149796   -0.927161    0.327848
     13          6           0       -0.236732   -0.383509    0.155495
     14          6           0       -1.391948   -1.373749    0.463835
     15          8           0       -1.445261   -2.118766    1.396883
     16          8           0       -2.347491   -1.495668   -0.565946
     17          7           0        6.486366    2.579210   -0.498135
     18          6           0        5.389633    3.189840   -1.046650
     19          6           0        5.632633    4.612538   -1.209015
     20          6           0        6.981677    4.892053   -0.765038
     21          6           0        7.516603    3.551717   -0.375644
     22          6           0        4.565000    5.622271   -1.754270
     23          6           0        7.785870    6.138934   -0.763987
     24          8           0        9.037166    6.176193   -0.589744
     25          6           0        7.017958    7.475445   -1.055187
     26          7           0        8.535964    0.808050    0.783141
     27          6           0        9.249219    2.021626    0.805214
     28          6           0       10.743808    1.775847    1.060942
     29          6           0       10.664494    0.313830    1.682625
     30          6           0        9.300629   -0.229396    1.150651
     31          6           0       11.507498    1.894409   -0.275239
     32          6           0       10.621552    0.386071    3.187224
     33          6           0       11.307991   -0.829469    3.905119
     34          7           0        6.566887   -1.336842    0.757286
     35          6           0        7.587193   -2.122412    1.258155
     36          6           0        7.144987   -3.499552    1.484446
     37          6           0        5.810485   -3.540162    1.034864
     38          6           0        5.468844   -2.229267    0.652629
     39          6           0        8.080697   -4.631518    1.866729
     40          6           0        4.644076   -4.413251    0.828550
     41          8           0        4.507724   -5.632397    0.918560
     42          6           0        3.544028   -3.435753    0.332329
     43          6           0        3.008781   -3.985078   -0.915030
     44          8           0        3.567637   -4.060230   -1.957855
     45          8           0        1.821505   -4.655456   -0.643762
     46          6           0        1.185129   -5.354532   -1.773814
     47          6           0       -3.416101   -2.410083   -0.382798
     48          6           0       -4.516596   -2.053165   -1.287658
     49          6           0       -5.517121   -2.824986   -1.568080
     50          6           0       -5.823524   -4.212962   -1.050103
     51          6           0       -6.528113   -2.412644   -2.585950
     52          6           0       -7.936198   -2.037217   -1.997309
     53          6           0       -8.431584   -0.642409   -2.436555
     54          6           0       -9.983887   -0.621862   -2.329756
     55          6           0      -10.639179    0.094364   -3.549184
     56          6           0      -10.498429    0.060528   -1.048077
     57          6           0      -11.976255   -0.058026   -0.745388
     58          6           0      -12.662409    1.334388   -0.748666
     59          6           0      -14.078945    1.331177   -0.073837
     60          6           0      -15.024101    2.303729   -0.742262
     61          6           0      -14.075710    1.742895    1.431323
     62          6           0      -15.054568    0.920865    2.267773
     63          6           0      -15.809507    1.912449    3.281566
     64          6           0      -17.290186    2.102404    3.013263
     65          6           0      -18.175190    1.010773    3.696531
     66          6           0      -17.727479    3.578641    3.311233
     67          1           0        3.239225    3.187794   -1.443091
     68          1           0        9.389704    4.150736    0.411653
     69          1           0        9.673793   -2.196447    1.789285
     70          1           0        1.859236   -1.291620   -1.704339
     71          1           0        1.435222    1.564991   -0.916197
     72          1           0        2.656083    1.385056   -3.309217
     73          1           0        0.928307    1.651354   -2.791729
     74          1           0        1.286482    0.153571   -3.302163
     75          1           0        1.571065   -0.435616    1.204955
     76          1           0        1.029548   -2.004005    0.445062
     77          1           0       -0.374569    0.047389   -0.835861
     78          1           0       -0.356777    0.455051    0.842098
     79          1           0        5.068557    6.127032   -2.579726
     80          1           0        4.180527    6.366143   -1.057025
     81          1           0        3.657957    5.145259   -2.125936
     82          1           0        6.166757    7.599516   -0.385594
     83          1           0        6.764932    7.530067   -2.113242
     84          1           0        7.744983    8.268366   -0.877365
     85          1           0       11.077109    2.504642    1.800148
     86          1           0       11.456504   -0.357283    1.348719
     87          1           0       10.830262    2.342870   -1.001405
     88          1           0       11.819850    0.917133   -0.640984
     89          1           0       12.316489    2.621531   -0.203714
     90          1           0        9.563281    0.488860    3.425774
     91          1           0       11.130247    1.222263    3.665611
     92          1           0       11.757732   -0.371577    4.786572
     93          1           0       11.966119   -1.418932    3.267879
     94          1           0       10.544892   -1.486757    4.320755
     95          1           0        7.731442   -5.637619    1.636051
     96          1           0        8.263624   -4.666100    2.940708
     97          1           0        8.988378   -4.510498    1.273918
     98          1           0        2.684289   -3.283133    0.984862
     99          1           0        1.177562   -4.700279   -2.644986
    100          1           0        0.171868   -5.654588   -1.505618
    101          1           0        1.642561   -6.323819   -1.972715
    102          1           0       -3.801545   -2.277914    0.628146
    103          1           0       -3.109225   -3.445260   -0.530794
    104          1           0       -4.440007   -1.078599   -1.770657
    105          1           0       -5.023481   -4.702655   -0.494440
    106          1           0       -5.926672   -4.823015   -1.946882
    107          1           0       -6.791839   -4.333185   -0.564006
    108          1           0       -6.647603   -3.328812   -3.166419
    109          1           0       -6.254101   -1.623349   -3.286306
    110          1           0       -7.739116   -2.154473   -0.931428
    111          1           0       -8.607185   -2.855598   -2.260321
    112          1           0       -8.031149   -0.295871   -3.388428
    113          1           0       -8.024561    0.010611   -1.663983
    114          1           0      -10.368645   -1.639899   -2.259471
    115          1           0      -10.012939    0.859536   -4.010331
    116          1           0      -11.557900    0.588900   -3.233344
    117          1           0      -10.935680   -0.612046   -4.323685
    118          1           0      -10.161122    1.096701   -1.031555
    119          1           0      -10.106501   -0.470460   -0.181111
    120          1           0      -12.060851   -0.394375    0.287793
    121          1           0      -12.521114   -0.708882   -1.427942
    122          1           0      -12.813396    1.910906   -1.661145
    123          1           0      -11.996243    1.924224   -0.119095
    124          1           0      -14.475359    0.331410   -0.252315
    125          1           0      -15.778585    2.625903   -0.024140
    126          1           0      -15.597787    1.807730   -1.525801
    127          1           0      -14.546040    3.158514   -1.219610
    128          1           0      -14.207866    2.819376    1.322654
    129          1           0      -13.067151    1.562288    1.802150
    130          1           0      -14.542033    0.254738    2.961824
    131          1           0      -15.801615    0.455656    1.624815
    132          1           0      -15.307255    2.875919    3.369894
    133          1           0      -15.788486    1.412263    4.250430
    134          1           0      -17.321494    1.972138    1.931612
    135          1           0      -17.557044    0.287774    4.228186
    136          1           0      -18.665564    0.390897    2.945937
    137          1           0      -18.903892    1.453593    4.376447
    138          1           0      -17.073253    4.189722    2.689875
    139          1           0      -17.627755    3.894075    4.350633
    140          1           0      -18.809452    3.688229    3.240016
 ---------------------------------------------------------------------

 SCF Done:  E(RB-LYP) =  -3007.37550732     A.U. after   21 cycles

 Excitation energies and oscillator strengths:

 Excited State   1:      Singlet-A      1.7643 eV  702.73 nm  f=0.2769  <S**2>=0.000
     245 -> 248        0.20506
     246 -> 247        0.68096
     246 <- 247       -0.14250
 This state for optimization and/or second-order correction.
 Total Energy, E(TD-HF/TD-DFT) =  -3007.31066964
 Copying the excited state density for this state as the 1-particle RhoCI density.

 Excited State   2:      Singlet-A      1.9094 eV  649.33 nm  f=0.0553  <S**2>=0.000
     244 -> 247       -0.30261
     245 -> 247        0.58918
     246 -> 248       -0.21857

 Excited State   3:      Singlet-A      1.9787 eV  626.60 nm  f=0.0179  <S**2>=0.000
     244 -> 247        0.63673
     245 -> 247        0.27062
     246 -> 248       -0.11033

 Excited State   4:      Singlet-A      2.1433 eV  578.47 nm  f=0.0003  <S**2>=0.000
     243 -> 247        0.70527

 Excited State   5:      Singlet-A      2.2711 eV  545.93 nm  f=0.0000  <S**2>=0.000
     242 -> 247        0.70708

 The electronic state is 1-A.
 Alpha  occ. eigenvalues --  -46.27012 -18.81433 -18.81019 -18.77564 -18.76558
 Alpha  occ. eigenvalues --  -18.76490 -18.76054 -14.04217 -14.03254 -14.01797
 Alpha  occ. eigenvalues --  -14.01377 -10.04638 -10.02957 -10.00597 -10.00480
 Alpha  occ. eigenvalues --   -9.97565  -9.97358  -9.97211  -9.97155  -9.96977
 Alpha  occ. eigenvalues --   -9.96831  -9.96479  -9.96110  -9.96055  -9.95270
 Alpha  occ. eigenvalues --   -9.95144  -9.95107  -9.94981  -9.94600  -9.94357
 Alpha  occ. eigenvalues --   -9.94104  -9.93844  -9.93798  -9.93726  -9.93672
 Alpha  occ. eigenvalues --   -9.93664  -9.93560  -9.93519  -9.92977  -9.92834
 Alpha  occ. eigenvalues --   -9.92435  -9.92420  -9.92413  -9.92310  -9.92189
 Alpha  occ. eigenvalues --   -9.91994  -9.91906  -9.91846  -9.91812  -9.91780
 Alpha  occ. eigenvalues --   -9.91755  -9.91625  -9.91560  -9.91486  -9.91359
 Alpha  occ. eigenvalues --   -9.91188  -9.91094  -9.90997  -9.90941  -9.90837
 Alpha  occ. eigenvalues --   -9.90818  -9.90738  -9.90735  -9.90717  -9.90476
 Alpha  occ. eigenvalues --   -9.90453  -2.91745  -1.72164  -1.71627  -1.71463
 Alpha  occ. eigenvalues --   -0.98448  -0.97685  -0.91484  -0.90934  -0.89987
 Alpha  occ. eigenvalues --   -0.89728  -0.86066  -0.85648  -0.84618  -0.84152
 Alpha  occ. eigenvalues --   -0.75764  -0.74360  -0.73932  -0.73292  -0.72203
 Alpha  occ. eigenvalues --   -0.71887  -0.71577  -0.70861  -0.70787  -0.69920
 Alpha  occ. eigenvalues --   -0.69720  -0.69447  -0.68581  -0.67508  -0.67198
 Alpha  occ. eigenvalues --   -0.66500  -0.65583  -0.65057  -0.64731  -0.64206
 Alpha  occ. eigenvalues --   -0.63949  -0.62907  -0.62415  -0.61389  -0.60811
 Alpha  occ. eigenvalues --   -0.60554  -0.60223  -0.59722  -0.59467  -0.58798
 Alpha  occ. eigenvalues --   -0.58528  -0.57594  -0.56568  -0.55868  -0.54396
 Alpha  occ. eigenvalues --   -0.53966  -0.53553  -0.52940  -0.52420  -0.51692
 Alpha  occ. eigenvalues --   -0.51456  -0.51270  -0.50870  -0.49957  -0.49744
 Alpha  occ. eigenvalues --   -0.49568  -0.48902  -0.48306  -0.47587  -0.46944
 Alpha  occ. eigenvalues --   -0.46395  -0.46264  -0.46002  -0.45174  -0.45099
 Alpha  occ. eigenvalues --   -0.44523  -0.44104  -0.43111  -0.43100  -0.42494
 Alpha  occ. eigenvalues --   -0.42033  -0.41992  -0.41731  -0.41590  -0.41270
 Alpha  occ. eigenvalues --   -0.41148  -0.41047  -0.40543  -0.40294  -0.39984
 Alpha  occ. eigenvalues --   -0.39964  -0.39595  -0.39437  -0.39115  -0.39054
 Alpha  occ. eigenvalues --   -0.38804  -0.38630  -0.38355  -0.38260  -0.38203
 Alpha  occ. eigenvalues --   -0.38124  -0.37951  -0.37876  -0.37779  -0.37570
 Alpha  occ. eigenvalues --   -0.37169  -0.37113  -0.36983  -0.36758  -0.36434
 Alpha  occ. eigenvalues --   -0.36360  -0.36282  -0.36149  -0.35872  -0.35461
 Alpha  occ. eigenvalues --   -0.35404  -0.35041  -0.34994  -0.34852  -0.34570
 Alpha  occ. eigenvalues --   -0.34305  -0.34246  -0.34086  -0.33834  -0.33541
 Alpha  occ. eigenvalues --   -0.33413  -0.33354  -0.33319  -0.33280  -0.33089
 Alpha  occ. eigenvalues --   -0.32976  -0.32765  -0.32651  -0.32562  -0.32304
 Alpha  occ. eigenvalues --   -0.32187  -0.32141  -0.32080  -0.31719  -0.31478
 Alpha  occ. eigenvalues --   -0.31376  -0.31083  -0.31032  -0.30838  -0.30753
 Alpha  occ. eigenvalues --   -0.30615  -0.30446  -0.30266  -0.30119  -0.30017
 Alpha  occ. eigenvalues --   -0.29781  -0.29644  -0.29505  -0.29244  -0.29023
 Alpha  occ. eigenvalues --   -0.28685  -0.28533  -0.28145  -0.28041  -0.27670
 Alpha  occ. eigenvalues --   -0.27192  -0.27138  -0.27004  -0.26853  -0.26789
 Alpha  occ. eigenvalues --   -0.26329  -0.26025  -0.25863  -0.25713  -0.25554
 Alpha  occ. eigenvalues --   -0.25308  -0.24968  -0.24717  -0.24155  -0.23951
 Alpha  occ. eigenvalues --   -0.23472  -0.22579  -0.22180  -0.21753  -0.21217
 Alpha  occ. eigenvalues --   -0.20764  -0.20265  -0.19688  -0.19037  -0.17399
 Alpha  occ. eigenvalues --   -0.16159
 Alpha virt. eigenvalues --   -0.11919  -0.07875  -0.07052  -0.05325  -0.03332
 Alpha virt. eigenvalues --   -0.02427  -0.01895  -0.01726  -0.00793  -0.00514
 Alpha virt. eigenvalues --    0.00637   0.01254   0.01897   0.02606   0.02915

 Mulliken charges:
               1
     1  Mg   0.712182
     2  C    0.004263
     3  C   -0.094193
     4  C   -0.026995
     5  C   -0.057090
     6  N   -0.173180
     7  C   -0.061817
     8  C    0.058390
     9  C   -0.063971
    10  C   -0.023468
    11  C    0.104868
    12  C    0.100166
    13  C    0.140913
    14  C    0.061268
    15  O   -0.156430
    16  O   -0.286527
    17  N   -0.298559
    18  C    0.231564
    19  C   -0.142940
    20  C    0.049050
    21  C    0.079471
    22  C    0.161165
    23  C   -0.072000
    24  O   -0.197122
    25  C    0.109274
    26  N   -0.262078
    27  C    0.028793
    28  C    0.002902
    29  C    0.019297
    30  C    0.040377
    31  C    0.157713
    32  C    0.081311
    33  C    0.070432
    34  N   -0.327490
    35  C    0.112617
    36  C   -0.160384
    37  C    0.058998
    38  C    0.075606
    39  C    0.155747
    40  C    0.012448
    41  O   -0.124090
    42  C    0.076643
    43  C    0.058680
    44  O   -0.139638
    45  O   -0.289130
    46  C    0.221492
    47  C    0.335630
    48  C   -0.130653
    49  C   -0.109654
    50  C    0.147488
    51  C    0.133951
    52  C    0.023429
    53  C    0.156863
    54  C   -0.055443
    55  C    0.101529
    56  C    0.096842
    57  C    0.089647
    58  C    0.081401
    59  C   -0.129339
    60  C    0.112901
    61  C    0.123742
    62  C    0.100868
    63  C    0.066138
    64  C   -0.091760
    65  C    0.118842
    66  C    0.091079
    67  H   -0.046243
    68  H   -0.032199
    69  H   -0.060832
    70  H   -0.006636
    71  H   -0.012517
    72  H    0.009898
    73  H   -0.027898
    74  H   -0.003059
    75  H   -0.021825
    76  H    0.020510
    77  H   -0.017966
    78  H   -0.000230
    79  H    0.004704
    80  H    0.007392
    81  H   -0.016032
    82  H    0.011442
    83  H    0.012864
    84  H   -0.010416
    85  H   -0.022453
    86  H   -0.037834
    87  H   -0.003713
    88  H   -0.005990
    89  H   -0.005060
    90  H   -0.013815
    91  H   -0.019320
    92  H   -0.013514
    93  H    0.002496
    94  H   -0.009864
    95  H   -0.001794
    96  H    0.001526
    97  H    0.006838
    98  H    0.009966
    99  H    0.013835
   100  H    0.004049
   101  H    0.016470
   102  H   -0.005360
   103  H   -0.000412
   104  H   -0.047304
   105  H   -0.014654
   106  H   -0.019909
   107  H    0.003268
   108  H   -0.042826
   109  H   -0.038781
   110  H   -0.020227
   111  H   -0.028974
   112  H   -0.024056
   113  H   -0.033789
   114  H   -0.041405
   115  H   -0.017798
   116  H   -0.024852
   117  H   -0.019642
   118  H   -0.029326
   119  H   -0.048822
   120  H   -0.033643
   121  H   -0.021623
   122  H   -0.031872
   123  H   -0.046609
   124  H   -0.041211
   125  H   -0.020402
   126  H   -0.029918
   127  H   -0.013111
   128  H   -0.031023
   129  H   -0.044616
   130  H   -0.024376
   131  H   -0.014785
   132  H   -0.031885
   133  H   -0.048944
   134  H   -0.033745
   135  H   -0.024510
   136  H   -0.018604
   137  H   -0.012406
   138  H   -0.002407
   139  H   -0.024048
   140  H   -0.020200
 Sum of Mulliken charges =  -0.00000

 Dipole moment (field-independent basis, Debye):
    X=             -3.4111    Y=              2.7378    Z=              0.0505  Tot=              4.3741
 Quadrupole moment (field-independent basis, Debye-Ang):
   XX=           -400.2427   YY=           -426.3609   ZZ=           -406.5651
   XY=              4.7961   XZ=             23.3395   YZ=              4.1182

 Normal termination of Gaussian 16 at Tue May  3 16:09:10 2022.
