 Gaussian 16, Revision A.03,
 Gaussian 16:  ES64L-G16RevA.03 25-Dec-2016

 -----------------------------------
 #p cam-b3lyp/Def2SVP td=(nstates=5)
 -----------------------------------

 --------------------------------------------------------
 step_1001_chromophore_16 TDDFT with cam-b3lyp functional
 --------------------------------------------------------
 Symbolic Z-matrix:
 Charge =  0 Multiplicity = 1

                         Standard orientation:
 ---------------------------------------------------------------------
 Center     Atomic      Atomic             Coordinates (Angstroms)
 Number     Number       Type             X           Y           Z
 ---------------------------------------------------------------------
      1         12           0        6.568154    0.612523    0.280203
      2          6           0        4.163866   -2.089815    0.021951
      3          6           0        4.160915    2.619808   -1.301377
      4          6           0        8.770410    3.260627    0.279640
      5          6           0        8.908243   -1.550752    1.352040
      6          7           0        4.440042    0.210070   -0.600166
      7          6           0        3.595711   -0.867944   -0.467876
      8          6           0        2.142949   -0.673716   -0.852146
      9          6           0        2.149818    0.842520   -1.309729
     10          6           0        3.675520    1.259171   -1.046778
     11          6           0        1.785313    0.977946   -2.793361
     12          6           0        1.149796   -0.927161    0.327848
     13          6           0       -0.236732   -0.383509    0.155495
     14          6           0       -1.391948   -1.373749    0.463835
     15          8           0       -1.445261   -2.118766    1.396883
     16          8           0       -2.347491   -1.495668   -0.565946
     17          7           0        6.486366    2.579210   -0.498135
     18          6           0        5.389633    3.189840   -1.046650
     19          6           0        5.632633    4.612538   -1.209015
     20          6           0        6.981677    4.892053   -0.765038
     21          6           0        7.516603    3.551717   -0.375644
     22          6           0        4.565000    5.622271   -1.754270
     23          6           0        7.785870    6.138934   -0.763987
     24          8           0        9.037166    6.176193   -0.589744
     25          6           0        7.017958    7.475445   -1.055187
     26          7           0        8.535964    0.808050    0.783141
     27          6           0        9.249219    2.021626    0.805214
     28          6           0       10.743808    1.775847    1.060942
     29          6           0       10.664494    0.313830    1.682625
     30          6           0        9.300629   -0.229396    1.150651
     31          6           0       11.507498    1.894409   -0.275239
     32          6           0       10.621552    0.386071    3.187224
     33          6           0       11.307991   -0.829469    3.905119
     34          7           0        6.566887   -1.336842    0.757286
     35          6           0        7.587193   -2.122412    1.258155
     36          6           0        7.144987   -3.499552    1.484446
     37          6           0        5.810485   -3.540162    1.034864
     38          6           0        5.468844   -2.229267    0.652629
     39          6           0        8.080697   -4.631518    1.866729
     40          6           0        4.644076   -4.413251    0.828550
     41          8           0        4.507724   -5.632397    0.918560
     42          6           0        3.544028   -3.435753    0.332329
     43          6           0        3.008781   -3.985078   -0.915030
     44          8           0        3.567637   -4.060230   -1.957855
     45          8           0        1.821505   -4.655456   -0.643762
     46          6           0        1.185129   -5.354532   -1.773814
     47          6           0       -3.416101   -2.410083   -0.382798
     48          6           0       -4.516596   -2.053165   -1.287658
     49          6           0       -5.517121   -2.824986   -1.568080
     50          6           0       -5.823524   -4.212962   -1.050103
     51          6           0       -6.528113   -2.412644   -2.585950
     52          6           0       -7.936198   -2.037217   -1.997309
     53          6           0       -8.431584   -0.642409   -2.436555
     54          6           0       -9.983887   -0.621862   -2.329756
     55          6           0      -10.639179    0.094364   -3.549184
     56          6           0      -10.498429    0.060528   -1.048077
     57          6           0      -11.976255   -0.058026   -0.745388
     58          6           0      -12.662409    1.334388   -0.748666
     59          6           0      -14.078945    1.331177   -0.073837
     60          6           0      -15.024101    2.303729   -0.742262
     61          6           0      -14.075710    1.742895    1.431323
     62          6           0      -15.054568    0.920865    2.267773
     63          6           0      -15.809507    1.912449    3.281566
     64          6           0      -17.290186    2.102404    3.013263
     65          6           0      -18.175190    1.010773    3.696531
     66          6           0      -17.727479    3.578641    3.311233
     67          1           0        3.239225    3.187794   -1.443091
     68          1           0        9.389704    4.150736    0.411653
     69          1           0        9.673793   -2.196447    1.789285
     70          1           0        1.859236   -1.291620   -1.704339
     71          1           0        1.435222    1.564991   -0.916197
     72          1           0        2.656083    1.385056   -3.309217
     73          1           0        0.928307    1.651354   -2.791729
     74          1           0        1.286482    0.153571   -3.302163
     75          1           0        1.571065   -0.435616    1.204955
     76          1           0        1.029548   -2.004005    0.445062
     77          1           0       -0.374569    0.047389   -0.835861
     78          1           0       -0.356777    0.455051    0.842098
     79          1           0        5.068557    6.127032   -2.579726
     80          1           0        4.180527    6.366143   -1.057025
     81          1           0        3.657957    5.145259   -2.125936
     82          1           0        6.166757    7.599516   -0.385594
     83          1           0        6.764932    7.530067   -2.113242
     84          1           0        7.744983    8.268366   -0.877365
     85          1           0       11.077109    2.504642    1.800148
     86          1           0       11.456504   -0.357283    1.348719
     87          1           0       10.830262    2.342870   -1.001405
     88          1           0       11.819850    0.917133   -0.640984
     89          1           0       12.316489    2.621531   -0.203714
     90          1           0        9.563281    0.488860    3.425774
     91          1           0       11.130247    1.222263    3.665611
     92          1           0       11.757732   -0.371577    4.786572
     93          1           0       11.966119   -1.418932    3.267879
     94          1           0       10.544892   -1.486757    4.320755
     95          1           0        7.731442   -5.637619    1.636051
     96          1           0        8.263624   -4.666100    2.940708
     97          1           0        8.988378   -4.510498    1.273918
     98          1           0        2.684289   -3.283133    0.984862
     99          1           0        1.177562   -4.700279   -2.644986
    100          1           0        0.171868   -5.654588   -1.505618
    101          1           0        1.642561   -6.323819   -1.972715
    102          1           0       -3.801545   -2.277914    0.628146
    103          1           0       -3.109225   -3.445260   -0.530794
    104          1           0       -4.440007   -1.078599   -1.770657
    105          1           0       -5.023481   -4.702655   -0.494440
    106          1           0       -5.926672   -4.823015   -1.946882
    107          1           0       -6.791839   -4.333185   -0.564006
    108          1           0       -6.647603   -3.328812   -3.166419
    109          1           0       -6.254101   -1.623349   -3.286306
    110          1           0       -7.739116   -2.154473   -0.931428
    111          1           0       -8.607185   -2.855598   -2.260321
    112          1           0       -8.031149   -0.295871   -3.388428
    113          1           0       -8.024561    0.010611   -1.663983
    114          1           0      -10.368645   -1.639899   -2.259471
    115          1           0      -10.012939    0.859536   -4.010331
    116          1           0      -11.557900    0.588900   -3.233344
    117          1           0      -10.935680   -0.612046   -4.323685
    118          1           0      -10.161122    1.096701   -1.031555
    119          1           0      -10.106501   -0.470460   -0.181111
    120          1           0      -12.060851   -0.394375    0.287793
    121          1           0      -12.521114   -0.708882   -1.427942
    122          1           0      -12.813396    1.910906   -1.661145
    123          1           0      -11.996243    1.924224   -0.119095
    124          1           0      -14.475359    0.331410   -0.252315
    125          1           0      -15.778585    2.625903   -0.024140
    126          1           0      -15.597787    1.807730   -1.525801
    127          1           0      -14.546040    3.158514   -1.219610
    128          1           0      -14.207866    2.819376    1.322654
    129          1           0      -13.067151    1.562288    1.802150
    130          1           0      -14.542033    0.254738    2.961824
    131          1           0      -15.801615    0.455656    1.624815
    132          1           0      -15.307255    2.875919    3.369894
    133          1           0      -15.788486    1.412263    4.250430
    134          1           0      -17.321494    1.972138    1.931612
    135          1           0      -17.557044    0.287774    4.228186
    136          1           0      -18.665564    0.390897    2.945937
    137          1           0      -18.903892    1.453593    4.376447
    138          1           0      -17.073253    4.189722    2.689875
    139          1           0      -17.627755    3.894075    4.350633
    140          1           0      -18.809452    3.688229    3.240016
 ---------------------------------------------------------------------

 SCF Done:  E(RCAM-B3LYP) =  -3007.16155270     A.U. after   17 cycles

 Excitation energies and oscillator strengths:

 Excited State   1:      Singlet-A      1.6806 eV  737.76 nm  f=0.3602  <S**2>=0.000
     245 -> 248        0.19595
     246 -> 247        0.67911
     245 <- 248        0.10912
 This state for optimization and/or second-order correction.
 Total Energy, E(TD-HF/TD-DFT) =  -3007.09979336
 Copying the excited state density for this state as the 1-particle RhoCI density.

 Excited State   2:      Singlet-A      2.1528 eV  575.91 nm  f=0.0991  <S**2>=0.000
     245 -> 247        0.63134
     246 -> 248       -0.30252

 Excited State   3:      Singlet-A      3.3616 eV  368.83 nm  f=0.5061  <S**2>=0.000
     242 -> 247        0.24937
     243 -> 247       -0.10495
     245 -> 247        0.26079
     246 -> 248        0.58329
     245 <- 247       -0.10338

 Excited State   4:      Singlet-A      3.4221 eV  362.31 nm  f=0.0629  <S**2>=0.000
     242 -> 247       -0.18329
     243 -> 247        0.62053
     244 -> 247        0.14694
     246 -> 248        0.17565

 Excited State   5:      Singlet-A      3.5390 eV  350.34 nm  f=0.0283  <S**2>=0.000
     240 -> 247        0.47658
     240 -> 248       -0.19448
     240 -> 249       -0.33654
     240 -> 250        0.19952
     243 -> 247       -0.11016

 The electronic state is 1-A.
 Alpha  occ. eigenvalues --  -46.88444 -19.24238 -19.23894 -19.20657 -19.19700
 Alpha  occ. eigenvalues --  -19.19630 -19.19482 -14.43348 -14.41916 -14.40346
 Alpha  occ. eigenvalues --  -14.39694 -10.40018 -10.38317 -10.36037 -10.35881
 Alpha  occ. eigenvalues --  -10.32312 -10.31694 -10.31676 -10.31653 -10.31158
 Alpha  occ. eigenvalues --  -10.31018 -10.30667 -10.30634 -10.30212 -10.30083
 Alpha  occ. eigenvalues --  -10.29390 -10.29227 -10.29187 -10.28799 -10.28667
 Alpha  occ. eigenvalues --  -10.28270 -10.28171 -10.27998 -10.27966 -10.27951
 Alpha  occ. eigenvalues --  -10.27771 -10.27704 -10.27341 -10.26842 -10.26770
 Alpha  occ. eigenvalues --  -10.26562 -10.26259 -10.26083 -10.25900 -10.25880
 Alpha  occ. eigenvalues --  -10.25879 -10.25820 -10.25725 -10.25490 -10.25374
 Alpha  occ. eigenvalues --  -10.25328 -10.25291 -10.25253 -10.25175 -10.25020
 Alpha  occ. eigenvalues --  -10.24887 -10.24816 -10.24621 -10.24594 -10.24549
 Alpha  occ. eigenvalues --  -10.24538 -10.24478 -10.24370 -10.24336 -10.24145
 Alpha  occ. eigenvalues --  -10.24071  -3.17089  -1.91983  -1.91545  -1.91404
 Alpha  occ. eigenvalues --   -1.16983  -1.16313  -1.09791  -1.08812  -1.08246
 Alpha  occ. eigenvalues --   -1.07877  -1.03791  -1.03221  -1.02126  -1.01609
 Alpha  occ. eigenvalues --   -0.92860  -0.91291  -0.90815  -0.90136  -0.88928
 Alpha  occ. eigenvalues --   -0.88459  -0.88248  -0.87453  -0.87357  -0.86801
 Alpha  occ. eigenvalues --   -0.86153  -0.85749  -0.84860  -0.83589  -0.83351
 Alpha  occ. eigenvalues --   -0.82532  -0.81551  -0.80999  -0.80713  -0.80142
 Alpha  occ. eigenvalues --   -0.79716  -0.78585  -0.78276  -0.76776  -0.76145
 Alpha  occ. eigenvalues --   -0.75887  -0.75589  -0.74955  -0.74760  -0.73996
 Alpha  occ. eigenvalues --   -0.73642  -0.72531  -0.71452  -0.70715  -0.69093
 Alpha  occ. eigenvalues --   -0.68483  -0.68101  -0.67426  -0.66785  -0.65933
 Alpha  occ. eigenvalues --   -0.65462  -0.65443  -0.64913  -0.63827  -0.63778
 Alpha  occ. eigenvalues --   -0.63365  -0.62836  -0.62208  -0.61183  -0.60647
 Alpha  occ. eigenvalues --   -0.60015  -0.59762  -0.59563  -0.58512  -0.58437
 Alpha  occ. eigenvalues --   -0.58072  -0.57474  -0.56355  -0.56229  -0.55639
 Alpha  occ. eigenvalues --   -0.55273  -0.54867  -0.54624  -0.54366  -0.54311
 Alpha  occ. eigenvalues --   -0.54013  -0.53931  -0.53393  -0.53013  -0.52872
 Alpha  occ. eigenvalues --   -0.52519  -0.52492  -0.52272  -0.52110  -0.51684
 Alpha  occ. eigenvalues --   -0.51576  -0.51116  -0.50942  -0.50667  -0.50570
 Alpha  occ. eigenvalues --   -0.50428  -0.50233  -0.50070  -0.50045  -0.49866
 Alpha  occ. eigenvalues --   -0.49665  -0.49500  -0.49273  -0.49091  -0.48899
 Alpha  occ. eigenvalues --   -0.48787  -0.48645  -0.48407  -0.48189  -0.47669
 Alpha  occ. eigenvalues --   -0.47454  -0.47206  -0.47046  -0.46651  -0.46465
 Alpha  occ. eigenvalues --   -0.46146  -0.45993  -0.45936  -0.45880  -0.45290
 Alpha  occ. eigenvalues --   -0.45241  -0.45080  -0.44939  -0.44909  -0.44883
 Alpha  occ. eigenvalues --   -0.44600  -0.44461  -0.44170  -0.44150  -0.44099
 Alpha  occ. eigenvalues --   -0.43842  -0.43719  -0.43682  -0.43329  -0.43113
 Alpha  occ. eigenvalues --   -0.42945  -0.42700  -0.42404  -0.42387  -0.42096
 Alpha  occ. eigenvalues --   -0.41975  -0.41838  -0.41516  -0.41503  -0.41378
 Alpha  occ. eigenvalues --   -0.41018  -0.40862  -0.40777  -0.40670  -0.40310
 Alpha  occ. eigenvalues --   -0.39882  -0.39591  -0.39162  -0.39049  -0.38494
 Alpha  occ. eigenvalues --   -0.38434  -0.38014  -0.37891  -0.37758  -0.37617
 Alpha  occ. eigenvalues --   -0.37096  -0.36944  -0.36701  -0.36549  -0.36302
 Alpha  occ. eigenvalues --   -0.36269  -0.36043  -0.35591  -0.34974  -0.34692
 Alpha  occ. eigenvalues --   -0.34302  -0.33789  -0.33175  -0.31716  -0.31556
 Alpha  occ. eigenvalues --   -0.31245  -0.30467  -0.29962  -0.29945  -0.24062
 Alpha  occ. eigenvalues --   -0.21451
 Alpha virt. eigenvalues --   -0.08983  -0.02744  -0.00726   0.01583   0.02901
 Alpha virt. eigenvalues --    0.04412   0.05305   0.05899   0.06025   0.06957
 Alpha virt. eigenvalues --    0.07538   0.07886   0.08457   0.08819   0.09212

 Mulliken charges:
               1
     1  Mg   0.844331
     2  C   -0.005736
     3  C   -0.102169
     4  C   -0.059045
     5  C   -0.070818
     6  N   -0.232066
     7  C   -0.031167
     8  C    0.010962
     9  C   -0.116290
    10  C   -0.004820
    11  C    0.046682
    12  C    0.050453
    13  C    0.068525
    14  C    0.145828
    15  O   -0.194924
    16  O   -0.353151
    17  N   -0.385230
    18  C    0.235344
    19  C   -0.146465
    20  C   -0.023130
    21  C    0.112631
    22  C    0.108728
    23  C    0.005452
    24  O   -0.237420
    25  C    0.031034
    26  N   -0.338917
    27  C    0.057920
    28  C   -0.054263
    29  C   -0.040858
    30  C    0.063086
    31  C    0.097456
    32  C    0.029575
    33  C    0.007747
    34  N   -0.414004
    35  C    0.118287
    36  C   -0.158798
    37  C   -0.014866
    38  C    0.102092
    39  C    0.102397
    40  C    0.109937
    41  O   -0.161986
    42  C   -0.013832
    43  C    0.150247
    44  O   -0.173855
    45  O   -0.353232
    46  C    0.183501
    47  C    0.299609
    48  C   -0.144722
    49  C   -0.142491
    50  C    0.086045
    51  C    0.073951
    52  C   -0.024932
    53  C    0.097512
    54  C   -0.114817
    55  C    0.046235
    56  C    0.044931
    57  C    0.030641
    58  C    0.032984
    59  C   -0.180434
    60  C    0.053615
    61  C    0.065568
    62  C    0.045105
    63  C    0.012118
    64  C   -0.148591
    65  C    0.056195
    66  C    0.035434
    67  H   -0.013766
    68  H    0.008124
    69  H   -0.027135
    70  H    0.025871
    71  H    0.020123
    72  H    0.036761
    73  H   -0.003882
    74  H    0.023342
    75  H    0.010738
    76  H    0.046317
    77  H    0.015799
    78  H    0.032579
    79  H    0.029640
    80  H    0.034347
    81  H    0.013442
    82  H    0.038437
    83  H    0.040514
    84  H    0.026194
    85  H    0.013145
    86  H   -0.002556
    87  H    0.023102
    88  H    0.019093
    89  H    0.019901
    90  H    0.015195
    91  H    0.008311
    92  H    0.010863
    93  H    0.023895
    94  H    0.013530
    95  H    0.026042
    96  H    0.025975
    97  H    0.029468
    98  H    0.054597
    99  H    0.036069
   100  H    0.027098
   101  H    0.038997
   102  H    0.025007
   103  H    0.023963
   104  H   -0.009437
   105  H    0.011291
   106  H    0.005645
   107  H    0.028158
   108  H   -0.011790
   109  H   -0.008022
   110  H    0.006276
   111  H   -0.001404
   112  H    0.004701
   113  H   -0.004103
   114  H   -0.009353
   115  H    0.006093
   116  H   -0.003376
   117  H    0.005565
   118  H   -0.001264
   119  H   -0.018128
   120  H   -0.003957
   121  H    0.005785
   122  H   -0.004490
   123  H   -0.018253
   124  H   -0.009501
   125  H    0.000601
   126  H   -0.003454
   127  H    0.011044
   128  H   -0.002214
   129  H   -0.014951
   130  H    0.006019
   131  H    0.010998
   132  H   -0.002553
   133  H   -0.019247
   134  H   -0.005420
   135  H   -0.000195
   136  H    0.006040
   137  H    0.011601
   138  H    0.018522
   139  H   -0.000311
   140  H    0.004812
 Sum of Mulliken charges =  -0.00000

 Dipole moment (field-independent basis, Debye):
    X=             -3.7493    Y=              3.8604    Z=             -0.2110  Tot=              5.3855
 Quadrupole moment (field-independent basis, Debye-Ang):
   XX=           -403.2838   YY=           -420.5755   ZZ=           -406.3993
   XY=             10.3534   XZ=             22.8243   YZ=              3.3266

 Normal termination of Gaussian 16 at Tue May  3 14:45:11 2022.
