 Gaussian 16, Revision A.03,
 Gaussian 16:  ES64L-G16RevA.03 25-Dec-2016

 ---------------------------------
 #p PBE1PBE/Def2SVP td=(nstates=5)
 ---------------------------------

 ------------------------------------------------------
 step_1001_chromophore_16 TDDFT with PBE1PBE functional
 ------------------------------------------------------
 Symbolic Z-matrix:
 Charge =  0 Multiplicity = 1

                         Standard orientation:
 ---------------------------------------------------------------------
 Center     Atomic      Atomic             Coordinates (Angstroms)
 Number     Number       Type             X           Y           Z
 ---------------------------------------------------------------------
      1         12           0        6.568154    0.612523    0.280203
      2          6           0        4.163866   -2.089815    0.021951
      3          6           0        4.160915    2.619808   -1.301377
      4          6           0        8.770410    3.260627    0.279640
      5          6           0        8.908243   -1.550752    1.352040
      6          7           0        4.440042    0.210070   -0.600166
      7          6           0        3.595711   -0.867944   -0.467876
      8          6           0        2.142949   -0.673716   -0.852146
      9          6           0        2.149818    0.842520   -1.309729
     10          6           0        3.675520    1.259171   -1.046778
     11          6           0        1.785313    0.977946   -2.793361
     12          6           0        1.149796   -0.927161    0.327848
     13          6           0       -0.236732   -0.383509    0.155495
     14          6           0       -1.391948   -1.373749    0.463835
     15          8           0       -1.445261   -2.118766    1.396883
     16          8           0       -2.347491   -1.495668   -0.565946
     17          7           0        6.486366    2.579210   -0.498135
     18          6           0        5.389633    3.189840   -1.046650
     19          6           0        5.632633    4.612538   -1.209015
     20          6           0        6.981677    4.892053   -0.765038
     21          6           0        7.516603    3.551717   -0.375644
     22          6           0        4.565000    5.622271   -1.754270
     23          6           0        7.785870    6.138934   -0.763987
     24          8           0        9.037166    6.176193   -0.589744
     25          6           0        7.017958    7.475445   -1.055187
     26          7           0        8.535964    0.808050    0.783141
     27          6           0        9.249219    2.021626    0.805214
     28          6           0       10.743808    1.775847    1.060942
     29          6           0       10.664494    0.313830    1.682625
     30          6           0        9.300629   -0.229396    1.150651
     31          6           0       11.507498    1.894409   -0.275239
     32          6           0       10.621552    0.386071    3.187224
     33          6           0       11.307991   -0.829469    3.905119
     34          7           0        6.566887   -1.336842    0.757286
     35          6           0        7.587193   -2.122412    1.258155
     36          6           0        7.144987   -3.499552    1.484446
     37          6           0        5.810485   -3.540162    1.034864
     38          6           0        5.468844   -2.229267    0.652629
     39          6           0        8.080697   -4.631518    1.866729
     40          6           0        4.644076   -4.413251    0.828550
     41          8           0        4.507724   -5.632397    0.918560
     42          6           0        3.544028   -3.435753    0.332329
     43          6           0        3.008781   -3.985078   -0.915030
     44          8           0        3.567637   -4.060230   -1.957855
     45          8           0        1.821505   -4.655456   -0.643762
     46          6           0        1.185129   -5.354532   -1.773814
     47          6           0       -3.416101   -2.410083   -0.382798
     48          6           0       -4.516596   -2.053165   -1.287658
     49          6           0       -5.517121   -2.824986   -1.568080
     50          6           0       -5.823524   -4.212962   -1.050103
     51          6           0       -6.528113   -2.412644   -2.585950
     52          6           0       -7.936198   -2.037217   -1.997309
     53          6           0       -8.431584   -0.642409   -2.436555
     54          6           0       -9.983887   -0.621862   -2.329756
     55          6           0      -10.639179    0.094364   -3.549184
     56          6           0      -10.498429    0.060528   -1.048077
     57          6           0      -11.976255   -0.058026   -0.745388
     58          6           0      -12.662409    1.334388   -0.748666
     59          6           0      -14.078945    1.331177   -0.073837
     60          6           0      -15.024101    2.303729   -0.742262
     61          6           0      -14.075710    1.742895    1.431323
     62          6           0      -15.054568    0.920865    2.267773
     63          6           0      -15.809507    1.912449    3.281566
     64          6           0      -17.290186    2.102404    3.013263
     65          6           0      -18.175190    1.010773    3.696531
     66          6           0      -17.727479    3.578641    3.311233
     67          1           0        3.239225    3.187794   -1.443091
     68          1           0        9.389704    4.150736    0.411653
     69          1           0        9.673793   -2.196447    1.789285
     70          1           0        1.859236   -1.291620   -1.704339
     71          1           0        1.435222    1.564991   -0.916197
     72          1           0        2.656083    1.385056   -3.309217
     73          1           0        0.928307    1.651354   -2.791729
     74          1           0        1.286482    0.153571   -3.302163
     75          1           0        1.571065   -0.435616    1.204955
     76          1           0        1.029548   -2.004005    0.445062
     77          1           0       -0.374569    0.047389   -0.835861
     78          1           0       -0.356777    0.455051    0.842098
     79          1           0        5.068557    6.127032   -2.579726
     80          1           0        4.180527    6.366143   -1.057025
     81          1           0        3.657957    5.145259   -2.125936
     82          1           0        6.166757    7.599516   -0.385594
     83          1           0        6.764932    7.530067   -2.113242
     84          1           0        7.744983    8.268366   -0.877365
     85          1           0       11.077109    2.504642    1.800148
     86          1           0       11.456504   -0.357283    1.348719
     87          1           0       10.830262    2.342870   -1.001405
     88          1           0       11.819850    0.917133   -0.640984
     89          1           0       12.316489    2.621531   -0.203714
     90          1           0        9.563281    0.488860    3.425774
     91          1           0       11.130247    1.222263    3.665611
     92          1           0       11.757732   -0.371577    4.786572
     93          1           0       11.966119   -1.418932    3.267879
     94          1           0       10.544892   -1.486757    4.320755
     95          1           0        7.731442   -5.637619    1.636051
     96          1           0        8.263624   -4.666100    2.940708
     97          1           0        8.988378   -4.510498    1.273918
     98          1           0        2.684289   -3.283133    0.984862
     99          1           0        1.177562   -4.700279   -2.644986
    100          1           0        0.171868   -5.654588   -1.505618
    101          1           0        1.642561   -6.323819   -1.972715
    102          1           0       -3.801545   -2.277914    0.628146
    103          1           0       -3.109225   -3.445260   -0.530794
    104          1           0       -4.440007   -1.078599   -1.770657
    105          1           0       -5.023481   -4.702655   -0.494440
    106          1           0       -5.926672   -4.823015   -1.946882
    107          1           0       -6.791839   -4.333185   -0.564006
    108          1           0       -6.647603   -3.328812   -3.166419
    109          1           0       -6.254101   -1.623349   -3.286306
    110          1           0       -7.739116   -2.154473   -0.931428
    111          1           0       -8.607185   -2.855598   -2.260321
    112          1           0       -8.031149   -0.295871   -3.388428
    113          1           0       -8.024561    0.010611   -1.663983
    114          1           0      -10.368645   -1.639899   -2.259471
    115          1           0      -10.012939    0.859536   -4.010331
    116          1           0      -11.557900    0.588900   -3.233344
    117          1           0      -10.935680   -0.612046   -4.323685
    118          1           0      -10.161122    1.096701   -1.031555
    119          1           0      -10.106501   -0.470460   -0.181111
    120          1           0      -12.060851   -0.394375    0.287793
    121          1           0      -12.521114   -0.708882   -1.427942
    122          1           0      -12.813396    1.910906   -1.661145
    123          1           0      -11.996243    1.924224   -0.119095
    124          1           0      -14.475359    0.331410   -0.252315
    125          1           0      -15.778585    2.625903   -0.024140
    126          1           0      -15.597787    1.807730   -1.525801
    127          1           0      -14.546040    3.158514   -1.219610
    128          1           0      -14.207866    2.819376    1.322654
    129          1           0      -13.067151    1.562288    1.802150
    130          1           0      -14.542033    0.254738    2.961824
    131          1           0      -15.801615    0.455656    1.624815
    132          1           0      -15.307255    2.875919    3.369894
    133          1           0      -15.788486    1.412263    4.250430
    134          1           0      -17.321494    1.972138    1.931612
    135          1           0      -17.557044    0.287774    4.228186
    136          1           0      -18.665564    0.390897    2.945937
    137          1           0      -18.903892    1.453593    4.376447
    138          1           0      -17.073253    4.189722    2.689875
    139          1           0      -17.627755    3.894075    4.350633
    140          1           0      -18.809452    3.688229    3.240016
 ---------------------------------------------------------------------

 SCF Done:  E(RPBE1PBE) =  -3005.35032487     A.U. after   15 cycles

 Excitation energies and oscillator strengths:

 Excited State   1:      Singlet-A      1.8266 eV  678.76 nm  f=0.3481  <S**2>=0.000
     245 -> 248        0.18844
     246 -> 247        0.68636
     246 <- 247       -0.10004
 This state for optimization and/or second-order correction.
 Total Energy, E(TD-HF/TD-DFT) =  -3005.28319711
 Copying the excited state density for this state as the 1-particle RhoCI density.

 Excited State   2:      Singlet-A      2.1483 eV  577.11 nm  f=0.0978  <S**2>=0.000
     245 -> 247        0.64596
     246 -> 248       -0.27193

 Excited State   3:      Singlet-A      3.0504 eV  406.46 nm  f=0.0004  <S**2>=0.000
     241 -> 247        0.26253
     241 -> 249        0.10499
     242 -> 247        0.32666
     243 -> 247        0.52328

 Excited State   4:      Singlet-A      3.1029 eV  399.57 nm  f=0.0439  <S**2>=0.000
     241 -> 247       -0.25632
     242 -> 247       -0.36124
     243 -> 247        0.44113
     246 -> 248        0.26229

 Excited State   5:      Singlet-A      3.1462 eV  394.07 nm  f=0.2185  <S**2>=0.000
     240 -> 247        0.10202
     241 -> 247        0.31972
     243 -> 247       -0.14429
     245 -> 247        0.18643
     246 -> 248        0.52352
     246 -> 249       -0.16968

 The electronic state is 1-A.
 Alpha  occ. eigenvalues --  -46.91911 -19.24970 -19.24571 -19.20911 -19.20016
 Alpha  occ. eigenvalues --  -19.19806 -19.19614 -14.42747 -14.41572 -14.39984
 Alpha  occ. eigenvalues --  -14.39496 -10.37084 -10.35323 -10.33124 -10.33059
 Alpha  occ. eigenvalues --  -10.30020 -10.29599 -10.29343 -10.29200 -10.28530
 Alpha  occ. eigenvalues --  -10.28414 -10.28386 -10.28141 -10.28015 -10.27657
 Alpha  occ. eigenvalues --  -10.27349 -10.27060 -10.26982 -10.26601 -10.26156
 Alpha  occ. eigenvalues --  -10.26147 -10.25862 -10.25606 -10.25545 -10.25492
 Alpha  occ. eigenvalues --  -10.25393 -10.25247 -10.25242 -10.24607 -10.24597
 Alpha  occ. eigenvalues --  -10.23753 -10.23724 -10.23703 -10.23570 -10.23502
 Alpha  occ. eigenvalues --  -10.23489 -10.23463 -10.23440 -10.23160 -10.22883
 Alpha  occ. eigenvalues --  -10.22866 -10.22821 -10.22813 -10.22752 -10.22559
 Alpha  occ. eigenvalues --  -10.22526 -10.22476 -10.22136 -10.22096 -10.22055
 Alpha  occ. eigenvalues --  -10.22018 -10.21926 -10.21923 -10.21732 -10.21722
 Alpha  occ. eigenvalues --  -10.21470  -3.14133  -1.86968  -1.86508  -1.86371
 Alpha  occ. eigenvalues --   -1.11813  -1.11059  -1.04617  -1.03720  -1.02837
 Alpha  occ. eigenvalues --   -1.02724  -0.98376  -0.97856  -0.96787  -0.96288
 Alpha  occ. eigenvalues --   -0.87277  -0.85475  -0.85024  -0.84233  -0.83032
 Alpha  occ. eigenvalues --   -0.82757  -0.82562  -0.81684  -0.81549  -0.80908
 Alpha  occ. eigenvalues --   -0.80429  -0.80208  -0.79044  -0.77966  -0.77618
 Alpha  occ. eigenvalues --   -0.76770  -0.75813  -0.75148  -0.74935  -0.74404
 Alpha  occ. eigenvalues --   -0.73908  -0.72850  -0.72467  -0.71112  -0.70477
 Alpha  occ. eigenvalues --   -0.70094  -0.69669  -0.69321  -0.68903  -0.68196
 Alpha  occ. eigenvalues --   -0.67928  -0.67029  -0.65870  -0.65045  -0.63548
 Alpha  occ. eigenvalues --   -0.62889  -0.62366  -0.61864  -0.61053  -0.60254
 Alpha  occ. eigenvalues --   -0.59884  -0.59749  -0.59487  -0.58435  -0.57903
 Alpha  occ. eigenvalues --   -0.57812  -0.56995  -0.56416  -0.55795  -0.55097
 Alpha  occ. eigenvalues --   -0.54545  -0.54250  -0.54123  -0.53098  -0.52864
 Alpha  occ. eigenvalues --   -0.52580  -0.52106  -0.50849  -0.50771  -0.50211
 Alpha  occ. eigenvalues --   -0.49856  -0.49321  -0.49102  -0.48933  -0.48896
 Alpha  occ. eigenvalues --   -0.48582  -0.48330  -0.47904  -0.47528  -0.47491
 Alpha  occ. eigenvalues --   -0.46953  -0.46862  -0.46745  -0.46538  -0.46304
 Alpha  occ. eigenvalues --   -0.46106  -0.45839  -0.45531  -0.45278  -0.45119
 Alpha  occ. eigenvalues --   -0.45007  -0.44811  -0.44693  -0.44690  -0.44484
 Alpha  occ. eigenvalues --   -0.44253  -0.44047  -0.43850  -0.43636  -0.43548
 Alpha  occ. eigenvalues --   -0.43380  -0.43134  -0.42995  -0.42908  -0.42300
 Alpha  occ. eigenvalues --   -0.42067  -0.41844  -0.41701  -0.41292  -0.41202
 Alpha  occ. eigenvalues --   -0.40886  -0.40660  -0.40648  -0.40544  -0.40061
 Alpha  occ. eigenvalues --   -0.40052  -0.39875  -0.39715  -0.39604  -0.39553
 Alpha  occ. eigenvalues --   -0.39314  -0.39219  -0.39002  -0.38834  -0.38729
 Alpha  occ. eigenvalues --   -0.38590  -0.38523  -0.38275  -0.38189  -0.37913
 Alpha  occ. eigenvalues --   -0.37862  -0.37570  -0.37265  -0.37068  -0.36950
 Alpha  occ. eigenvalues --   -0.36734  -0.36584  -0.36363  -0.36280  -0.36200
 Alpha  occ. eigenvalues --   -0.35872  -0.35694  -0.35636  -0.35587  -0.35089
 Alpha  occ. eigenvalues --   -0.34712  -0.34484  -0.34119  -0.33913  -0.33453
 Alpha  occ. eigenvalues --   -0.33295  -0.32936  -0.32836  -0.32603  -0.32379
 Alpha  occ. eigenvalues --   -0.32170  -0.31887  -0.31635  -0.31510  -0.31204
 Alpha  occ. eigenvalues --   -0.31147  -0.30904  -0.30470  -0.30165  -0.29551
 Alpha  occ. eigenvalues --   -0.29290  -0.28800  -0.28646  -0.26942  -0.26630
 Alpha  occ. eigenvalues --   -0.26312  -0.26026  -0.25653  -0.25231  -0.21033
 Alpha  occ. eigenvalues --   -0.19089
 Alpha virt. eigenvalues --   -0.11486  -0.06240  -0.04885  -0.02822  -0.00184
 Alpha virt. eigenvalues --    0.00076   0.00859   0.01260   0.02132   0.02540
 Alpha virt. eigenvalues --    0.03733   0.03886   0.04734   0.05554   0.05858

 Mulliken charges:
               1
     1  Mg   1.000840
     2  C   -0.005265
     3  C   -0.090913
     4  C   -0.061531
     5  C   -0.067039
     6  N   -0.330990
     7  C    0.033272
     8  C   -0.058278
     9  C   -0.192393
    10  C    0.037546
    11  C   -0.004266
    12  C   -0.001817
    13  C   -0.008958
    14  C    0.213423
    15  O   -0.227640
    16  O   -0.387481
    17  N   -0.495646
    18  C    0.246926
    19  C   -0.173404
    20  C   -0.067013
    21  C    0.145990
    22  C    0.050318
    23  C    0.049814
    24  O   -0.273974
    25  C   -0.042403
    26  N   -0.440645
    27  C    0.088561
    28  C   -0.132092
    29  C   -0.126031
    30  C    0.103134
    31  C    0.042227
    32  C   -0.020847
    33  C   -0.064485
    34  N   -0.531951
    35  C    0.142556
    36  C   -0.174992
    37  C   -0.057787
    38  C    0.141796
    39  C    0.049793
    40  C    0.200846
    41  O   -0.207488
    42  C   -0.137002
    43  C    0.251312
    44  O   -0.210399
    45  O   -0.386931
    46  C    0.128443
    47  C    0.263647
    48  C   -0.150661
    49  C   -0.197982
    50  C    0.026756
    51  C    0.011714
    52  C   -0.083678
    53  C    0.042938
    54  C   -0.205565
    55  C   -0.013862
    56  C   -0.008813
    57  C   -0.037324
    58  C   -0.016139
    59  C   -0.261556
    60  C   -0.011939
    61  C    0.005657
    62  C   -0.019620
    63  C   -0.040212
    64  C   -0.242553
    65  C   -0.003764
    66  C   -0.028006
    67  H    0.017189
    68  H    0.039859
    69  H    0.006656
    70  H    0.062709
    71  H    0.055233
    72  H    0.064692
    73  H    0.022532
    74  H    0.048833
    75  H    0.043563
    76  H    0.081528
    77  H    0.049912
    78  H    0.065147
    79  H    0.057281
    80  H    0.059888
    81  H    0.039442
    82  H    0.064439
    83  H    0.066795
    84  H    0.053460
    85  H    0.048594
    86  H    0.033026
    87  H    0.053028
    88  H    0.046335
    89  H    0.047477
    90  H    0.048839
    91  H    0.040907
    92  H    0.039312
    93  H    0.049633
    94  H    0.041375
    95  H    0.054611
    96  H    0.054663
    97  H    0.056094
    98  H    0.092389
    99  H    0.057507
   100  H    0.048986
   101  H    0.060818
   102  H    0.053056
   103  H    0.049817
   104  H    0.020626
   105  H    0.038118
   106  H    0.033217
   107  H    0.054745
   108  H    0.023396
   109  H    0.023686
   110  H    0.039932
   111  H    0.030106
   112  H    0.034631
   113  H    0.029900
   114  H    0.028327
   115  H    0.033219
   116  H    0.028078
   117  H    0.033936
   118  H    0.030407
   119  H    0.016577
   120  H    0.030640
   121  H    0.037503
   122  H    0.025982
   123  H    0.015698
   124  H    0.027885
   125  H    0.032794
   126  H    0.025771
   127  H    0.038273
   128  H    0.030240
   129  H    0.018927
   130  H    0.038810
   131  H    0.042267
   132  H    0.028886
   133  H    0.014662
   134  H    0.035809
   135  H    0.026519
   136  H    0.033427
   137  H    0.038486
   138  H    0.046143
   139  H    0.027789
   140  H    0.032792
 Sum of Mulliken charges =  -0.00000

 Dipole moment (field-independent basis, Debye):
    X=             -3.6575    Y=              3.4411    Z=             -0.0313  Tot=              5.0219
 Quadrupole moment (field-independent basis, Debye-Ang):
   XX=           -395.9997   YY=           -418.6260   ZZ=           -403.7496
   XY=              7.5424   XZ=             24.7517   YZ=              3.2447

 Normal termination of Gaussian 16 at Tue May  3 15:14:24 2022.
