 Gaussian 16, Revision A.03,
 Gaussian 16:  ES64L-G16RevA.03 25-Dec-2016

 --------------------------------
 #p wB97XD/Def2SVP td=(nstates=5)
 --------------------------------

 -----------------------------------------------------
 step_1001_chromophore_16 TDDFT with wB97XD functional
 -----------------------------------------------------
 Symbolic Z-matrix:
 Charge =  0 Multiplicity = 1

                         Standard orientation:
 ---------------------------------------------------------------------
 Center     Atomic      Atomic             Coordinates (Angstroms)
 Number     Number       Type             X           Y           Z
 ---------------------------------------------------------------------
      1         12           0        6.568154    0.612523    0.280203
      2          6           0        4.163866   -2.089815    0.021951
      3          6           0        4.160915    2.619808   -1.301377
      4          6           0        8.770410    3.260627    0.279640
      5          6           0        8.908243   -1.550752    1.352040
      6          7           0        4.440042    0.210070   -0.600166
      7          6           0        3.595711   -0.867944   -0.467876
      8          6           0        2.142949   -0.673716   -0.852146
      9          6           0        2.149818    0.842520   -1.309729
     10          6           0        3.675520    1.259171   -1.046778
     11          6           0        1.785313    0.977946   -2.793361
     12          6           0        1.149796   -0.927161    0.327848
     13          6           0       -0.236732   -0.383509    0.155495
     14          6           0       -1.391948   -1.373749    0.463835
     15          8           0       -1.445261   -2.118766    1.396883
     16          8           0       -2.347491   -1.495668   -0.565946
     17          7           0        6.486366    2.579210   -0.498135
     18          6           0        5.389633    3.189840   -1.046650
     19          6           0        5.632633    4.612538   -1.209015
     20          6           0        6.981677    4.892053   -0.765038
     21          6           0        7.516603    3.551717   -0.375644
     22          6           0        4.565000    5.622271   -1.754270
     23          6           0        7.785870    6.138934   -0.763987
     24          8           0        9.037166    6.176193   -0.589744
     25          6           0        7.017958    7.475445   -1.055187
     26          7           0        8.535964    0.808050    0.783141
     27          6           0        9.249219    2.021626    0.805214
     28          6           0       10.743808    1.775847    1.060942
     29          6           0       10.664494    0.313830    1.682625
     30          6           0        9.300629   -0.229396    1.150651
     31          6           0       11.507498    1.894409   -0.275239
     32          6           0       10.621552    0.386071    3.187224
     33          6           0       11.307991   -0.829469    3.905119
     34          7           0        6.566887   -1.336842    0.757286
     35          6           0        7.587193   -2.122412    1.258155
     36          6           0        7.144987   -3.499552    1.484446
     37          6           0        5.810485   -3.540162    1.034864
     38          6           0        5.468844   -2.229267    0.652629
     39          6           0        8.080697   -4.631518    1.866729
     40          6           0        4.644076   -4.413251    0.828550
     41          8           0        4.507724   -5.632397    0.918560
     42          6           0        3.544028   -3.435753    0.332329
     43          6           0        3.008781   -3.985078   -0.915030
     44          8           0        3.567637   -4.060230   -1.957855
     45          8           0        1.821505   -4.655456   -0.643762
     46          6           0        1.185129   -5.354532   -1.773814
     47          6           0       -3.416101   -2.410083   -0.382798
     48          6           0       -4.516596   -2.053165   -1.287658
     49          6           0       -5.517121   -2.824986   -1.568080
     50          6           0       -5.823524   -4.212962   -1.050103
     51          6           0       -6.528113   -2.412644   -2.585950
     52          6           0       -7.936198   -2.037217   -1.997309
     53          6           0       -8.431584   -0.642409   -2.436555
     54          6           0       -9.983887   -0.621862   -2.329756
     55          6           0      -10.639179    0.094364   -3.549184
     56          6           0      -10.498429    0.060528   -1.048077
     57          6           0      -11.976255   -0.058026   -0.745388
     58          6           0      -12.662409    1.334388   -0.748666
     59          6           0      -14.078945    1.331177   -0.073837
     60          6           0      -15.024101    2.303729   -0.742262
     61          6           0      -14.075710    1.742895    1.431323
     62          6           0      -15.054568    0.920865    2.267773
     63          6           0      -15.809507    1.912449    3.281566
     64          6           0      -17.290186    2.102404    3.013263
     65          6           0      -18.175190    1.010773    3.696531
     66          6           0      -17.727479    3.578641    3.311233
     67          1           0        3.239225    3.187794   -1.443091
     68          1           0        9.389704    4.150736    0.411653
     69          1           0        9.673793   -2.196447    1.789285
     70          1           0        1.859236   -1.291620   -1.704339
     71          1           0        1.435222    1.564991   -0.916197
     72          1           0        2.656083    1.385056   -3.309217
     73          1           0        0.928307    1.651354   -2.791729
     74          1           0        1.286482    0.153571   -3.302163
     75          1           0        1.571065   -0.435616    1.204955
     76          1           0        1.029548   -2.004005    0.445062
     77          1           0       -0.374569    0.047389   -0.835861
     78          1           0       -0.356777    0.455051    0.842098
     79          1           0        5.068557    6.127032   -2.579726
     80          1           0        4.180527    6.366143   -1.057025
     81          1           0        3.657957    5.145259   -2.125936
     82          1           0        6.166757    7.599516   -0.385594
     83          1           0        6.764932    7.530067   -2.113242
     84          1           0        7.744983    8.268366   -0.877365
     85          1           0       11.077109    2.504642    1.800148
     86          1           0       11.456504   -0.357283    1.348719
     87          1           0       10.830262    2.342870   -1.001405
     88          1           0       11.819850    0.917133   -0.640984
     89          1           0       12.316489    2.621531   -0.203714
     90          1           0        9.563281    0.488860    3.425774
     91          1           0       11.130247    1.222263    3.665611
     92          1           0       11.757732   -0.371577    4.786572
     93          1           0       11.966119   -1.418932    3.267879
     94          1           0       10.544892   -1.486757    4.320755
     95          1           0        7.731442   -5.637619    1.636051
     96          1           0        8.263624   -4.666100    2.940708
     97          1           0        8.988378   -4.510498    1.273918
     98          1           0        2.684289   -3.283133    0.984862
     99          1           0        1.177562   -4.700279   -2.644986
    100          1           0        0.171868   -5.654588   -1.505618
    101          1           0        1.642561   -6.323819   -1.972715
    102          1           0       -3.801545   -2.277914    0.628146
    103          1           0       -3.109225   -3.445260   -0.530794
    104          1           0       -4.440007   -1.078599   -1.770657
    105          1           0       -5.023481   -4.702655   -0.494440
    106          1           0       -5.926672   -4.823015   -1.946882
    107          1           0       -6.791839   -4.333185   -0.564006
    108          1           0       -6.647603   -3.328812   -3.166419
    109          1           0       -6.254101   -1.623349   -3.286306
    110          1           0       -7.739116   -2.154473   -0.931428
    111          1           0       -8.607185   -2.855598   -2.260321
    112          1           0       -8.031149   -0.295871   -3.388428
    113          1           0       -8.024561    0.010611   -1.663983
    114          1           0      -10.368645   -1.639899   -2.259471
    115          1           0      -10.012939    0.859536   -4.010331
    116          1           0      -11.557900    0.588900   -3.233344
    117          1           0      -10.935680   -0.612046   -4.323685
    118          1           0      -10.161122    1.096701   -1.031555
    119          1           0      -10.106501   -0.470460   -0.181111
    120          1           0      -12.060851   -0.394375    0.287793
    121          1           0      -12.521114   -0.708882   -1.427942
    122          1           0      -12.813396    1.910906   -1.661145
    123          1           0      -11.996243    1.924224   -0.119095
    124          1           0      -14.475359    0.331410   -0.252315
    125          1           0      -15.778585    2.625903   -0.024140
    126          1           0      -15.597787    1.807730   -1.525801
    127          1           0      -14.546040    3.158514   -1.219610
    128          1           0      -14.207866    2.819376    1.322654
    129          1           0      -13.067151    1.562288    1.802150
    130          1           0      -14.542033    0.254738    2.961824
    131          1           0      -15.801615    0.455656    1.624815
    132          1           0      -15.307255    2.875919    3.369894
    133          1           0      -15.788486    1.412263    4.250430
    134          1           0      -17.321494    1.972138    1.931612
    135          1           0      -17.557044    0.287774    4.228186
    136          1           0      -18.665564    0.390897    2.945937
    137          1           0      -18.903892    1.453593    4.376447
    138          1           0      -17.073253    4.189722    2.689875
    139          1           0      -17.627755    3.894075    4.350633
    140          1           0      -18.809452    3.688229    3.240016
 ---------------------------------------------------------------------

 SCF Done:  E(RwB97XD) =  -3007.85713754     A.U. after   17 cycles

 Excitation energies and oscillator strengths:

 Excited State   1:      Singlet-A      1.6232 eV  763.81 nm  f=0.3582  <S**2>=0.000
     245 -> 248       -0.20170
     246 -> 247        0.67667
     245 <- 248       -0.11895
 This state for optimization and/or second-order correction.
 Total Energy, E(TD-HF/TD-DFT) =  -3007.79748486
 Copying the excited state density for this state as the 1-particle RhoCI density.

 Excited State   2:      Singlet-A      2.0966 eV  591.35 nm  f=0.0963  <S**2>=0.000
     245 -> 247        0.62953
     246 -> 248        0.30388

 Excited State   3:      Singlet-A      3.3750 eV  367.36 nm  f=0.4820  <S**2>=0.000
     242 -> 247       -0.29172
     243 -> 247        0.14020
     245 -> 247       -0.24734
     246 -> 248        0.56075
     245 <- 247        0.10570

 Excited State   4:      Singlet-A      3.4429 eV  360.12 nm  f=0.1043  <S**2>=0.000
     242 -> 247       -0.19839
     243 -> 247        0.60828
     245 -> 247        0.12220
     246 -> 248       -0.22747

 Excited State   5:      Singlet-A      3.5489 eV  349.36 nm  f=0.0228  <S**2>=0.000
     240 -> 247        0.43723
     240 -> 248        0.17866
     240 -> 249        0.33324
     240 -> 250       -0.19239
     241 -> 247        0.16479
     241 -> 249        0.12023
     243 -> 247       -0.11111

 The electronic state is 1-A.
 Alpha  occ. eigenvalues --  -46.94788 -19.29518 -19.29120 -19.25594 -19.24740
 Alpha  occ. eigenvalues --  -19.24566 -19.24524 -14.47982 -14.46504 -14.44988
 Alpha  occ. eigenvalues --  -14.44310 -10.43852 -10.42134 -10.40063 -10.39898
 Alpha  occ. eigenvalues --  -10.36403 -10.35790 -10.35774 -10.35707 -10.34896
 Alpha  occ. eigenvalues --  -10.34885 -10.34708 -10.34655 -10.34461 -10.34085
 Alpha  occ. eigenvalues --  -10.33399 -10.33297 -10.33268 -10.32961 -10.32595
 Alpha  occ. eigenvalues --  -10.32420 -10.32256 -10.32119 -10.31983 -10.31966
 Alpha  occ. eigenvalues --  -10.31757 -10.31746 -10.31385 -10.30908 -10.30781
 Alpha  occ. eigenvalues --  -10.30465 -10.30142 -10.29946 -10.29902 -10.29801
 Alpha  occ. eigenvalues --  -10.29796 -10.29748 -10.29729 -10.29438 -10.29238
 Alpha  occ. eigenvalues --  -10.29202 -10.29186 -10.29179 -10.29124 -10.28942
 Alpha  occ. eigenvalues --  -10.28837 -10.28798 -10.28500 -10.28495 -10.28452
 Alpha  occ. eigenvalues --  -10.28414 -10.28346 -10.28299 -10.28176 -10.28068
 Alpha  occ. eigenvalues --  -10.27902  -3.20868  -1.94453  -1.93993  -1.93852
 Alpha  occ. eigenvalues --   -1.19168  -1.18442  -1.12018  -1.11046  -1.10494
 Alpha  occ. eigenvalues --   -1.10069  -1.05793  -1.05210  -1.04181  -1.03649
 Alpha  occ. eigenvalues --   -0.94835  -0.93128  -0.92664  -0.91900  -0.90700
 Alpha  occ. eigenvalues --   -0.90356  -0.90159  -0.89295  -0.89203  -0.88795
 Alpha  occ. eigenvalues --   -0.88068  -0.87682  -0.86703  -0.85510  -0.85256
 Alpha  occ. eigenvalues --   -0.84413  -0.83463  -0.82863  -0.82633  -0.82102
 Alpha  occ. eigenvalues --   -0.81569  -0.80512  -0.80238  -0.78685  -0.78062
 Alpha  occ. eigenvalues --   -0.77754  -0.77374  -0.76904  -0.76588  -0.75847
 Alpha  occ. eigenvalues --   -0.75550  -0.74517  -0.73426  -0.72663  -0.71116
 Alpha  occ. eigenvalues --   -0.70419  -0.69990  -0.69429  -0.68675  -0.67844
 Alpha  occ. eigenvalues --   -0.67361  -0.67352  -0.66931  -0.65841  -0.65581
 Alpha  occ. eigenvalues --   -0.65325  -0.64656  -0.64050  -0.63172  -0.62593
 Alpha  occ. eigenvalues --   -0.62016  -0.61720  -0.61576  -0.60462  -0.60346
 Alpha  occ. eigenvalues --   -0.60033  -0.59483  -0.58295  -0.58203  -0.57580
 Alpha  occ. eigenvalues --   -0.57278  -0.56740  -0.56533  -0.56294  -0.56256
 Alpha  occ. eigenvalues --   -0.55910  -0.55789  -0.55314  -0.54903  -0.54823
 Alpha  occ. eigenvalues --   -0.54473  -0.54352  -0.54186  -0.54033  -0.53608
 Alpha  occ. eigenvalues --   -0.53495  -0.53032  -0.52867  -0.52577  -0.52461
 Alpha  occ. eigenvalues --   -0.52323  -0.52146  -0.51998  -0.51947  -0.51773
 Alpha  occ. eigenvalues --   -0.51576  -0.51461  -0.51223  -0.50959  -0.50859
 Alpha  occ. eigenvalues --   -0.50738  -0.50589  -0.50284  -0.50078  -0.49643
 Alpha  occ. eigenvalues --   -0.49403  -0.49147  -0.48946  -0.48532  -0.48390
 Alpha  occ. eigenvalues --   -0.48062  -0.47892  -0.47855  -0.47785  -0.47246
 Alpha  occ. eigenvalues --   -0.47176  -0.47005  -0.46832  -0.46791  -0.46761
 Alpha  occ. eigenvalues --   -0.46501  -0.46390  -0.46095  -0.46041  -0.46028
 Alpha  occ. eigenvalues --   -0.45718  -0.45678  -0.45522  -0.45229  -0.45039
 Alpha  occ. eigenvalues --   -0.44875  -0.44655  -0.44344  -0.44245  -0.44079
 Alpha  occ. eigenvalues --   -0.43933  -0.43692  -0.43447  -0.43366  -0.43296
 Alpha  occ. eigenvalues --   -0.42941  -0.42745  -0.42693  -0.42576  -0.42186
 Alpha  occ. eigenvalues --   -0.41760  -0.41475  -0.41077  -0.40912  -0.40371
 Alpha  occ. eigenvalues --   -0.40343  -0.39857  -0.39804  -0.39665  -0.39448
 Alpha  occ. eigenvalues --   -0.39184  -0.38921  -0.38577  -0.38533  -0.38279
 Alpha  occ. eigenvalues --   -0.38160  -0.37887  -0.37442  -0.36939  -0.36629
 Alpha  occ. eigenvalues --   -0.36269  -0.35631  -0.35389  -0.33702  -0.33534
 Alpha  occ. eigenvalues --   -0.33466  -0.32669  -0.32136  -0.31964  -0.25979
 Alpha  occ. eigenvalues --   -0.23258
 Alpha virt. eigenvalues --   -0.07344  -0.00832   0.01310   0.03664   0.05971
 Alpha virt. eigenvalues --    0.06690   0.07610   0.08064   0.08662   0.09250
 Alpha virt. eigenvalues --    0.10120   0.10713   0.11476   0.12221   0.12587

 Mulliken charges:
               1
     1  Mg   0.986878
     2  C   -0.006161
     3  C   -0.107491
     4  C   -0.077345
     5  C   -0.080094
     6  N   -0.296258
     7  C    0.001398
     8  C   -0.033315
     9  C   -0.168142
    10  C    0.022166
    11  C    0.003538
    12  C    0.013299
    13  C    0.005538
    14  C    0.205608
    15  O   -0.225464
    16  O   -0.385546
    17  N   -0.466376
    18  C    0.245602
    19  C   -0.163069
    20  C   -0.063671
    21  C    0.139703
    22  C    0.063976
    23  C    0.047174
    24  O   -0.267259
    25  C   -0.029464
    26  N   -0.413789
    27  C    0.081796
    28  C   -0.107392
    29  C   -0.093576
    30  C    0.088572
    31  C    0.050228
    32  C   -0.011620
    33  C   -0.049348
    34  N   -0.500849
    35  C    0.132768
    36  C   -0.173128
    37  C   -0.054762
    38  C    0.127512
    39  C    0.059123
    40  C    0.183315
    41  O   -0.198367
    42  C   -0.093013
    43  C    0.223859
    44  O   -0.204556
    45  O   -0.384626
    46  C    0.143945
    47  C    0.273594
    48  C   -0.160966
    49  C   -0.178528
    50  C    0.037852
    51  C    0.030640
    52  C   -0.067124
    53  C    0.054666
    54  C   -0.174028
    55  C    0.000752
    56  C    0.007899
    57  C   -0.020568
    58  C   -0.001237
    59  C   -0.233940
    60  C    0.004495
    61  C    0.024444
    62  C   -0.002673
    63  C   -0.025686
    64  C   -0.209993
    65  C    0.006759
    66  C   -0.013222
    67  H    0.009465
    68  H    0.035463
    69  H   -0.001756
    70  H    0.051894
    71  H    0.044644
    72  H    0.058225
    73  H    0.017050
    74  H    0.044527
    75  H    0.037020
    76  H    0.067483
    77  H    0.041545
    78  H    0.059954
    79  H    0.050876
    80  H    0.056735
    81  H    0.036456
    82  H    0.059278
    83  H    0.061927
    84  H    0.052530
    85  H    0.040037
    86  H    0.022267
    87  H    0.044820
    88  H    0.041640
    89  H    0.043009
    90  H    0.039054
    91  H    0.032329
    92  H    0.034101
    93  H    0.044040
    94  H    0.035096
    95  H    0.050669
    96  H    0.048908
    97  H    0.049544
    98  H    0.084932
    99  H    0.053084
   100  H    0.045405
   101  H    0.056962
   102  H    0.047548
   103  H    0.044076
   104  H    0.018908
   105  H    0.033438
   106  H    0.026460
   107  H    0.050173
   108  H    0.013091
   109  H    0.015592
   110  H    0.028095
   111  H    0.021584
   112  H    0.027382
   113  H    0.020809
   114  H    0.015061
   115  H    0.027607
   116  H    0.015889
   117  H    0.028905
   118  H    0.020235
   119  H    0.007810
   120  H    0.021392
   121  H    0.029030
   122  H    0.017146
   123  H    0.003624
   124  H    0.014972
   125  H    0.020446
   126  H    0.020416
   127  H    0.032316
   128  H    0.018516
   129  H    0.009945
   130  H    0.032931
   131  H    0.031225
   132  H    0.019870
   133  H    0.004115
   134  H    0.018767
   135  H    0.019853
   136  H    0.028287
   137  H    0.033468
   138  H    0.039131
   139  H    0.020974
   140  H    0.027245
 Sum of Mulliken charges =  -0.00000

 Dipole moment (field-independent basis, Debye):
    X=             -3.8325    Y=              4.0208    Z=             -0.2336  Tot=              5.5597
 Quadrupole moment (field-independent basis, Debye-Ang):
   XX=           -398.5874   YY=           -415.9704   ZZ=           -403.4149
   XY=             11.0778   XZ=             23.3649   YZ=              2.9567

 Normal termination of Gaussian 16 at Tue May  3 15:54:07 2022.
