 Gaussian 16, Revision A.03,
 Gaussian 16:  ES64L-G16RevA.03 25-Dec-2016

 --------------------
 #p ZINDO=(nstates=5)
 --------------------

 ------------------------------
 step_1001_chromophore_16 ZINDO
 ------------------------------
 Symbolic Z-matrix:
 Charge =  0 Multiplicity = 1

                         Standard orientation:
 ---------------------------------------------------------------------
 Center     Atomic      Atomic             Coordinates (Angstroms)
 Number     Number       Type             X           Y           Z
 ---------------------------------------------------------------------
      1         12           0        6.568154    0.612523    0.280203
      2          6           0        4.163866   -2.089815    0.021951
      3          6           0        4.160915    2.619808   -1.301377
      4          6           0        8.770410    3.260627    0.279640
      5          6           0        8.908243   -1.550752    1.352040
      6          7           0        4.440042    0.210070   -0.600166
      7          6           0        3.595711   -0.867944   -0.467876
      8          6           0        2.142949   -0.673716   -0.852146
      9          6           0        2.149818    0.842520   -1.309729
     10          6           0        3.675520    1.259171   -1.046778
     11          6           0        1.785313    0.977946   -2.793361
     12          6           0        1.149796   -0.927161    0.327848
     13          6           0       -0.236732   -0.383509    0.155495
     14          6           0       -1.391948   -1.373749    0.463835
     15          8           0       -1.445261   -2.118766    1.396883
     16          8           0       -2.347491   -1.495668   -0.565946
     17          7           0        6.486366    2.579210   -0.498135
     18          6           0        5.389633    3.189840   -1.046650
     19          6           0        5.632633    4.612538   -1.209015
     20          6           0        6.981677    4.892053   -0.765038
     21          6           0        7.516603    3.551717   -0.375644
     22          6           0        4.565000    5.622271   -1.754270
     23          6           0        7.785870    6.138934   -0.763987
     24          8           0        9.037166    6.176193   -0.589744
     25          6           0        7.017958    7.475445   -1.055187
     26          7           0        8.535964    0.808050    0.783141
     27          6           0        9.249219    2.021626    0.805214
     28          6           0       10.743808    1.775847    1.060942
     29          6           0       10.664494    0.313830    1.682625
     30          6           0        9.300629   -0.229396    1.150651
     31          6           0       11.507498    1.894409   -0.275239
     32          6           0       10.621552    0.386071    3.187224
     33          6           0       11.307991   -0.829469    3.905119
     34          7           0        6.566887   -1.336842    0.757286
     35          6           0        7.587193   -2.122412    1.258155
     36          6           0        7.144987   -3.499552    1.484446
     37          6           0        5.810485   -3.540162    1.034864
     38          6           0        5.468844   -2.229267    0.652629
     39          6           0        8.080697   -4.631518    1.866729
     40          6           0        4.644076   -4.413251    0.828550
     41          8           0        4.507724   -5.632397    0.918560
     42          6           0        3.544028   -3.435753    0.332329
     43          6           0        3.008781   -3.985078   -0.915030
     44          8           0        3.567637   -4.060230   -1.957855
     45          8           0        1.821505   -4.655456   -0.643762
     46          6           0        1.185129   -5.354532   -1.773814
     47          6           0       -3.416101   -2.410083   -0.382798
     48          6           0       -4.516596   -2.053165   -1.287658
     49          6           0       -5.517121   -2.824986   -1.568080
     50          6           0       -5.823524   -4.212962   -1.050103
     51          6           0       -6.528113   -2.412644   -2.585950
     52          6           0       -7.936198   -2.037217   -1.997309
     53          6           0       -8.431584   -0.642409   -2.436555
     54          6           0       -9.983887   -0.621862   -2.329756
     55          6           0      -10.639179    0.094364   -3.549184
     56          6           0      -10.498429    0.060528   -1.048077
     57          6           0      -11.976255   -0.058026   -0.745388
     58          6           0      -12.662409    1.334388   -0.748666
     59          6           0      -14.078945    1.331177   -0.073837
     60          6           0      -15.024101    2.303729   -0.742262
     61          6           0      -14.075710    1.742895    1.431323
     62          6           0      -15.054568    0.920865    2.267773
     63          6           0      -15.809507    1.912449    3.281566
     64          6           0      -17.290186    2.102404    3.013263
     65          6           0      -18.175190    1.010773    3.696531
     66          6           0      -17.727479    3.578641    3.311233
     67          1           0        3.239225    3.187794   -1.443091
     68          1           0        9.389704    4.150736    0.411653
     69          1           0        9.673793   -2.196447    1.789285
     70          1           0        1.859236   -1.291620   -1.704339
     71          1           0        1.435222    1.564991   -0.916197
     72          1           0        2.656083    1.385056   -3.309217
     73          1           0        0.928307    1.651354   -2.791729
     74          1           0        1.286482    0.153571   -3.302163
     75          1           0        1.571065   -0.435616    1.204955
     76          1           0        1.029548   -2.004005    0.445062
     77          1           0       -0.374569    0.047389   -0.835861
     78          1           0       -0.356777    0.455051    0.842098
     79          1           0        5.068557    6.127032   -2.579726
     80          1           0        4.180527    6.366143   -1.057025
     81          1           0        3.657957    5.145259   -2.125936
     82          1           0        6.166757    7.599516   -0.385594
     83          1           0        6.764932    7.530067   -2.113242
     84          1           0        7.744983    8.268366   -0.877365
     85          1           0       11.077109    2.504642    1.800148
     86          1           0       11.456504   -0.357283    1.348719
     87          1           0       10.830262    2.342870   -1.001405
     88          1           0       11.819850    0.917133   -0.640984
     89          1           0       12.316489    2.621531   -0.203714
     90          1           0        9.563281    0.488860    3.425774
     91          1           0       11.130247    1.222263    3.665611
     92          1           0       11.757732   -0.371577    4.786572
     93          1           0       11.966119   -1.418932    3.267879
     94          1           0       10.544892   -1.486757    4.320755
     95          1           0        7.731442   -5.637619    1.636051
     96          1           0        8.263624   -4.666100    2.940708
     97          1           0        8.988378   -4.510498    1.273918
     98          1           0        2.684289   -3.283133    0.984862
     99          1           0        1.177562   -4.700279   -2.644986
    100          1           0        0.171868   -5.654588   -1.505618
    101          1           0        1.642561   -6.323819   -1.972715
    102          1           0       -3.801545   -2.277914    0.628146
    103          1           0       -3.109225   -3.445260   -0.530794
    104          1           0       -4.440007   -1.078599   -1.770657
    105          1           0       -5.023481   -4.702655   -0.494440
    106          1           0       -5.926672   -4.823015   -1.946882
    107          1           0       -6.791839   -4.333185   -0.564006
    108          1           0       -6.647603   -3.328812   -3.166419
    109          1           0       -6.254101   -1.623349   -3.286306
    110          1           0       -7.739116   -2.154473   -0.931428
    111          1           0       -8.607185   -2.855598   -2.260321
    112          1           0       -8.031149   -0.295871   -3.388428
    113          1           0       -8.024561    0.010611   -1.663983
    114          1           0      -10.368645   -1.639899   -2.259471
    115          1           0      -10.012939    0.859536   -4.010331
    116          1           0      -11.557900    0.588900   -3.233344
    117          1           0      -10.935680   -0.612046   -4.323685
    118          1           0      -10.161122    1.096701   -1.031555
    119          1           0      -10.106501   -0.470460   -0.181111
    120          1           0      -12.060851   -0.394375    0.287793
    121          1           0      -12.521114   -0.708882   -1.427942
    122          1           0      -12.813396    1.910906   -1.661145
    123          1           0      -11.996243    1.924224   -0.119095
    124          1           0      -14.475359    0.331410   -0.252315
    125          1           0      -15.778585    2.625903   -0.024140
    126          1           0      -15.597787    1.807730   -1.525801
    127          1           0      -14.546040    3.158514   -1.219610
    128          1           0      -14.207866    2.819376    1.322654
    129          1           0      -13.067151    1.562288    1.802150
    130          1           0      -14.542033    0.254738    2.961824
    131          1           0      -15.801615    0.455656    1.624815
    132          1           0      -15.307255    2.875919    3.369894
    133          1           0      -15.788486    1.412263    4.250430
    134          1           0      -17.321494    1.972138    1.931612
    135          1           0      -17.557044    0.287774    4.228186
    136          1           0      -18.665564    0.390897    2.945937
    137          1           0      -18.903892    1.453593    4.376447
    138          1           0      -17.073253    4.189722    2.689875
    139          1           0      -17.627755    3.894075    4.350633
    140          1           0      -18.809452    3.688229    3.240016
 ---------------------------------------------------------------------

 SCF Done:  E(RZINDO/S) =  -474.090350024     A.U. after   20 cycles

 Excitation energies and oscillator strengths:

 Excited State   1:      Singlet-A      1.2250 eV 1012.15 nm  f=0.5580  <S**2>=0.000
     175 ->178         0.20349
     176 ->177         0.65748
 This state for optimization and/or second-order correction.
 Total Energy, E(CIS/TDA) =  -474.045333798
 Copying the excited state density for this state as the 1-particle RhoCI density.

 Excited State   2:      Singlet-A      1.8344 eV  675.89 nm  f=0.0245  <S**2>=0.000
     175 ->177         0.52196
     176 ->178        -0.45039

 Excited State   3:      Singlet-A      2.8900 eV  429.01 nm  f=0.1441  <S**2>=0.000
     175 ->177        -0.13360
     176 ->178        -0.11984
     176 ->179         0.61210
     176 ->180         0.15645

 Excited State   4:      Singlet-A      2.9134 eV  425.56 nm  f=0.9618  <S**2>=0.000
     168 ->177        -0.10597
     168 ->179         0.15069
     171 ->177         0.10426
     175 ->177         0.38169
     176 ->178         0.47316
     176 ->179         0.16338

 Excited State   5:      Singlet-A      2.9899 eV  414.68 nm  f=0.1387  <S**2>=0.000
     168 ->177         0.28505
     168 ->178        -0.15856
     168 ->179        -0.39937
     168 ->180         0.24161
     168 ->184        -0.11330
     168 ->185        -0.19760
     175 ->177         0.13394
     176 ->178         0.16742
     176 ->179         0.15700

 The electronic state is 1-A.
 Alpha  occ. eigenvalues --   -1.82038  -1.80040  -1.77142  -1.74123  -1.72652
 Alpha  occ. eigenvalues --   -1.68995  -1.66273  -1.62031  -1.57369  -1.57254
 Alpha  occ. eigenvalues --   -1.55546  -1.53074  -1.50898  -1.48172  -1.46121
 Alpha  occ. eigenvalues --   -1.44992  -1.43675  -1.39760  -1.39322  -1.38261
 Alpha  occ. eigenvalues --   -1.36150  -1.32079  -1.31787  -1.31322  -1.27888
 Alpha  occ. eigenvalues --   -1.27064  -1.24310  -1.22074  -1.20740  -1.19051
 Alpha  occ. eigenvalues --   -1.16361  -1.16253  -1.15754  -1.14722  -1.12587
 Alpha  occ. eigenvalues --   -1.12139  -1.10929  -1.10085  -1.04589  -1.03663
 Alpha  occ. eigenvalues --   -1.02810  -1.00769  -0.98519  -0.97155  -0.96192
 Alpha  occ. eigenvalues --   -0.95616  -0.94406  -0.93229  -0.92687  -0.91764
 Alpha  occ. eigenvalues --   -0.91038  -0.90332  -0.89149  -0.88164  -0.86267
 Alpha  occ. eigenvalues --   -0.85589  -0.84986  -0.83125  -0.82725  -0.80826
 Alpha  occ. eigenvalues --   -0.80176  -0.78981  -0.78252  -0.77837  -0.76560
 Alpha  occ. eigenvalues --   -0.76030  -0.75370  -0.74648  -0.73999  -0.73661
 Alpha  occ. eigenvalues --   -0.73394  -0.72941  -0.72313  -0.71970  -0.71132
 Alpha  occ. eigenvalues --   -0.69557  -0.69042  -0.68634  -0.68304  -0.67879
 Alpha  occ. eigenvalues --   -0.67368  -0.67049  -0.66762  -0.66304  -0.65476
 Alpha  occ. eigenvalues --   -0.65383  -0.64958  -0.64496  -0.63613  -0.63331
 Alpha  occ. eigenvalues --   -0.63135  -0.62764  -0.62497  -0.62367  -0.62000
 Alpha  occ. eigenvalues --   -0.61762  -0.61295  -0.60790  -0.60097  -0.59697
 Alpha  occ. eigenvalues --   -0.58983  -0.58678  -0.58423  -0.58282  -0.57675
 Alpha  occ. eigenvalues --   -0.57576  -0.57088  -0.56937  -0.56358  -0.56095
 Alpha  occ. eigenvalues --   -0.55570  -0.55354  -0.55240  -0.55098  -0.54686
 Alpha  occ. eigenvalues --   -0.54352  -0.54118  -0.53220  -0.52828  -0.52523
 Alpha  occ. eigenvalues --   -0.52050  -0.51789  -0.51708  -0.51492  -0.51418
 Alpha  occ. eigenvalues --   -0.51269  -0.51216  -0.50781  -0.50625  -0.50355
 Alpha  occ. eigenvalues --   -0.50076  -0.49987  -0.49780  -0.49450  -0.49150
 Alpha  occ. eigenvalues --   -0.48895  -0.48329  -0.48124  -0.47975  -0.47751
 Alpha  occ. eigenvalues --   -0.47323  -0.47059  -0.46865  -0.46844  -0.46405
 Alpha  occ. eigenvalues --   -0.46317  -0.45858  -0.45667  -0.45393  -0.45014
 Alpha  occ. eigenvalues --   -0.44857  -0.44832  -0.44462  -0.44168  -0.43894
 Alpha  occ. eigenvalues --   -0.43888  -0.43559  -0.43119  -0.42985  -0.42605
 Alpha  occ. eigenvalues --   -0.42295  -0.41630  -0.41531  -0.39292  -0.38572
 Alpha  occ. eigenvalues --   -0.37949  -0.37818  -0.36183  -0.35533  -0.34634
 Alpha  occ. eigenvalues --   -0.33746  -0.32610  -0.32487  -0.31951  -0.26530
 Alpha  occ. eigenvalues --   -0.21861
 Alpha virt. eigenvalues --   -0.08660  -0.02935  -0.01332   0.00823   0.01736
 Alpha virt. eigenvalues --    0.02325   0.02910   0.03285   0.04285   0.05758
 Alpha virt. eigenvalues --    0.05910   0.06463   0.06739   0.07498   0.07795

 Mulliken charges:
               1
     1  Mg   0.430430
     2  C   -0.037370
     3  C   -0.081559
     4  C   -0.069686
     5  C   -0.077468
     6  N   -0.264144
     7  C    0.106150
     8  C    0.010908
     9  C   -0.008690
    10  C    0.121806
    11  C   -0.060876
    12  C   -0.017789
    13  C    0.011548
    14  C    0.457455
    15  O   -0.496485
    16  O   -0.288722
    17  N   -0.336875
    18  C    0.137542
    19  C    0.018737
    20  C   -0.042058
    21  C    0.131430
    22  C   -0.046290
    23  C    0.326408
    24  O   -0.530915
    25  C   -0.035601
    26  N   -0.273321
    27  C    0.142120
    28  C    0.004084
    29  C    0.006257
    30  C    0.127227
    31  C   -0.048578
    32  C   -0.029603
    33  C   -0.065676
    34  N   -0.326451
    35  C    0.098325
    36  C    0.013427
    37  C   -0.035579
    38  C    0.075854
    39  C   -0.038452
    40  C    0.349136
    41  O   -0.504667
    42  C    0.061679
    43  C    0.489897
    44  O   -0.509384
    45  O   -0.285568
    46  C    0.074182
    47  C    0.113180
    48  C   -0.078104
    49  C   -0.001370
    50  C   -0.046193
    51  C   -0.036742
    52  C   -0.039585
    53  C   -0.029221
    54  C   -0.011462
    55  C   -0.061317
    56  C   -0.032288
    57  C   -0.029642
    58  C   -0.047751
    59  C   -0.025785
    60  C   -0.055977
    61  C   -0.033487
    62  C   -0.037964
    63  C   -0.045357
    64  C   -0.013905
    65  C   -0.057254
    66  C   -0.062718
    67  H    0.027289
    68  H    0.051526
    69  H    0.021972
    70  H    0.045136
    71  H    0.041100
    72  H    0.033249
    73  H    0.006468
    74  H    0.029559
    75  H    0.028947
    76  H    0.036733
    77  H    0.031709
    78  H    0.037804
    79  H    0.029958
    80  H    0.034094
    81  H    0.023986
    82  H    0.037403
    83  H    0.043054
    84  H    0.033368
    85  H    0.035310
    86  H    0.027026
    87  H    0.026667
    88  H    0.027716
    89  H    0.024406
    90  H    0.026096
    91  H    0.018358
    92  H    0.018671
    93  H    0.032071
    94  H    0.015815
    95  H    0.029143
    96  H    0.030848
    97  H    0.026592
    98  H    0.058690
    99  H    0.043718
   100  H    0.027295
   101  H    0.046049
   102  H    0.047753
   103  H    0.050649
   104  H    0.030907
   105  H    0.022176
   106  H    0.018563
   107  H    0.034051
   108  H    0.014281
   109  H    0.019996
   110  H    0.023438
   111  H    0.019353
   112  H    0.031891
   113  H    0.016797
   114  H    0.022956
   115  H    0.020154
   116  H    0.016665
   117  H    0.014526
   118  H    0.023248
   119  H    0.006959
   120  H    0.019738
   121  H    0.024333
   122  H    0.027996
   123  H    0.010367
   124  H    0.017959
   125  H    0.014125
   126  H    0.003968
   127  H    0.022179
   128  H    0.031402
   129  H    0.009640
   130  H    0.027197
   131  H    0.032339
   132  H    0.022028
   133  H    0.009377
   134  H    0.016699
   135  H    0.018061
   136  H    0.016248
   137  H    0.024199
   138  H    0.025474
   139  H    0.015200
   140  H    0.019429
 Sum of Mulliken charges =  -0.00000

 Dipole moment (field-independent basis, Debye):
    X=             -5.8203    Y=              7.5527    Z=             -0.1158  Tot=              9.5359
 N-N= 4.132458054613D+03 E-N= 0.000000000000D+00  KE=-8.939066933712D+03
 Leave Link  601 at Tue May  3 16:09:17 2022, MaxMem=  6710886400 cpu:               1.4 elap:               0.1
 (Enter /sw/apps/gaussian-16.0/g16/l9999.exe)
 1\1\GINC-BP1-COMPUTE182\SP\RZINDO CIS\STO-3G\C55H74Mg1N4O6\OF15641\03-
 May-2022\0\\#p ZINDO=(nstates=5)\\step_1001_chromophore_16 ZINDO\\0,1\
 Mg,0,40.624,41.756,26.513\C,0,39.946,43.854,29.392\C,0,41.7,39.325,28.
 806\C,0,41.49,39.676,23.908\C,0,40.002,44.345,24.46\N,0,40.854,41.704,
 28.839\C,0,40.389,42.557,29.813\C,0,40.387,42.056,31.243\C,0,40.984,40
 .601,31.056\C,0,41.185,40.529,29.467\C,0,42.321,40.449,31.792\C,0,38.9
 64,42.029,31.889\C,0,38.813,41.194,33.125\C,0,38.105,41.884,34.322\O,0

 Normal termination of Gaussian 16 at Tue May  3 16:09:17 2022.
