 Gaussian 16, Revision A.03,
 Gaussian 16:  ES64L-G16RevA.03 25-Dec-2016

 ------------------------------
 #p blyp/Def2SVP td=(nstates=5)
 ------------------------------

 -------------------------------------------------
 step_151_chromophore_4 TDDFT with blyp functional
 -------------------------------------------------
 Symbolic Z-matrix:
 Charge =  0 Multiplicity = 1

                         Standard orientation:
 ---------------------------------------------------------------------
 Center     Atomic      Atomic             Coordinates (Angstroms)
 Number     Number       Type             X           Y           Z
 ---------------------------------------------------------------------
      1         12           0        5.787102    0.539554    0.103600
      2          6           0        3.567189   -2.100021   -0.097515
      3          6           0        3.315138    2.733229   -0.699954
      4          6           0        8.131428    2.934492   -0.167647
      5          6           0        8.471195   -1.779462    0.597987
      6          7           0        3.669355    0.326612   -0.372300
      7          6           0        2.936858   -0.864192   -0.243196
      8          6           0        1.477265   -0.607173   -0.537578
      9          6           0        1.423956    0.988053   -0.891512
     10          6           0        2.925459    1.387172   -0.729132
     11          6           0        0.698363    1.486258   -2.196501
     12          6           0        0.610462   -0.999903    0.722032
     13          6           0       -0.753427   -0.322214    0.870258
     14          6           0       -1.906373   -1.231063    1.259065
     15          8           0       -2.249769   -1.438376    2.426589
     16          8           0       -2.379514   -1.910849    0.112467
     17          7           0        5.697930    2.513984   -0.256926
     18          6           0        4.557583    3.282791   -0.439971
     19          6           0        4.819140    4.678512   -0.443780
     20          6           0        6.267051    4.812606   -0.388589
     21          6           0        6.783847    3.382655   -0.230764
     22          6           0        3.794187    5.756684   -0.718843
     23          6           0        7.111198    6.046676   -0.420019
     24          8           0        8.356264    5.949381   -0.373274
     25          6           0        6.563470    7.478742   -0.530942
     26          7           0        8.002503    0.567646    0.122615
     27          6           0        8.663848    1.707579    0.004846
     28          6           0       10.259282    1.451620    0.042106
     29          6           0       10.335212   -0.093554    0.485908
     30          6           0        8.841816   -0.473116    0.405367
     31          6           0       11.087278    1.866497   -1.168427
     32          6           0       10.944177   -0.349555    1.893800
     33          6           0       12.257928   -1.192346    1.903827
     34          7           0        6.041105   -1.509574    0.199582
     35          6           0        7.123644   -2.311334    0.482273
     36          6           0        6.649344   -3.701781    0.628110
     37          6           0        5.237605   -3.603196    0.469976
     38          6           0        4.956732   -2.300499    0.122320
     39          6           0        7.440378   -4.880101    1.022660
     40          6           0        3.994306   -4.419280    0.427837
     41          8           0        3.788133   -5.620180    0.532585
     42          6           0        2.865085   -3.472929    0.014642
     43          6           0        2.314037   -4.025077   -1.237768
     44          8           0        2.916069   -4.100207   -2.282856
     45          8           0        1.042566   -4.459688   -0.901795
     46          6           0        0.264270   -4.949552   -2.049048
     47          6           0       -3.368264   -2.932407    0.448296
     48          6           0       -4.755573   -2.344515    0.411930
     49          6           0       -5.891644   -3.043101    0.255260
     50          6           0       -6.078140   -4.594559    0.093959
     51          6           0       -7.176435   -2.207639    0.004820
     52          6           0       -7.164520   -1.285991   -1.186326
     53          6           0       -7.447821    0.142030   -0.914277
     54          6           0       -9.015187    0.460205   -0.646030
     55          6           0       -9.747186    0.656872   -1.989751
     56          6           0       -9.056207    1.642907    0.314443
     57          6           0       -9.883376    1.377756    1.575209
     58          6           0      -10.705017    2.699484    1.946437
     59          6           0      -12.188690    2.382882    2.286581
     60          6           0      -12.595237    2.931435    3.694810
     61          6           0      -13.166198    2.787835    1.150775
     62          6           0      -14.284328    1.785066    0.782003
     63          6           0      -13.882265    0.807981   -0.363027
     64          6           0      -15.111853    0.365885   -1.132858
     65          6           0      -15.051602   -1.156629   -1.380869
     66          6           0      -15.462227    1.228119   -2.376791
     67          1           0        2.435509    3.368644   -0.816293
     68          1           0        8.844928    3.761080   -0.197447
     69          1           0        9.322460   -2.423773    0.828681
     70          1           0        1.132595   -1.142284   -1.422372
     71          1           0        0.844722    1.417728   -0.074573
     72          1           0        1.262006    2.163064   -2.839264
     73          1           0       -0.305024    1.844999   -1.965623
     74          1           0        0.517348    0.547291   -2.718935
     75          1           0        1.044794   -0.772168    1.695616
     76          1           0        0.355776   -2.057918    0.670437
     77          1           0       -0.899158    0.173381   -0.089774
     78          1           0       -0.609203    0.497914    1.573182
     79          1           0        4.042233    6.370265    0.147215
     80          1           0        2.778109    5.362378   -0.711995
     81          1           0        4.079114    6.246390   -1.649757
     82          1           0        7.375534    8.183077   -0.352533
     83          1           0        5.890300    7.690801    0.299504
     84          1           0        5.979596    7.618594   -1.440581
     85          1           0       10.765096    2.089241    0.767709
     86          1           0       10.828095   -0.659557   -0.304929
     87          1           0       10.466292    2.478324   -1.822783
     88          1           0       11.412899    0.935365   -1.630760
     89          1           0       11.998305    2.396284   -0.889951
     90          1           0       10.174472   -0.733276    2.563414
     91          1           0       11.284293    0.567130    2.374518
     92          1           0       13.040044   -0.717969    2.496082
     93          1           0       12.581846   -1.379546    0.879319
     94          1           0       12.222672   -2.161490    2.400864
     95          1           0        8.429857   -4.559674    1.347795
     96          1           0        7.516468   -5.498200    0.128581
     97          1           0        6.903334   -5.347435    1.848080
     98          1           0        2.253163   -3.593850    0.907744
     99          1           0        0.772623   -5.363236   -2.919532
    100          1           0       -0.425712   -4.201693   -2.440636
    101          1           0       -0.431213   -5.696023   -1.664909
    102          1           0       -3.347553   -3.298739    1.474585
    103          1           0       -3.148613   -3.721280   -0.270526
    104          1           0       -4.713396   -1.256303    0.361328
    105          1           0       -6.377564   -4.967692   -0.885650
    106          1           0       -6.810702   -4.800455    0.874974
    107          1           0       -5.160587   -5.057738    0.456877
    108          1           0       -7.533646   -1.712142    0.908121
    109          1           0       -7.968304   -2.911400   -0.253770
    110          1           0       -8.023675   -1.567676   -1.795370
    111          1           0       -6.232836   -1.485345   -1.715639
    112          1           0       -6.920784    0.823419   -1.581879
    113          1           0       -6.900236    0.384189   -0.003684
    114          1           0       -9.391022   -0.458392   -0.195212
    115          1           0      -10.141276    1.672481   -2.005070
    116          1           0      -10.495344   -0.126299   -2.110050
    117          1           0       -9.049086    0.499907   -2.811590
    118          1           0       -9.537470    2.425648   -0.272505
    119          1           0       -8.047028    2.013602    0.489861
    120          1           0       -9.131672    1.128452    2.324975
    121          1           0      -10.604245    0.603878    1.313707
    122          1           0      -10.688543    3.537568    1.250603
    123          1           0      -10.230468    3.210610    2.784924
    124          1           0      -12.290411    1.305920    2.422542
    125          1           0      -13.338117    2.250927    4.111771
    126          1           0      -13.017681    3.932225    3.791412
    127          1           0      -11.759878    2.948624    4.394283
    128          1           0      -12.532057    2.859654    0.267121
    129          1           0      -13.637677    3.742638    1.382053
    130          1           0      -15.117976    2.387776    0.421736
    131          1           0      -14.619578    1.301293    1.699524
    132          1           0      -13.377185   -0.033400    0.109121
    133          1           0      -13.194587    1.272156   -1.070110
    134          1           0      -15.996915    0.511434   -0.513976
    135          1           0      -13.988482   -1.386313   -1.453099
    136          1           0      -15.614857   -1.339340   -2.295245
    137          1           0      -15.461223   -1.646181   -0.496401
    138          1           0      -14.794108    0.981522   -3.201698
    139          1           0      -15.298259    2.292793   -2.211130
    140          1           0      -16.485555    1.027152   -2.695265
 ---------------------------------------------------------------------

 SCF Done:  E(RB-LYP) =  -3007.37569951     A.U. after   21 cycles

 Excitation energies and oscillator strengths:

 Excited State   1:      Singlet-A      1.8289 eV  677.92 nm  f=0.2886  <S**2>=0.000
     245 -> 248        0.18757
     246 -> 247        0.68501
     246 <- 247       -0.14680
 This state for optimization and/or second-order correction.
 Total Energy, E(TD-HF/TD-DFT) =  -3007.30848899
 Copying the excited state density for this state as the 1-particle RhoCI density.

 Excited State   2:      Singlet-A      1.8987 eV  652.98 nm  f=0.0042  <S**2>=0.000
     244 -> 247        0.70309

 Excited State   3:      Singlet-A      1.9234 eV  644.61 nm  f=0.0090  <S**2>=0.000
     243 -> 247        0.68223
     245 -> 247       -0.17066

 Excited State   4:      Singlet-A      2.0642 eV  600.64 nm  f=0.1059  <S**2>=0.000
     243 -> 247        0.17506
     245 -> 247        0.62936
     246 -> 248       -0.22522
     246 -> 249       -0.10275

 Excited State   5:      Singlet-A      2.3033 eV  538.29 nm  f=0.0000  <S**2>=0.000
     242 -> 247        0.70710

 The electronic state is 1-A.
 Alpha  occ. eigenvalues --  -46.26684 -18.82962 -18.82824 -18.77930 -18.77447
 Alpha  occ. eigenvalues --  -18.75678 -18.75342 -14.03488 -14.02684 -14.01528
 Alpha  occ. eigenvalues --  -14.00878 -10.04916 -10.04219 -10.00126  -9.99553
 Alpha  occ. eigenvalues --   -9.97661  -9.97619  -9.96819  -9.96810  -9.96721
 Alpha  occ. eigenvalues --   -9.95934  -9.95893  -9.95841  -9.95669  -9.95088
 Alpha  occ. eigenvalues --   -9.94848  -9.94461  -9.94297  -9.94109  -9.93914
 Alpha  occ. eigenvalues --   -9.93775  -9.93743  -9.93695  -9.93622  -9.93375
 Alpha  occ. eigenvalues --   -9.93325  -9.93323  -9.93231  -9.93066  -9.93027
 Alpha  occ. eigenvalues --   -9.92948  -9.92790  -9.92741  -9.92513  -9.91991
 Alpha  occ. eigenvalues --   -9.91889  -9.91856  -9.91731  -9.91729  -9.91711
 Alpha  occ. eigenvalues --   -9.91658  -9.91429  -9.91362  -9.91226  -9.91105
 Alpha  occ. eigenvalues --   -9.91089  -9.91062  -9.91022  -9.90897  -9.90805
 Alpha  occ. eigenvalues --   -9.90762  -9.90700  -9.90597  -9.90552  -9.90526
 Alpha  occ. eigenvalues --   -9.90362  -2.91418  -1.71842  -1.71298  -1.71135
 Alpha  occ. eigenvalues --   -0.97873  -0.97260  -0.91480  -0.90981  -0.90295
 Alpha  occ. eigenvalues --   -0.90253  -0.86470  -0.85723  -0.85411  -0.84367
 Alpha  occ. eigenvalues --   -0.75548  -0.73667  -0.73160  -0.72706  -0.72503
 Alpha  occ. eigenvalues --   -0.71916  -0.71581  -0.70707  -0.70677  -0.70578
 Alpha  occ. eigenvalues --   -0.69722  -0.69086  -0.68211  -0.67572  -0.67126
 Alpha  occ. eigenvalues --   -0.66281  -0.65969  -0.65430  -0.64961  -0.64582
 Alpha  occ. eigenvalues --   -0.63936  -0.62672  -0.62541  -0.62048  -0.60929
 Alpha  occ. eigenvalues --   -0.60425  -0.60380  -0.59921  -0.59340  -0.58993
 Alpha  occ. eigenvalues --   -0.58295  -0.57505  -0.56513  -0.55615  -0.54334
 Alpha  occ. eigenvalues --   -0.54153  -0.53659  -0.53285  -0.52077  -0.51482
 Alpha  occ. eigenvalues --   -0.51301  -0.50952  -0.50761  -0.50498  -0.49923
 Alpha  occ. eigenvalues --   -0.49164  -0.48932  -0.48920  -0.48615  -0.46907
 Alpha  occ. eigenvalues --   -0.46288  -0.46255  -0.45834  -0.45519  -0.45063
 Alpha  occ. eigenvalues --   -0.44446  -0.43851  -0.43062  -0.42135  -0.42061
 Alpha  occ. eigenvalues --   -0.41949  -0.41820  -0.41512  -0.41266  -0.40926
 Alpha  occ. eigenvalues --   -0.40658  -0.40610  -0.40370  -0.40283  -0.40154
 Alpha  occ. eigenvalues --   -0.40035  -0.39626  -0.39360  -0.39162  -0.38993
 Alpha  occ. eigenvalues --   -0.38949  -0.38687  -0.38611  -0.38342  -0.38135
 Alpha  occ. eigenvalues --   -0.38091  -0.37962  -0.37707  -0.37426  -0.37283
 Alpha  occ. eigenvalues --   -0.37000  -0.36941  -0.36844  -0.36475  -0.36468
 Alpha  occ. eigenvalues --   -0.36312  -0.36204  -0.36059  -0.35922  -0.35835
 Alpha  occ. eigenvalues --   -0.35726  -0.35544  -0.35327  -0.35166  -0.35029
 Alpha  occ. eigenvalues --   -0.34780  -0.34577  -0.34360  -0.34124  -0.33994
 Alpha  occ. eigenvalues --   -0.33861  -0.33839  -0.33587  -0.33261  -0.33247
 Alpha  occ. eigenvalues --   -0.32905  -0.32831  -0.32763  -0.32551  -0.32391
 Alpha  occ. eigenvalues --   -0.32246  -0.32104  -0.31623  -0.31568  -0.31420
 Alpha  occ. eigenvalues --   -0.31387  -0.31353  -0.30996  -0.30768  -0.30622
 Alpha  occ. eigenvalues --   -0.30521  -0.30387  -0.30205  -0.30025  -0.29899
 Alpha  occ. eigenvalues --   -0.29867  -0.29433  -0.29133  -0.29096  -0.28950
 Alpha  occ. eigenvalues --   -0.28681  -0.28185  -0.28149  -0.27870  -0.27806
 Alpha  occ. eigenvalues --   -0.27484  -0.27145  -0.26714  -0.26575  -0.26360
 Alpha  occ. eigenvalues --   -0.26236  -0.26213  -0.25953  -0.25640  -0.25551
 Alpha  occ. eigenvalues --   -0.25400  -0.24829  -0.24609  -0.23926  -0.23238
 Alpha  occ. eigenvalues --   -0.23172  -0.23042  -0.22614  -0.22183  -0.20870
 Alpha  occ. eigenvalues --   -0.20349  -0.20178  -0.18696  -0.18582  -0.17479
 Alpha  occ. eigenvalues --   -0.16063
 Alpha virt. eigenvalues --   -0.11714  -0.06940  -0.06312  -0.04613  -0.04070
 Alpha virt. eigenvalues --   -0.02599  -0.02137  -0.01791  -0.01214   0.00206
 Alpha virt. eigenvalues --    0.01487   0.01627   0.02126   0.02244   0.02729

 Mulliken charges:
               1
     1  Mg   0.702132
     2  C   -0.029719
     3  C   -0.098252
     4  C   -0.051476
     5  C   -0.058966
     6  N   -0.228665
     7  C   -0.050733
     8  C    0.022709
     9  C   -0.044257
    10  C    0.015861
    11  C    0.132920
    12  C    0.057879
    13  C    0.142329
    14  C    0.100155
    15  O   -0.186006
    16  O   -0.296907
    17  N   -0.331361
    18  C    0.223433
    19  C   -0.180794
    20  C    0.043706
    21  C    0.099106
    22  C    0.193522
    23  C   -0.085704
    24  O   -0.191659
    25  C    0.130510
    26  N   -0.169953
    27  C    0.064666
    28  C   -0.022679
    29  C    0.039372
    30  C   -0.025887
    31  C    0.130309
    32  C    0.109603
    33  C    0.043138
    34  N   -0.254509
    35  C    0.121358
    36  C   -0.204976
    37  C    0.051140
    38  C    0.133108
    39  C    0.192031
    40  C   -0.086080
    41  O   -0.132227
    42  C    0.106498
    43  C    0.135541
    44  O   -0.152966
    45  O   -0.270227
    46  C    0.208379
    47  C    0.306887
    48  C   -0.106729
    49  C   -0.165291
    50  C    0.142124
    51  C    0.124884
    52  C    0.113340
    53  C    0.057359
    54  C   -0.131269
    55  C    0.140084
    56  C    0.121610
    57  C    0.097717
    58  C    0.099717
    59  C   -0.072359
    60  C    0.081839
    61  C    0.122983
    62  C    0.049855
    63  C    0.107349
    64  C   -0.106326
    65  C    0.113451
    66  C    0.096799
    67  H   -0.069521
    68  H   -0.043905
    69  H   -0.062130
    70  H   -0.009596
    71  H   -0.014504
    72  H    0.010032
    73  H   -0.004711
    74  H   -0.018897
    75  H   -0.012670
    76  H    0.010969
    77  H   -0.027631
    78  H   -0.006438
    79  H    0.009962
    80  H   -0.003024
    81  H    0.021577
    82  H   -0.003095
    83  H   -0.007734
    84  H    0.012199
    85  H   -0.024462
    86  H   -0.014580
    87  H    0.004221
    88  H   -0.024024
    89  H   -0.009770
    90  H   -0.014501
    91  H   -0.019472
    92  H   -0.012173
    93  H   -0.006686
    94  H   -0.012443
    95  H   -0.020994
    96  H    0.015315
    97  H    0.017119
    98  H    0.007834
    99  H    0.027943
   100  H    0.002819
   101  H    0.006181
   102  H    0.015781
   103  H    0.002766
   104  H   -0.017281
   105  H    0.022226
   106  H    0.001649
   107  H   -0.019886
   108  H   -0.012964
   109  H   -0.056794
   110  H   -0.051010
   111  H   -0.032778
   112  H   -0.042107
   113  H   -0.050152
   114  H   -0.035309
   115  H   -0.009476
   116  H   -0.012873
   117  H   -0.015612
   118  H   -0.052821
   119  H   -0.031467
   120  H   -0.010758
   121  H   -0.010782
   122  H   -0.036002
   123  H   -0.054301
   124  H   -0.036629
   125  H   -0.023060
   126  H   -0.019129
   127  H   -0.022040
   128  H   -0.042189
   129  H   -0.035303
   130  H   -0.033604
   131  H   -0.027051
   132  H   -0.032089
   133  H   -0.029674
   134  H   -0.036652
   135  H   -0.014986
   136  H   -0.021245
   137  H   -0.009667
   138  H   -0.023815
   139  H   -0.017551
   140  H   -0.008005
 Sum of Mulliken charges =  -0.00000

 Dipole moment (field-independent basis, Debye):
    X=             -2.6501    Y=              2.7920    Z=             -0.3999  Tot=              3.8701
 Quadrupole moment (field-independent basis, Debye-Ang):
   XX=           -387.5433   YY=           -419.4127   ZZ=           -413.2215
   XY=              2.7219   XZ=             20.7080   YZ=              1.7292

 Normal termination of Gaussian 16 at Thu Apr 28 11:48:12 2022.
