 Gaussian 16, Revision A.03,
 Gaussian 16:  ES64L-G16RevA.03 25-Dec-2016

 -----------------------------------
 #p cam-b3lyp/Def2SVP td=(nstates=5)
 -----------------------------------

 ------------------------------------------------------
 step_151_chromophore_4 TDDFT with cam-b3lyp functional
 ------------------------------------------------------
 Symbolic Z-matrix:
 Charge =  0 Multiplicity = 1

                         Standard orientation:
 ---------------------------------------------------------------------
 Center     Atomic      Atomic             Coordinates (Angstroms)
 Number     Number       Type             X           Y           Z
 ---------------------------------------------------------------------
      1         12           0        5.787102    0.539554    0.103600
      2          6           0        3.567189   -2.100021   -0.097515
      3          6           0        3.315138    2.733229   -0.699954
      4          6           0        8.131428    2.934492   -0.167647
      5          6           0        8.471195   -1.779462    0.597987
      6          7           0        3.669355    0.326612   -0.372300
      7          6           0        2.936858   -0.864192   -0.243196
      8          6           0        1.477265   -0.607173   -0.537578
      9          6           0        1.423956    0.988053   -0.891512
     10          6           0        2.925459    1.387172   -0.729132
     11          6           0        0.698363    1.486258   -2.196501
     12          6           0        0.610462   -0.999903    0.722032
     13          6           0       -0.753427   -0.322214    0.870258
     14          6           0       -1.906373   -1.231063    1.259065
     15          8           0       -2.249769   -1.438376    2.426589
     16          8           0       -2.379514   -1.910849    0.112467
     17          7           0        5.697930    2.513984   -0.256926
     18          6           0        4.557583    3.282791   -0.439971
     19          6           0        4.819140    4.678512   -0.443780
     20          6           0        6.267051    4.812606   -0.388589
     21          6           0        6.783847    3.382655   -0.230764
     22          6           0        3.794187    5.756684   -0.718843
     23          6           0        7.111198    6.046676   -0.420019
     24          8           0        8.356264    5.949381   -0.373274
     25          6           0        6.563470    7.478742   -0.530942
     26          7           0        8.002503    0.567646    0.122615
     27          6           0        8.663848    1.707579    0.004846
     28          6           0       10.259282    1.451620    0.042106
     29          6           0       10.335212   -0.093554    0.485908
     30          6           0        8.841816   -0.473116    0.405367
     31          6           0       11.087278    1.866497   -1.168427
     32          6           0       10.944177   -0.349555    1.893800
     33          6           0       12.257928   -1.192346    1.903827
     34          7           0        6.041105   -1.509574    0.199582
     35          6           0        7.123644   -2.311334    0.482273
     36          6           0        6.649344   -3.701781    0.628110
     37          6           0        5.237605   -3.603196    0.469976
     38          6           0        4.956732   -2.300499    0.122320
     39          6           0        7.440378   -4.880101    1.022660
     40          6           0        3.994306   -4.419280    0.427837
     41          8           0        3.788133   -5.620180    0.532585
     42          6           0        2.865085   -3.472929    0.014642
     43          6           0        2.314037   -4.025077   -1.237768
     44          8           0        2.916069   -4.100207   -2.282856
     45          8           0        1.042566   -4.459688   -0.901795
     46          6           0        0.264270   -4.949552   -2.049048
     47          6           0       -3.368264   -2.932407    0.448296
     48          6           0       -4.755573   -2.344515    0.411930
     49          6           0       -5.891644   -3.043101    0.255260
     50          6           0       -6.078140   -4.594559    0.093959
     51          6           0       -7.176435   -2.207639    0.004820
     52          6           0       -7.164520   -1.285991   -1.186326
     53          6           0       -7.447821    0.142030   -0.914277
     54          6           0       -9.015187    0.460205   -0.646030
     55          6           0       -9.747186    0.656872   -1.989751
     56          6           0       -9.056207    1.642907    0.314443
     57          6           0       -9.883376    1.377756    1.575209
     58          6           0      -10.705017    2.699484    1.946437
     59          6           0      -12.188690    2.382882    2.286581
     60          6           0      -12.595237    2.931435    3.694810
     61          6           0      -13.166198    2.787835    1.150775
     62          6           0      -14.284328    1.785066    0.782003
     63          6           0      -13.882265    0.807981   -0.363027
     64          6           0      -15.111853    0.365885   -1.132858
     65          6           0      -15.051602   -1.156629   -1.380869
     66          6           0      -15.462227    1.228119   -2.376791
     67          1           0        2.435509    3.368644   -0.816293
     68          1           0        8.844928    3.761080   -0.197447
     69          1           0        9.322460   -2.423773    0.828681
     70          1           0        1.132595   -1.142284   -1.422372
     71          1           0        0.844722    1.417728   -0.074573
     72          1           0        1.262006    2.163064   -2.839264
     73          1           0       -0.305024    1.844999   -1.965623
     74          1           0        0.517348    0.547291   -2.718935
     75          1           0        1.044794   -0.772168    1.695616
     76          1           0        0.355776   -2.057918    0.670437
     77          1           0       -0.899158    0.173381   -0.089774
     78          1           0       -0.609203    0.497914    1.573182
     79          1           0        4.042233    6.370265    0.147215
     80          1           0        2.778109    5.362378   -0.711995
     81          1           0        4.079114    6.246390   -1.649757
     82          1           0        7.375534    8.183077   -0.352533
     83          1           0        5.890300    7.690801    0.299504
     84          1           0        5.979596    7.618594   -1.440581
     85          1           0       10.765096    2.089241    0.767709
     86          1           0       10.828095   -0.659557   -0.304929
     87          1           0       10.466292    2.478324   -1.822783
     88          1           0       11.412899    0.935365   -1.630760
     89          1           0       11.998305    2.396284   -0.889951
     90          1           0       10.174472   -0.733276    2.563414
     91          1           0       11.284293    0.567130    2.374518
     92          1           0       13.040044   -0.717969    2.496082
     93          1           0       12.581846   -1.379546    0.879319
     94          1           0       12.222672   -2.161490    2.400864
     95          1           0        8.429857   -4.559674    1.347795
     96          1           0        7.516468   -5.498200    0.128581
     97          1           0        6.903334   -5.347435    1.848080
     98          1           0        2.253163   -3.593850    0.907744
     99          1           0        0.772623   -5.363236   -2.919532
    100          1           0       -0.425712   -4.201693   -2.440636
    101          1           0       -0.431213   -5.696023   -1.664909
    102          1           0       -3.347553   -3.298739    1.474585
    103          1           0       -3.148613   -3.721280   -0.270526
    104          1           0       -4.713396   -1.256303    0.361328
    105          1           0       -6.377564   -4.967692   -0.885650
    106          1           0       -6.810702   -4.800455    0.874974
    107          1           0       -5.160587   -5.057738    0.456877
    108          1           0       -7.533646   -1.712142    0.908121
    109          1           0       -7.968304   -2.911400   -0.253770
    110          1           0       -8.023675   -1.567676   -1.795370
    111          1           0       -6.232836   -1.485345   -1.715639
    112          1           0       -6.920784    0.823419   -1.581879
    113          1           0       -6.900236    0.384189   -0.003684
    114          1           0       -9.391022   -0.458392   -0.195212
    115          1           0      -10.141276    1.672481   -2.005070
    116          1           0      -10.495344   -0.126299   -2.110050
    117          1           0       -9.049086    0.499907   -2.811590
    118          1           0       -9.537470    2.425648   -0.272505
    119          1           0       -8.047028    2.013602    0.489861
    120          1           0       -9.131672    1.128452    2.324975
    121          1           0      -10.604245    0.603878    1.313707
    122          1           0      -10.688543    3.537568    1.250603
    123          1           0      -10.230468    3.210610    2.784924
    124          1           0      -12.290411    1.305920    2.422542
    125          1           0      -13.338117    2.250927    4.111771
    126          1           0      -13.017681    3.932225    3.791412
    127          1           0      -11.759878    2.948624    4.394283
    128          1           0      -12.532057    2.859654    0.267121
    129          1           0      -13.637677    3.742638    1.382053
    130          1           0      -15.117976    2.387776    0.421736
    131          1           0      -14.619578    1.301293    1.699524
    132          1           0      -13.377185   -0.033400    0.109121
    133          1           0      -13.194587    1.272156   -1.070110
    134          1           0      -15.996915    0.511434   -0.513976
    135          1           0      -13.988482   -1.386313   -1.453099
    136          1           0      -15.614857   -1.339340   -2.295245
    137          1           0      -15.461223   -1.646181   -0.496401
    138          1           0      -14.794108    0.981522   -3.201698
    139          1           0      -15.298259    2.292793   -2.211130
    140          1           0      -16.485555    1.027152   -2.695265
 ---------------------------------------------------------------------

 SCF Done:  E(RCAM-B3LYP) =  -3007.16411087     A.U. after   17 cycles

 Excitation energies and oscillator strengths:

 Excited State   1:      Singlet-A      1.7455 eV  710.30 nm  f=0.3837  <S**2>=0.000
     245 -> 248        0.17753
     246 -> 247        0.68581
     245 <- 248        0.10470
 This state for optimization and/or second-order correction.
 Total Energy, E(TD-HF/TD-DFT) =  -3007.09996403
 Copying the excited state density for this state as the 1-particle RhoCI density.

 Excited State   2:      Singlet-A      2.2677 eV  546.74 nm  f=0.1481  <S**2>=0.000
     245 -> 247        0.64550
     246 -> 248       -0.27220

 Excited State   3:      Singlet-A      3.3587 eV  369.14 nm  f=0.0073  <S**2>=0.000
     242 -> 247       -0.17783
     244 -> 247        0.66315

 Excited State   4:      Singlet-A      3.4618 eV  358.15 nm  f=0.0030  <S**2>=0.000
     240 -> 247        0.51440
     240 -> 248       -0.15919
     240 -> 249       -0.32499
     240 -> 250        0.15295
     242 -> 247        0.20117

 Excited State   5:      Singlet-A      3.4975 eV  354.49 nm  f=0.0313  <S**2>=0.000
     240 -> 247       -0.19962
     240 -> 249        0.10723
     242 -> 247        0.56873
     244 -> 247        0.15150
     246 -> 248        0.27830

 The electronic state is 1-A.
 Alpha  occ. eigenvalues --  -46.88160 -19.25849 -19.25745 -19.21043 -19.20479
 Alpha  occ. eigenvalues --  -19.18892 -19.18640 -14.42546 -14.41342 -14.40168
 Alpha  occ. eigenvalues --  -14.39061 -10.40404 -10.39596 -10.35706 -10.34628
 Alpha  occ. eigenvalues --  -10.31730 -10.31618 -10.31603 -10.31587 -10.31001
 Alpha  occ. eigenvalues --  -10.30524 -10.30389 -10.29884 -10.29716 -10.29648
 Alpha  occ. eigenvalues --  -10.29201 -10.29106 -10.28555 -10.28440 -10.28183
 Alpha  occ. eigenvalues --  -10.28166 -10.27630 -10.27616 -10.27592 -10.27491
 Alpha  occ. eigenvalues --  -10.27355 -10.27323 -10.27214 -10.27200 -10.27119
 Alpha  occ. eigenvalues --  -10.26906 -10.26767 -10.26520 -10.26373 -10.25723
 Alpha  occ. eigenvalues --  -10.25654 -10.25462 -10.25423 -10.25422 -10.25347
 Alpha  occ. eigenvalues --  -10.25298 -10.25281 -10.25113 -10.24933 -10.24774
 Alpha  occ. eigenvalues --  -10.24720 -10.24699 -10.24643 -10.24617 -10.24512
 Alpha  occ. eigenvalues --  -10.24388 -10.24379 -10.24317 -10.24178 -10.24152
 Alpha  occ. eigenvalues --  -10.24038  -3.16804  -1.91703  -1.91251  -1.91123
 Alpha  occ. eigenvalues --   -1.16365  -1.15732  -1.09635  -1.08920  -1.08914
 Alpha  occ. eigenvalues --   -1.08221  -1.04043  -1.03304  -1.02990  -1.02014
 Alpha  occ. eigenvalues --   -0.92535  -0.90575  -0.89991  -0.89502  -0.89388
 Alpha  occ. eigenvalues --   -0.88638  -0.88210  -0.87549  -0.87276  -0.87080
 Alpha  occ. eigenvalues --   -0.85948  -0.85482  -0.84521  -0.83667  -0.83242
 Alpha  occ. eigenvalues --   -0.82333  -0.82107  -0.81434  -0.80918  -0.80499
 Alpha  occ. eigenvalues --   -0.79722  -0.78727  -0.78116  -0.77468  -0.76243
 Alpha  occ. eigenvalues --   -0.75798  -0.75730  -0.75247  -0.74643  -0.74245
 Alpha  occ. eigenvalues --   -0.73353  -0.72418  -0.71413  -0.70448  -0.68857
 Alpha  occ. eigenvalues --   -0.68766  -0.68387  -0.67676  -0.66449  -0.65666
 Alpha  occ. eigenvalues --   -0.65282  -0.65044  -0.64946  -0.64472  -0.63895
 Alpha  occ. eigenvalues --   -0.63100  -0.62875  -0.62583  -0.62514  -0.60550
 Alpha  occ. eigenvalues --   -0.60057  -0.59826  -0.59354  -0.59096  -0.58394
 Alpha  occ. eigenvalues --   -0.57761  -0.57150  -0.56316  -0.55482  -0.55327
 Alpha  occ. eigenvalues --   -0.55039  -0.54853  -0.54495  -0.54309  -0.53815
 Alpha  occ. eigenvalues --   -0.53429  -0.53393  -0.53253  -0.53120  -0.52910
 Alpha  occ. eigenvalues --   -0.52576  -0.52551  -0.51941  -0.51718  -0.51490
 Alpha  occ. eigenvalues --   -0.51410  -0.51231  -0.51091  -0.50749  -0.50680
 Alpha  occ. eigenvalues --   -0.50463  -0.50318  -0.49890  -0.49773  -0.49588
 Alpha  occ. eigenvalues --   -0.49542  -0.49208  -0.49099  -0.48992  -0.48898
 Alpha  occ. eigenvalues --   -0.48722  -0.48554  -0.48268  -0.48220  -0.47974
 Alpha  occ. eigenvalues --   -0.47860  -0.47556  -0.47312  -0.47233  -0.46864
 Alpha  occ. eigenvalues --   -0.46527  -0.46397  -0.46166  -0.45845  -0.45726
 Alpha  occ. eigenvalues --   -0.45693  -0.45627  -0.45260  -0.45138  -0.45029
 Alpha  occ. eigenvalues --   -0.44772  -0.44698  -0.44421  -0.44361  -0.44241
 Alpha  occ. eigenvalues --   -0.43994  -0.43832  -0.43358  -0.43291  -0.43251
 Alpha  occ. eigenvalues --   -0.42828  -0.42790  -0.42672  -0.42496  -0.42059
 Alpha  occ. eigenvalues --   -0.41750  -0.41718  -0.41523  -0.41496  -0.41337
 Alpha  occ. eigenvalues --   -0.41058  -0.40579  -0.40205  -0.40093  -0.40025
 Alpha  occ. eigenvalues --   -0.39778  -0.39120  -0.39117  -0.38962  -0.38748
 Alpha  occ. eigenvalues --   -0.38487  -0.38058  -0.37736  -0.37552  -0.37159
 Alpha  occ. eigenvalues --   -0.37117  -0.36962  -0.36918  -0.36836  -0.36374
 Alpha  occ. eigenvalues --   -0.36283  -0.35722  -0.35125  -0.35111  -0.34806
 Alpha  occ. eigenvalues --   -0.33916  -0.33538  -0.33181  -0.31616  -0.31281
 Alpha  occ. eigenvalues --   -0.30646  -0.30472  -0.29894  -0.29129  -0.24218
 Alpha  occ. eigenvalues --   -0.21428
 Alpha virt. eigenvalues --   -0.08858  -0.01623   0.00048   0.02449   0.02815
 Alpha virt. eigenvalues --    0.03756   0.05296   0.05633   0.05986   0.06621
 Alpha virt. eigenvalues --    0.07953   0.08103   0.08453   0.08667   0.09049

 Mulliken charges:
               1
     1  Mg   0.835602
     2  C   -0.047979
     3  C   -0.111747
     4  C   -0.078150
     5  C   -0.062568
     6  N   -0.298754
     7  C   -0.013150
     8  C   -0.030313
     9  C   -0.097556
    10  C    0.043036
    11  C    0.072379
    12  C    0.012635
    13  C    0.073618
    14  C    0.179130
    15  O   -0.225681
    16  O   -0.359882
    17  N   -0.422156
    18  C    0.228977
    19  C   -0.177529
    20  C   -0.026041
    21  C    0.132623
    22  C    0.137179
    23  C   -0.010614
    24  O   -0.231729
    25  C    0.054645
    26  N   -0.245622
    27  C    0.083525
    28  C   -0.062961
    29  C   -0.017315
    30  C   -0.008544
    31  C    0.071283
    32  C    0.048834
    33  C   -0.016252
    34  N   -0.343291
    35  C    0.120240
    36  C   -0.201073
    37  C   -0.028462
    38  C    0.163106
    39  C    0.138880
    40  C    0.020228
    41  O   -0.172340
    42  C    0.024122
    43  C    0.223196
    44  O   -0.190146
    45  O   -0.334180
    46  C    0.170029
    47  C    0.264677
    48  C   -0.120050
    49  C   -0.189531
    50  C    0.083316
    51  C    0.067987
    52  C    0.049935
    53  C    0.008895
    54  C   -0.184940
    55  C    0.083643
    56  C    0.069583
    57  C    0.043256
    58  C    0.042636
    59  C   -0.130403
    60  C    0.029312
    61  C    0.071000
    62  C   -0.002331
    63  C    0.052945
    64  C   -0.165909
    65  C    0.054536
    66  C    0.040241
    67  H   -0.034211
    68  H   -0.002435
    69  H   -0.028190
    70  H    0.022601
    71  H    0.017948
    72  H    0.035968
    73  H    0.019277
    74  H    0.007414
    75  H    0.019561
    76  H    0.039324
    77  H    0.004399
    78  H    0.025993
    79  H    0.034552
    80  H    0.025752
    81  H    0.047769
    82  H    0.033672
    83  H    0.020934
    84  H    0.038865
    85  H    0.009294
    86  H    0.018816
    87  H    0.028722
    88  H    0.000673
    89  H    0.015080
    90  H    0.016532
    91  H    0.008891
    92  H    0.011555
    93  H    0.015054
    94  H    0.011060
    95  H    0.001847
    96  H    0.039819
    97  H    0.040154
    98  H    0.050861
    99  H    0.053521
   100  H    0.022753
   101  H    0.028852
   102  H    0.048972
   103  H    0.029618
   104  H    0.012708
   105  H    0.045507
   106  H    0.025744
   107  H    0.003998
   108  H    0.015572
   109  H   -0.023897
   110  H   -0.021630
   111  H    0.000379
   112  H   -0.011138
   113  H   -0.023915
   114  H   -0.005316
   115  H    0.012430
   116  H    0.009307
   117  H    0.008923
   118  H   -0.024784
   119  H   -0.002007
   120  H    0.016521
   121  H    0.013497
   122  H   -0.006630
   123  H   -0.022345
   124  H   -0.004962
   125  H    0.000159
   126  H    0.004199
   127  H    0.002413
   128  H   -0.015445
   129  H   -0.006163
   130  H   -0.005055
   131  H   -0.000514
   132  H   -0.004444
   133  H   -0.003647
   134  H   -0.004864
   135  H    0.007105
   136  H    0.003662
   137  H    0.014442
   138  H   -0.000532
   139  H    0.006038
   140  H    0.015381
 Sum of Mulliken charges =  -0.00000

 Dipole moment (field-independent basis, Debye):
    X=             -2.9763    Y=              4.1975    Z=             -0.5566  Tot=              5.1757
 Quadrupole moment (field-independent basis, Debye-Ang):
   XX=           -389.2722   YY=           -413.5306   ZZ=           -413.6970
   XY=              9.7001   XZ=             21.2161   YZ=              1.6017

 Normal termination of Gaussian 16 at Thu Apr 28 10:32:36 2022.
