 Gaussian 16, Revision A.03,
 Gaussian 16:  ES64L-G16RevA.03 25-Dec-2016

 ---------------------------------
 #p PBE1PBE/Def2SVP td=(nstates=5)
 ---------------------------------

 ----------------------------------------------------
 step_151_chromophore_4 TDDFT with PBE1PBE functional
 ----------------------------------------------------
 Symbolic Z-matrix:
 Charge =  0 Multiplicity = 1

                         Standard orientation:
 ---------------------------------------------------------------------
 Center     Atomic      Atomic             Coordinates (Angstroms)
 Number     Number       Type             X           Y           Z
 ---------------------------------------------------------------------
      1         12           0        5.787102    0.539554    0.103600
      2          6           0        3.567189   -2.100021   -0.097515
      3          6           0        3.315138    2.733229   -0.699954
      4          6           0        8.131428    2.934492   -0.167647
      5          6           0        8.471195   -1.779462    0.597987
      6          7           0        3.669355    0.326612   -0.372300
      7          6           0        2.936858   -0.864192   -0.243196
      8          6           0        1.477265   -0.607173   -0.537578
      9          6           0        1.423956    0.988053   -0.891512
     10          6           0        2.925459    1.387172   -0.729132
     11          6           0        0.698363    1.486258   -2.196501
     12          6           0        0.610462   -0.999903    0.722032
     13          6           0       -0.753427   -0.322214    0.870258
     14          6           0       -1.906373   -1.231063    1.259065
     15          8           0       -2.249769   -1.438376    2.426589
     16          8           0       -2.379514   -1.910849    0.112467
     17          7           0        5.697930    2.513984   -0.256926
     18          6           0        4.557583    3.282791   -0.439971
     19          6           0        4.819140    4.678512   -0.443780
     20          6           0        6.267051    4.812606   -0.388589
     21          6           0        6.783847    3.382655   -0.230764
     22          6           0        3.794187    5.756684   -0.718843
     23          6           0        7.111198    6.046676   -0.420019
     24          8           0        8.356264    5.949381   -0.373274
     25          6           0        6.563470    7.478742   -0.530942
     26          7           0        8.002503    0.567646    0.122615
     27          6           0        8.663848    1.707579    0.004846
     28          6           0       10.259282    1.451620    0.042106
     29          6           0       10.335212   -0.093554    0.485908
     30          6           0        8.841816   -0.473116    0.405367
     31          6           0       11.087278    1.866497   -1.168427
     32          6           0       10.944177   -0.349555    1.893800
     33          6           0       12.257928   -1.192346    1.903827
     34          7           0        6.041105   -1.509574    0.199582
     35          6           0        7.123644   -2.311334    0.482273
     36          6           0        6.649344   -3.701781    0.628110
     37          6           0        5.237605   -3.603196    0.469976
     38          6           0        4.956732   -2.300499    0.122320
     39          6           0        7.440378   -4.880101    1.022660
     40          6           0        3.994306   -4.419280    0.427837
     41          8           0        3.788133   -5.620180    0.532585
     42          6           0        2.865085   -3.472929    0.014642
     43          6           0        2.314037   -4.025077   -1.237768
     44          8           0        2.916069   -4.100207   -2.282856
     45          8           0        1.042566   -4.459688   -0.901795
     46          6           0        0.264270   -4.949552   -2.049048
     47          6           0       -3.368264   -2.932407    0.448296
     48          6           0       -4.755573   -2.344515    0.411930
     49          6           0       -5.891644   -3.043101    0.255260
     50          6           0       -6.078140   -4.594559    0.093959
     51          6           0       -7.176435   -2.207639    0.004820
     52          6           0       -7.164520   -1.285991   -1.186326
     53          6           0       -7.447821    0.142030   -0.914277
     54          6           0       -9.015187    0.460205   -0.646030
     55          6           0       -9.747186    0.656872   -1.989751
     56          6           0       -9.056207    1.642907    0.314443
     57          6           0       -9.883376    1.377756    1.575209
     58          6           0      -10.705017    2.699484    1.946437
     59          6           0      -12.188690    2.382882    2.286581
     60          6           0      -12.595237    2.931435    3.694810
     61          6           0      -13.166198    2.787835    1.150775
     62          6           0      -14.284328    1.785066    0.782003
     63          6           0      -13.882265    0.807981   -0.363027
     64          6           0      -15.111853    0.365885   -1.132858
     65          6           0      -15.051602   -1.156629   -1.380869
     66          6           0      -15.462227    1.228119   -2.376791
     67          1           0        2.435509    3.368644   -0.816293
     68          1           0        8.844928    3.761080   -0.197447
     69          1           0        9.322460   -2.423773    0.828681
     70          1           0        1.132595   -1.142284   -1.422372
     71          1           0        0.844722    1.417728   -0.074573
     72          1           0        1.262006    2.163064   -2.839264
     73          1           0       -0.305024    1.844999   -1.965623
     74          1           0        0.517348    0.547291   -2.718935
     75          1           0        1.044794   -0.772168    1.695616
     76          1           0        0.355776   -2.057918    0.670437
     77          1           0       -0.899158    0.173381   -0.089774
     78          1           0       -0.609203    0.497914    1.573182
     79          1           0        4.042233    6.370265    0.147215
     80          1           0        2.778109    5.362378   -0.711995
     81          1           0        4.079114    6.246390   -1.649757
     82          1           0        7.375534    8.183077   -0.352533
     83          1           0        5.890300    7.690801    0.299504
     84          1           0        5.979596    7.618594   -1.440581
     85          1           0       10.765096    2.089241    0.767709
     86          1           0       10.828095   -0.659557   -0.304929
     87          1           0       10.466292    2.478324   -1.822783
     88          1           0       11.412899    0.935365   -1.630760
     89          1           0       11.998305    2.396284   -0.889951
     90          1           0       10.174472   -0.733276    2.563414
     91          1           0       11.284293    0.567130    2.374518
     92          1           0       13.040044   -0.717969    2.496082
     93          1           0       12.581846   -1.379546    0.879319
     94          1           0       12.222672   -2.161490    2.400864
     95          1           0        8.429857   -4.559674    1.347795
     96          1           0        7.516468   -5.498200    0.128581
     97          1           0        6.903334   -5.347435    1.848080
     98          1           0        2.253163   -3.593850    0.907744
     99          1           0        0.772623   -5.363236   -2.919532
    100          1           0       -0.425712   -4.201693   -2.440636
    101          1           0       -0.431213   -5.696023   -1.664909
    102          1           0       -3.347553   -3.298739    1.474585
    103          1           0       -3.148613   -3.721280   -0.270526
    104          1           0       -4.713396   -1.256303    0.361328
    105          1           0       -6.377564   -4.967692   -0.885650
    106          1           0       -6.810702   -4.800455    0.874974
    107          1           0       -5.160587   -5.057738    0.456877
    108          1           0       -7.533646   -1.712142    0.908121
    109          1           0       -7.968304   -2.911400   -0.253770
    110          1           0       -8.023675   -1.567676   -1.795370
    111          1           0       -6.232836   -1.485345   -1.715639
    112          1           0       -6.920784    0.823419   -1.581879
    113          1           0       -6.900236    0.384189   -0.003684
    114          1           0       -9.391022   -0.458392   -0.195212
    115          1           0      -10.141276    1.672481   -2.005070
    116          1           0      -10.495344   -0.126299   -2.110050
    117          1           0       -9.049086    0.499907   -2.811590
    118          1           0       -9.537470    2.425648   -0.272505
    119          1           0       -8.047028    2.013602    0.489861
    120          1           0       -9.131672    1.128452    2.324975
    121          1           0      -10.604245    0.603878    1.313707
    122          1           0      -10.688543    3.537568    1.250603
    123          1           0      -10.230468    3.210610    2.784924
    124          1           0      -12.290411    1.305920    2.422542
    125          1           0      -13.338117    2.250927    4.111771
    126          1           0      -13.017681    3.932225    3.791412
    127          1           0      -11.759878    2.948624    4.394283
    128          1           0      -12.532057    2.859654    0.267121
    129          1           0      -13.637677    3.742638    1.382053
    130          1           0      -15.117976    2.387776    0.421736
    131          1           0      -14.619578    1.301293    1.699524
    132          1           0      -13.377185   -0.033400    0.109121
    133          1           0      -13.194587    1.272156   -1.070110
    134          1           0      -15.996915    0.511434   -0.513976
    135          1           0      -13.988482   -1.386313   -1.453099
    136          1           0      -15.614857   -1.339340   -2.295245
    137          1           0      -15.461223   -1.646181   -0.496401
    138          1           0      -14.794108    0.981522   -3.201698
    139          1           0      -15.298259    2.292793   -2.211130
    140          1           0      -16.485555    1.027152   -2.695265
 ---------------------------------------------------------------------

 SCF Done:  E(RPBE1PBE) =  -3005.35240299     A.U. after   15 cycles

 Excitation energies and oscillator strengths:

 Excited State   1:      Singlet-A      1.8839 eV  658.14 nm  f=0.3678  <S**2>=0.000
     245 -> 248        0.17327
     246 -> 247        0.69261
     246 <- 247       -0.10611
 This state for optimization and/or second-order correction.
 Total Energy, E(TD-HF/TD-DFT) =  -3005.28317261
 Copying the excited state density for this state as the 1-particle RhoCI density.

 Excited State   2:      Singlet-A      2.2720 eV  545.70 nm  f=0.1445  <S**2>=0.000
     245 -> 247        0.65509
     246 -> 248       -0.24906

 Excited State   3:      Singlet-A      2.9367 eV  422.19 nm  f=0.0040  <S**2>=0.000
     244 -> 247        0.68581

 Excited State   4:      Singlet-A      2.9852 eV  415.32 nm  f=0.0000  <S**2>=0.000
     240 -> 247       -0.16644
     241 -> 247        0.64332
     241 -> 248       -0.10724
     241 -> 249        0.16982

 Excited State   5:      Singlet-A      3.1199 eV  397.40 nm  f=0.0002  <S**2>=0.000
     242 -> 247        0.67201
     242 -> 249       -0.10850
     244 -> 247       -0.10511

 The electronic state is 1-A.
 Alpha  occ. eigenvalues --  -46.91587 -19.26580 -19.26482 -19.21344 -19.20749
 Alpha  occ. eigenvalues --  -19.19061 -19.18934 -14.41985 -14.40919 -14.39753
 Alpha  occ. eigenvalues --  -14.38879 -10.37477 -10.36653 -10.32652 -10.31987
 Alpha  occ. eigenvalues --  -10.29212 -10.29100 -10.29057 -10.28917 -10.28878
 Alpha  occ. eigenvalues --  -10.28080 -10.27829 -10.27799 -10.27765 -10.27040
 Alpha  occ. eigenvalues --  -10.26957 -10.26874 -10.26264 -10.26119 -10.26069
 Alpha  occ. eigenvalues --  -10.25541 -10.25387 -10.25289 -10.25280 -10.25234
 Alpha  occ. eigenvalues --  -10.25189 -10.25150 -10.24906 -10.24784 -10.24534
 Alpha  occ. eigenvalues --  -10.24356 -10.24172 -10.24103 -10.24017 -10.23380
 Alpha  occ. eigenvalues --  -10.23273 -10.23161 -10.22986 -10.22973 -10.22945
 Alpha  occ. eigenvalues --  -10.22933 -10.22764 -10.22737 -10.22509 -10.22484
 Alpha  occ. eigenvalues --  -10.22303 -10.22249 -10.22212 -10.22075 -10.22038
 Alpha  occ. eigenvalues --  -10.21918 -10.21901 -10.21767 -10.21692 -10.21598
 Alpha  occ. eigenvalues --  -10.21544  -3.13807  -1.86648  -1.86173  -1.86050
 Alpha  occ. eigenvalues --   -1.11177  -1.10546  -1.04552  -1.03809  -1.03444
 Alpha  occ. eigenvalues --   -1.03111  -0.98752  -0.97947  -0.97674  -0.96574
 Alpha  occ. eigenvalues --   -0.87014  -0.84695  -0.84173  -0.83613  -0.83579
 Alpha  occ. eigenvalues --   -0.82769  -0.82497  -0.81717  -0.81417  -0.81385
 Alpha  occ. eigenvalues --   -0.80463  -0.79705  -0.78718  -0.78045  -0.77518
 Alpha  occ. eigenvalues --   -0.76532  -0.76264  -0.75692  -0.75148  -0.74748
 Alpha  occ. eigenvalues --   -0.73881  -0.72819  -0.72460  -0.71854  -0.70659
 Alpha  occ. eigenvalues --   -0.69913  -0.69874  -0.69602  -0.68778  -0.68412
 Alpha  occ. eigenvalues --   -0.67688  -0.66929  -0.65805  -0.64802  -0.63208
 Alpha  occ. eigenvalues --   -0.63067  -0.62740  -0.62226  -0.60687  -0.60059
 Alpha  occ. eigenvalues --   -0.59730  -0.59561  -0.59166  -0.59072  -0.58253
 Alpha  occ. eigenvalues --   -0.57400  -0.57243  -0.57053  -0.56705  -0.54904
 Alpha  occ. eigenvalues --   -0.54507  -0.54325  -0.53925  -0.53609  -0.53015
 Alpha  occ. eigenvalues --   -0.52300  -0.51783  -0.50833  -0.50116  -0.49904
 Alpha  occ. eigenvalues --   -0.49576  -0.49437  -0.49019  -0.48809  -0.48249
 Alpha  occ. eigenvalues --   -0.48048  -0.47817  -0.47693  -0.47520  -0.47329
 Alpha  occ. eigenvalues --   -0.47093  -0.47006  -0.46622  -0.46260  -0.46107
 Alpha  occ. eigenvalues --   -0.45888  -0.45860  -0.45626  -0.45335  -0.45286
 Alpha  occ. eigenvalues --   -0.44933  -0.44810  -0.44564  -0.44424  -0.44161
 Alpha  occ. eigenvalues --   -0.44074  -0.43751  -0.43685  -0.43472  -0.43411
 Alpha  occ. eigenvalues --   -0.43379  -0.43111  -0.42838  -0.42817  -0.42666
 Alpha  occ. eigenvalues --   -0.42538  -0.42167  -0.41963  -0.41908  -0.41501
 Alpha  occ. eigenvalues --   -0.41369  -0.41210  -0.40935  -0.40567  -0.40458
 Alpha  occ. eigenvalues --   -0.40383  -0.40233  -0.39892  -0.39890  -0.39817
 Alpha  occ. eigenvalues --   -0.39551  -0.39485  -0.39184  -0.39015  -0.38895
 Alpha  occ. eigenvalues --   -0.38794  -0.38544  -0.38179  -0.38123  -0.38043
 Alpha  occ. eigenvalues --   -0.37796  -0.37559  -0.37484  -0.37370  -0.36876
 Alpha  occ. eigenvalues --   -0.36530  -0.36502  -0.36408  -0.36303  -0.36246
 Alpha  occ. eigenvalues --   -0.35814  -0.35446  -0.35101  -0.35055  -0.34844
 Alpha  occ. eigenvalues --   -0.34558  -0.34072  -0.33917  -0.33884  -0.33550
 Alpha  occ. eigenvalues --   -0.33483  -0.32838  -0.32778  -0.32339  -0.32125
 Alpha  occ. eigenvalues --   -0.32031  -0.31938  -0.31771  -0.31632  -0.31464
 Alpha  occ. eigenvalues --   -0.31088  -0.30644  -0.30049  -0.29988  -0.29697
 Alpha  occ. eigenvalues --   -0.29186  -0.28832  -0.28522  -0.27257  -0.25952
 Alpha  occ. eigenvalues --   -0.25810  -0.25773  -0.25142  -0.24912  -0.21162
 Alpha  occ. eigenvalues --   -0.19031
 Alpha virt. eigenvalues --   -0.11325  -0.05208  -0.04091  -0.02043  -0.00947
 Alpha virt. eigenvalues --    0.00092   0.00590   0.01182   0.01598   0.03104
 Alpha virt. eigenvalues --    0.04258   0.04655   0.04945   0.05010   0.05620

 Mulliken charges:
               1
     1  Mg   0.986124
     2  C   -0.050018
     3  C   -0.101805
     4  C   -0.070880
     5  C   -0.053213
     6  N   -0.408009
     7  C    0.061393
     8  C   -0.111016
     9  C   -0.169734
    10  C    0.089557
    11  C    0.011749
    12  C   -0.031465
    13  C   -0.008397
    14  C    0.238852
    15  O   -0.256850
    16  O   -0.386072
    17  N   -0.537675
    18  C    0.238136
    19  C   -0.197709
    20  C   -0.075916
    21  C    0.167185
    22  C    0.071819
    23  C    0.035437
    24  O   -0.268220
    25  C   -0.015750
    26  N   -0.352949
    27  C    0.108335
    28  C   -0.121204
    29  C   -0.096760
    30  C    0.028344
    31  C    0.011560
    32  C   -0.009429
    33  C   -0.086375
    34  N   -0.473974
    35  C    0.147502
    36  C   -0.218227
    37  C   -0.072607
    38  C    0.211569
    39  C    0.080173
    40  C    0.120706
    41  O   -0.216434
    42  C   -0.090623
    43  C    0.315157
    44  O   -0.225688
    45  O   -0.365968
    46  C    0.114505
    47  C    0.219336
    48  C   -0.130305
    49  C   -0.229065
    50  C    0.014344
    51  C    0.012062
    52  C   -0.021487
    53  C   -0.047283
    54  C   -0.267709
    55  C    0.026382
    56  C    0.018710
    57  C   -0.029218
    58  C   -0.008013
    59  C   -0.215629
    60  C   -0.028052
    61  C    0.016112
    62  C   -0.068365
    63  C   -0.004078
    64  C   -0.253787
    65  C   -0.011284
    66  C   -0.022376
    67  H   -0.001519
    68  H    0.029807
    69  H    0.005092
    70  H    0.059849
    71  H    0.057500
    72  H    0.062457
    73  H    0.045244
    74  H    0.035550
    75  H    0.051645
    76  H    0.074931
    77  H    0.042865
    78  H    0.058356
    79  H    0.062814
    80  H    0.052236
    81  H    0.074278
    82  H    0.059734
    83  H    0.047320
    84  H    0.064500
    85  H    0.045727
    86  H    0.054850
    87  H    0.056543
    88  H    0.028426
    89  H    0.042011
    90  H    0.048388
    91  H    0.042010
    92  H    0.039251
    93  H    0.042173
    94  H    0.038326
    95  H    0.031412
    96  H    0.069312
    97  H    0.068591
    98  H    0.086636
    99  H    0.074639
   100  H    0.045065
   101  H    0.051001
   102  H    0.077216
   103  H    0.055205
   104  H    0.042731
   105  H    0.071480
   106  H    0.054712
   107  H    0.032316
   108  H    0.047413
   109  H    0.009243
   110  H    0.014682
   111  H    0.033472
   112  H    0.021506
   113  H    0.010675
   114  H    0.032692
   115  H    0.038268
   116  H    0.036155
   117  H    0.036232
   118  H    0.009044
   119  H    0.029406
   120  H    0.049052
   121  H    0.047397
   122  H    0.023291
   123  H    0.010667
   124  H    0.033852
   125  H    0.027845
   126  H    0.030887
   127  H    0.029983
   128  H    0.019401
   129  H    0.025822
   130  H    0.028810
   131  H    0.032322
   132  H    0.028401
   133  H    0.029811
   134  H    0.033822
   135  H    0.035130
   136  H    0.031682
   137  H    0.042655
   138  H    0.027695
   139  H    0.033753
   140  H    0.042820
 Sum of Mulliken charges =  -0.00000

 Dipole moment (field-independent basis, Debye):
    X=             -2.8009    Y=              3.5654    Z=             -0.4595  Tot=              4.5572
 Quadrupole moment (field-independent basis, Debye-Ang):
   XX=           -381.5713   YY=           -411.5505   ZZ=           -411.3401
   XY=              5.6375   XZ=             22.4068   YZ=              1.4818

 Normal termination of Gaussian 16 at Thu Apr 28 10:55:35 2022.
