 Gaussian 16, Revision A.03,
 Gaussian 16:  ES64L-G16RevA.03 25-Dec-2016

 --------------------------------
 #p wB97XD/Def2SVP td=(nstates=5)
 --------------------------------

 ---------------------------------------------------
 step_151_chromophore_4 TDDFT with wB97XD functional
 ---------------------------------------------------
 Symbolic Z-matrix:
 Charge =  0 Multiplicity = 1

                         Standard orientation:
 ---------------------------------------------------------------------
 Center     Atomic      Atomic             Coordinates (Angstroms)
 Number     Number       Type             X           Y           Z
 ---------------------------------------------------------------------
      1         12           0        5.787102    0.539554    0.103600
      2          6           0        3.567189   -2.100021   -0.097515
      3          6           0        3.315138    2.733229   -0.699954
      4          6           0        8.131428    2.934492   -0.167647
      5          6           0        8.471195   -1.779462    0.597987
      6          7           0        3.669355    0.326612   -0.372300
      7          6           0        2.936858   -0.864192   -0.243196
      8          6           0        1.477265   -0.607173   -0.537578
      9          6           0        1.423956    0.988053   -0.891512
     10          6           0        2.925459    1.387172   -0.729132
     11          6           0        0.698363    1.486258   -2.196501
     12          6           0        0.610462   -0.999903    0.722032
     13          6           0       -0.753427   -0.322214    0.870258
     14          6           0       -1.906373   -1.231063    1.259065
     15          8           0       -2.249769   -1.438376    2.426589
     16          8           0       -2.379514   -1.910849    0.112467
     17          7           0        5.697930    2.513984   -0.256926
     18          6           0        4.557583    3.282791   -0.439971
     19          6           0        4.819140    4.678512   -0.443780
     20          6           0        6.267051    4.812606   -0.388589
     21          6           0        6.783847    3.382655   -0.230764
     22          6           0        3.794187    5.756684   -0.718843
     23          6           0        7.111198    6.046676   -0.420019
     24          8           0        8.356264    5.949381   -0.373274
     25          6           0        6.563470    7.478742   -0.530942
     26          7           0        8.002503    0.567646    0.122615
     27          6           0        8.663848    1.707579    0.004846
     28          6           0       10.259282    1.451620    0.042106
     29          6           0       10.335212   -0.093554    0.485908
     30          6           0        8.841816   -0.473116    0.405367
     31          6           0       11.087278    1.866497   -1.168427
     32          6           0       10.944177   -0.349555    1.893800
     33          6           0       12.257928   -1.192346    1.903827
     34          7           0        6.041105   -1.509574    0.199582
     35          6           0        7.123644   -2.311334    0.482273
     36          6           0        6.649344   -3.701781    0.628110
     37          6           0        5.237605   -3.603196    0.469976
     38          6           0        4.956732   -2.300499    0.122320
     39          6           0        7.440378   -4.880101    1.022660
     40          6           0        3.994306   -4.419280    0.427837
     41          8           0        3.788133   -5.620180    0.532585
     42          6           0        2.865085   -3.472929    0.014642
     43          6           0        2.314037   -4.025077   -1.237768
     44          8           0        2.916069   -4.100207   -2.282856
     45          8           0        1.042566   -4.459688   -0.901795
     46          6           0        0.264270   -4.949552   -2.049048
     47          6           0       -3.368264   -2.932407    0.448296
     48          6           0       -4.755573   -2.344515    0.411930
     49          6           0       -5.891644   -3.043101    0.255260
     50          6           0       -6.078140   -4.594559    0.093959
     51          6           0       -7.176435   -2.207639    0.004820
     52          6           0       -7.164520   -1.285991   -1.186326
     53          6           0       -7.447821    0.142030   -0.914277
     54          6           0       -9.015187    0.460205   -0.646030
     55          6           0       -9.747186    0.656872   -1.989751
     56          6           0       -9.056207    1.642907    0.314443
     57          6           0       -9.883376    1.377756    1.575209
     58          6           0      -10.705017    2.699484    1.946437
     59          6           0      -12.188690    2.382882    2.286581
     60          6           0      -12.595237    2.931435    3.694810
     61          6           0      -13.166198    2.787835    1.150775
     62          6           0      -14.284328    1.785066    0.782003
     63          6           0      -13.882265    0.807981   -0.363027
     64          6           0      -15.111853    0.365885   -1.132858
     65          6           0      -15.051602   -1.156629   -1.380869
     66          6           0      -15.462227    1.228119   -2.376791
     67          1           0        2.435509    3.368644   -0.816293
     68          1           0        8.844928    3.761080   -0.197447
     69          1           0        9.322460   -2.423773    0.828681
     70          1           0        1.132595   -1.142284   -1.422372
     71          1           0        0.844722    1.417728   -0.074573
     72          1           0        1.262006    2.163064   -2.839264
     73          1           0       -0.305024    1.844999   -1.965623
     74          1           0        0.517348    0.547291   -2.718935
     75          1           0        1.044794   -0.772168    1.695616
     76          1           0        0.355776   -2.057918    0.670437
     77          1           0       -0.899158    0.173381   -0.089774
     78          1           0       -0.609203    0.497914    1.573182
     79          1           0        4.042233    6.370265    0.147215
     80          1           0        2.778109    5.362378   -0.711995
     81          1           0        4.079114    6.246390   -1.649757
     82          1           0        7.375534    8.183077   -0.352533
     83          1           0        5.890300    7.690801    0.299504
     84          1           0        5.979596    7.618594   -1.440581
     85          1           0       10.765096    2.089241    0.767709
     86          1           0       10.828095   -0.659557   -0.304929
     87          1           0       10.466292    2.478324   -1.822783
     88          1           0       11.412899    0.935365   -1.630760
     89          1           0       11.998305    2.396284   -0.889951
     90          1           0       10.174472   -0.733276    2.563414
     91          1           0       11.284293    0.567130    2.374518
     92          1           0       13.040044   -0.717969    2.496082
     93          1           0       12.581846   -1.379546    0.879319
     94          1           0       12.222672   -2.161490    2.400864
     95          1           0        8.429857   -4.559674    1.347795
     96          1           0        7.516468   -5.498200    0.128581
     97          1           0        6.903334   -5.347435    1.848080
     98          1           0        2.253163   -3.593850    0.907744
     99          1           0        0.772623   -5.363236   -2.919532
    100          1           0       -0.425712   -4.201693   -2.440636
    101          1           0       -0.431213   -5.696023   -1.664909
    102          1           0       -3.347553   -3.298739    1.474585
    103          1           0       -3.148613   -3.721280   -0.270526
    104          1           0       -4.713396   -1.256303    0.361328
    105          1           0       -6.377564   -4.967692   -0.885650
    106          1           0       -6.810702   -4.800455    0.874974
    107          1           0       -5.160587   -5.057738    0.456877
    108          1           0       -7.533646   -1.712142    0.908121
    109          1           0       -7.968304   -2.911400   -0.253770
    110          1           0       -8.023675   -1.567676   -1.795370
    111          1           0       -6.232836   -1.485345   -1.715639
    112          1           0       -6.920784    0.823419   -1.581879
    113          1           0       -6.900236    0.384189   -0.003684
    114          1           0       -9.391022   -0.458392   -0.195212
    115          1           0      -10.141276    1.672481   -2.005070
    116          1           0      -10.495344   -0.126299   -2.110050
    117          1           0       -9.049086    0.499907   -2.811590
    118          1           0       -9.537470    2.425648   -0.272505
    119          1           0       -8.047028    2.013602    0.489861
    120          1           0       -9.131672    1.128452    2.324975
    121          1           0      -10.604245    0.603878    1.313707
    122          1           0      -10.688543    3.537568    1.250603
    123          1           0      -10.230468    3.210610    2.784924
    124          1           0      -12.290411    1.305920    2.422542
    125          1           0      -13.338117    2.250927    4.111771
    126          1           0      -13.017681    3.932225    3.791412
    127          1           0      -11.759878    2.948624    4.394283
    128          1           0      -12.532057    2.859654    0.267121
    129          1           0      -13.637677    3.742638    1.382053
    130          1           0      -15.117976    2.387776    0.421736
    131          1           0      -14.619578    1.301293    1.699524
    132          1           0      -13.377185   -0.033400    0.109121
    133          1           0      -13.194587    1.272156   -1.070110
    134          1           0      -15.996915    0.511434   -0.513976
    135          1           0      -13.988482   -1.386313   -1.453099
    136          1           0      -15.614857   -1.339340   -2.295245
    137          1           0      -15.461223   -1.646181   -0.496401
    138          1           0      -14.794108    0.981522   -3.201698
    139          1           0      -15.298259    2.292793   -2.211130
    140          1           0      -16.485555    1.027152   -2.695265
 ---------------------------------------------------------------------

 SCF Done:  E(RwB97XD) =  -3007.86119497     A.U. after   19 cycles

 Excitation energies and oscillator strengths:

 Excited State   1:      Singlet-A      1.6999 eV  729.38 nm  f=0.3828  <S**2>=0.000
     245 -> 248        0.18196
     246 -> 247        0.68352
     245 <- 248        0.11270
 This state for optimization and/or second-order correction.
 Total Energy, E(TD-HF/TD-DFT) =  -3007.79872603
 Copying the excited state density for this state as the 1-particle RhoCI density.

 Excited State   2:      Singlet-A      2.2152 eV  559.70 nm  f=0.1434  <S**2>=0.000
     245 -> 247        0.64290
     246 -> 248       -0.27452

 Excited State   3:      Singlet-A      3.4071 eV  363.90 nm  f=0.0093  <S**2>=0.000
     241 -> 247       -0.26778
     244 -> 247        0.62013
     244 -> 249        0.10937

 Excited State   4:      Singlet-A      3.4696 eV  357.34 nm  f=0.0021  <S**2>=0.000
     240 -> 247        0.50903
     240 -> 248       -0.16002
     240 -> 249       -0.35058
     240 -> 250        0.15631
     241 -> 247        0.16020
     244 -> 247        0.10429

 Excited State   5:      Singlet-A      3.5092 eV  353.31 nm  f=0.0422  <S**2>=0.000
     240 -> 247       -0.18264
     241 -> 247        0.51450
     242 -> 247        0.11010
     244 -> 247        0.23734
     246 -> 248        0.30660

 The electronic state is 1-A.
 Alpha  occ. eigenvalues --  -46.94519 -19.31079 -19.31023 -19.26022 -19.25407
 Alpha  occ. eigenvalues --  -19.23995 -19.23657 -14.47186 -14.45915 -14.44838
 Alpha  occ. eigenvalues --  -14.43626 -10.44273 -10.43437 -10.39749 -10.38619
 Alpha  occ. eigenvalues --  -10.35886 -10.35667 -10.35514 -10.35342 -10.35009
 Alpha  occ. eigenvalues --  -10.34574 -10.34506 -10.33890 -10.33841 -10.33686
 Alpha  occ. eigenvalues --  -10.33273 -10.33201 -10.32763 -10.32580 -10.32185
 Alpha  occ. eigenvalues --  -10.32092 -10.31639 -10.31604 -10.31565 -10.31537
 Alpha  occ. eigenvalues --  -10.31422 -10.31405 -10.31243 -10.31225 -10.31015
 Alpha  occ. eigenvalues --  -10.30825 -10.30614 -10.30504 -10.30300 -10.29662
 Alpha  occ. eigenvalues --  -10.29651 -10.29447 -10.29400 -10.29342 -10.29231
 Alpha  occ. eigenvalues --  -10.29120 -10.29089 -10.29040 -10.28866 -10.28679
 Alpha  occ. eigenvalues --  -10.28618 -10.28564 -10.28512 -10.28508 -10.28465
 Alpha  occ. eigenvalues --  -10.28297 -10.28256 -10.28191 -10.28084 -10.27983
 Alpha  occ. eigenvalues --  -10.27960  -3.20584  -1.94178  -1.93702  -1.93575
 Alpha  occ. eigenvalues --   -1.18524  -1.17931  -1.11836  -1.11192  -1.11110
 Alpha  occ. eigenvalues --   -1.10459  -1.06037  -1.05310  -1.05027  -1.04087
 Alpha  occ. eigenvalues --   -0.94497  -0.92366  -0.91826  -0.91366  -0.91252
 Alpha  occ. eigenvalues --   -0.90432  -0.90105  -0.89545  -0.89054  -0.88985
 Alpha  occ. eigenvalues --   -0.87839  -0.87371  -0.86378  -0.85608  -0.85114
 Alpha  occ. eigenvalues --   -0.84205  -0.83988  -0.83363  -0.82874  -0.82403
 Alpha  occ. eigenvalues --   -0.81550  -0.80752  -0.80024  -0.79381  -0.78169
 Alpha  occ. eigenvalues --   -0.77584  -0.77573  -0.77222  -0.76462  -0.76077
 Alpha  occ. eigenvalues --   -0.75277  -0.74390  -0.73382  -0.72418  -0.70774
 Alpha  occ. eigenvalues --   -0.70651  -0.70382  -0.69679  -0.68319  -0.67626
 Alpha  occ. eigenvalues --   -0.67185  -0.67017  -0.66829  -0.66476  -0.65814
 Alpha  occ. eigenvalues --   -0.64990  -0.64697  -0.64558  -0.64347  -0.62449
 Alpha  occ. eigenvalues --   -0.62094  -0.61758  -0.61348  -0.61048  -0.60357
 Alpha  occ. eigenvalues --   -0.59710  -0.59131  -0.58330  -0.57479  -0.57262
 Alpha  occ. eigenvalues --   -0.57030  -0.56782  -0.56386  -0.56224  -0.55703
 Alpha  occ. eigenvalues --   -0.55394  -0.55309  -0.55202  -0.55047  -0.54772
 Alpha  occ. eigenvalues --   -0.54514  -0.54412  -0.53851  -0.53627  -0.53402
 Alpha  occ. eigenvalues --   -0.53281  -0.53145  -0.52983  -0.52690  -0.52608
 Alpha  occ. eigenvalues --   -0.52407  -0.52181  -0.51763  -0.51673  -0.51536
 Alpha  occ. eigenvalues --   -0.51465  -0.51136  -0.51012  -0.50970  -0.50775
 Alpha  occ. eigenvalues --   -0.50682  -0.50481  -0.50199  -0.50115  -0.49927
 Alpha  occ. eigenvalues --   -0.49754  -0.49482  -0.49196  -0.49164  -0.48744
 Alpha  occ. eigenvalues --   -0.48456  -0.48334  -0.48082  -0.47736  -0.47637
 Alpha  occ. eigenvalues --   -0.47599  -0.47487  -0.47134  -0.47068  -0.46929
 Alpha  occ. eigenvalues --   -0.46716  -0.46633  -0.46307  -0.46240  -0.46197
 Alpha  occ. eigenvalues --   -0.45972  -0.45735  -0.45306  -0.45213  -0.45176
 Alpha  occ. eigenvalues --   -0.44741  -0.44646  -0.44594  -0.44458  -0.44045
 Alpha  occ. eigenvalues --   -0.43687  -0.43611  -0.43493  -0.43408  -0.43239
 Alpha  occ. eigenvalues --   -0.42904  -0.42479  -0.42105  -0.41972  -0.41879
 Alpha  occ. eigenvalues --   -0.41646  -0.41088  -0.40954  -0.40888  -0.40605
 Alpha  occ. eigenvalues --   -0.40406  -0.39908  -0.39649  -0.39393  -0.39192
 Alpha  occ. eigenvalues --   -0.39062  -0.38989  -0.38799  -0.38681  -0.38315
 Alpha  occ. eigenvalues --   -0.38114  -0.37614  -0.37058  -0.36939  -0.36742
 Alpha  occ. eigenvalues --   -0.35899  -0.35438  -0.35387  -0.33850  -0.33264
 Alpha  occ. eigenvalues --   -0.32730  -0.32600  -0.31928  -0.31244  -0.26155
 Alpha  occ. eigenvalues --   -0.23253
 Alpha virt. eigenvalues --   -0.07207   0.00293   0.02100   0.04535   0.05845
 Alpha virt. eigenvalues --    0.05971   0.07465   0.07893   0.08333   0.09498
 Alpha virt. eigenvalues --    0.10730   0.11482   0.11633   0.11677   0.12298

 Mulliken charges:
               1
     1  Mg   0.976098
     2  C   -0.055259
     3  C   -0.119555
     4  C   -0.090102
     5  C   -0.070732
     6  N   -0.370458
     7  C    0.027061
     8  C   -0.081834
     9  C   -0.143531
    10  C    0.073568
    11  C    0.022504
    12  C   -0.022984
    13  C    0.014155
    14  C    0.230682
    15  O   -0.254730
    16  O   -0.387105
    17  N   -0.508278
    18  C    0.238679
    19  C   -0.187148
    20  C   -0.070076
    21  C    0.160295
    22  C    0.087931
    23  C    0.032358
    24  O   -0.261464
    25  C   -0.005248
    26  N   -0.318557
    27  C    0.102069
    28  C   -0.103519
    29  C   -0.067383
    30  C    0.016661
    31  C    0.023500
    32  C    0.002043
    33  C   -0.069747
    34  N   -0.433970
    35  C    0.134464
    36  C   -0.215808
    37  C   -0.070866
    38  C    0.192269
    39  C    0.093752
    40  C    0.100414
    41  O   -0.208724
    42  C   -0.048338
    43  C    0.290374
    44  O   -0.220556
    45  O   -0.364850
    46  C    0.130268
    47  C    0.235465
    48  C   -0.139395
    49  C   -0.217337
    50  C    0.031280
    51  C    0.023512
    52  C    0.002115
    53  C   -0.027280
    54  C   -0.239605
    55  C    0.037000
    56  C    0.036287
    57  C   -0.006108
    58  C    0.004441
    59  C   -0.187638
    60  C   -0.015575
    61  C    0.035008
    62  C   -0.049894
    63  C    0.011561
    64  C   -0.225220
    65  C    0.003598
    66  C   -0.010772
    67  H   -0.009862
    68  H    0.024972
    69  H   -0.002456
    70  H    0.049262
    71  H    0.042509
    72  H    0.057978
    73  H    0.040730
    74  H    0.029249
    75  H    0.045527
    76  H    0.063033
    77  H    0.029778
    78  H    0.052878
    79  H    0.055260
    80  H    0.050289
    81  H    0.070241
    82  H    0.059993
    83  H    0.042431
    84  H    0.060237
    85  H    0.035189
    86  H    0.041796
    87  H    0.049842
    88  H    0.022064
    89  H    0.037402
    90  H    0.040769
    91  H    0.033184
    92  H    0.033429
    93  H    0.035047
    94  H    0.032431
    95  H    0.023727
    96  H    0.062980
    97  H    0.062480
    98  H    0.080072
    99  H    0.071149
   100  H    0.040320
   101  H    0.046829
   102  H    0.071083
   103  H    0.052215
   104  H    0.037671
   105  H    0.067527
   106  H    0.048022
   107  H    0.026251
   108  H    0.038896
   109  H    0.001538
   110  H    0.002758
   111  H    0.024920
   112  H    0.014430
   113  H   -0.004522
   114  H    0.017064
   115  H    0.032310
   116  H    0.030891
   117  H    0.029922
   118  H   -0.005985
   119  H    0.021797
   120  H    0.042478
   121  H    0.033179
   122  H    0.014776
   123  H    0.003039
   124  H    0.018908
   125  H    0.021682
   126  H    0.025121
   127  H    0.023454
   128  H    0.003712
   129  H    0.018816
   130  H    0.018585
   131  H    0.023836
   132  H    0.018460
   133  H    0.018810
   134  H    0.021035
   135  H    0.027301
   136  H    0.026408
   137  H    0.037192
   138  H    0.020666
   139  H    0.027735
   140  H    0.037492
 Sum of Mulliken charges =  -0.00000

 Dipole moment (field-independent basis, Debye):
    X=             -3.0346    Y=              4.4202    Z=             -0.5968  Tot=              5.3948
 Quadrupole moment (field-independent basis, Debye-Ang):
   XX=           -384.5735   YY=           -408.6322   ZZ=           -411.0636
   XY=             10.8705   XZ=             21.8992   YZ=              1.4697

 Normal termination of Gaussian 16 at Thu Apr 28 11:30:26 2022.
