 Gaussian 16, Revision A.03,
 Gaussian 16:  ES64L-G16RevA.03 25-Dec-2016

 --------------------
 #p ZINDO=(nstates=5)
 --------------------

 ----------------------------
 step_151_chromophore_4 ZINDO
 ----------------------------
 Symbolic Z-matrix:
 Charge =  0 Multiplicity = 1

                         Standard orientation:
 ---------------------------------------------------------------------
 Center     Atomic      Atomic             Coordinates (Angstroms)
 Number     Number       Type             X           Y           Z
 ---------------------------------------------------------------------
      1         12           0        5.787102    0.539554    0.103600
      2          6           0        3.567189   -2.100021   -0.097515
      3          6           0        3.315138    2.733229   -0.699954
      4          6           0        8.131428    2.934492   -0.167647
      5          6           0        8.471195   -1.779462    0.597987
      6          7           0        3.669355    0.326612   -0.372300
      7          6           0        2.936858   -0.864192   -0.243196
      8          6           0        1.477265   -0.607173   -0.537578
      9          6           0        1.423956    0.988053   -0.891512
     10          6           0        2.925459    1.387172   -0.729132
     11          6           0        0.698363    1.486258   -2.196501
     12          6           0        0.610462   -0.999903    0.722032
     13          6           0       -0.753427   -0.322214    0.870258
     14          6           0       -1.906373   -1.231063    1.259065
     15          8           0       -2.249769   -1.438376    2.426589
     16          8           0       -2.379514   -1.910849    0.112467
     17          7           0        5.697930    2.513984   -0.256926
     18          6           0        4.557583    3.282791   -0.439971
     19          6           0        4.819140    4.678512   -0.443780
     20          6           0        6.267051    4.812606   -0.388589
     21          6           0        6.783847    3.382655   -0.230764
     22          6           0        3.794187    5.756684   -0.718843
     23          6           0        7.111198    6.046676   -0.420019
     24          8           0        8.356264    5.949381   -0.373274
     25          6           0        6.563470    7.478742   -0.530942
     26          7           0        8.002503    0.567646    0.122615
     27          6           0        8.663848    1.707579    0.004846
     28          6           0       10.259282    1.451620    0.042106
     29          6           0       10.335212   -0.093554    0.485908
     30          6           0        8.841816   -0.473116    0.405367
     31          6           0       11.087278    1.866497   -1.168427
     32          6           0       10.944177   -0.349555    1.893800
     33          6           0       12.257928   -1.192346    1.903827
     34          7           0        6.041105   -1.509574    0.199582
     35          6           0        7.123644   -2.311334    0.482273
     36          6           0        6.649344   -3.701781    0.628110
     37          6           0        5.237605   -3.603196    0.469976
     38          6           0        4.956732   -2.300499    0.122320
     39          6           0        7.440378   -4.880101    1.022660
     40          6           0        3.994306   -4.419280    0.427837
     41          8           0        3.788133   -5.620180    0.532585
     42          6           0        2.865085   -3.472929    0.014642
     43          6           0        2.314037   -4.025077   -1.237768
     44          8           0        2.916069   -4.100207   -2.282856
     45          8           0        1.042566   -4.459688   -0.901795
     46          6           0        0.264270   -4.949552   -2.049048
     47          6           0       -3.368264   -2.932407    0.448296
     48          6           0       -4.755573   -2.344515    0.411930
     49          6           0       -5.891644   -3.043101    0.255260
     50          6           0       -6.078140   -4.594559    0.093959
     51          6           0       -7.176435   -2.207639    0.004820
     52          6           0       -7.164520   -1.285991   -1.186326
     53          6           0       -7.447821    0.142030   -0.914277
     54          6           0       -9.015187    0.460205   -0.646030
     55          6           0       -9.747186    0.656872   -1.989751
     56          6           0       -9.056207    1.642907    0.314443
     57          6           0       -9.883376    1.377756    1.575209
     58          6           0      -10.705017    2.699484    1.946437
     59          6           0      -12.188690    2.382882    2.286581
     60          6           0      -12.595237    2.931435    3.694810
     61          6           0      -13.166198    2.787835    1.150775
     62          6           0      -14.284328    1.785066    0.782003
     63          6           0      -13.882265    0.807981   -0.363027
     64          6           0      -15.111853    0.365885   -1.132858
     65          6           0      -15.051602   -1.156629   -1.380869
     66          6           0      -15.462227    1.228119   -2.376791
     67          1           0        2.435509    3.368644   -0.816293
     68          1           0        8.844928    3.761080   -0.197447
     69          1           0        9.322460   -2.423773    0.828681
     70          1           0        1.132595   -1.142284   -1.422372
     71          1           0        0.844722    1.417728   -0.074573
     72          1           0        1.262006    2.163064   -2.839264
     73          1           0       -0.305024    1.844999   -1.965623
     74          1           0        0.517348    0.547291   -2.718935
     75          1           0        1.044794   -0.772168    1.695616
     76          1           0        0.355776   -2.057918    0.670437
     77          1           0       -0.899158    0.173381   -0.089774
     78          1           0       -0.609203    0.497914    1.573182
     79          1           0        4.042233    6.370265    0.147215
     80          1           0        2.778109    5.362378   -0.711995
     81          1           0        4.079114    6.246390   -1.649757
     82          1           0        7.375534    8.183077   -0.352533
     83          1           0        5.890300    7.690801    0.299504
     84          1           0        5.979596    7.618594   -1.440581
     85          1           0       10.765096    2.089241    0.767709
     86          1           0       10.828095   -0.659557   -0.304929
     87          1           0       10.466292    2.478324   -1.822783
     88          1           0       11.412899    0.935365   -1.630760
     89          1           0       11.998305    2.396284   -0.889951
     90          1           0       10.174472   -0.733276    2.563414
     91          1           0       11.284293    0.567130    2.374518
     92          1           0       13.040044   -0.717969    2.496082
     93          1           0       12.581846   -1.379546    0.879319
     94          1           0       12.222672   -2.161490    2.400864
     95          1           0        8.429857   -4.559674    1.347795
     96          1           0        7.516468   -5.498200    0.128581
     97          1           0        6.903334   -5.347435    1.848080
     98          1           0        2.253163   -3.593850    0.907744
     99          1           0        0.772623   -5.363236   -2.919532
    100          1           0       -0.425712   -4.201693   -2.440636
    101          1           0       -0.431213   -5.696023   -1.664909
    102          1           0       -3.347553   -3.298739    1.474585
    103          1           0       -3.148613   -3.721280   -0.270526
    104          1           0       -4.713396   -1.256303    0.361328
    105          1           0       -6.377564   -4.967692   -0.885650
    106          1           0       -6.810702   -4.800455    0.874974
    107          1           0       -5.160587   -5.057738    0.456877
    108          1           0       -7.533646   -1.712142    0.908121
    109          1           0       -7.968304   -2.911400   -0.253770
    110          1           0       -8.023675   -1.567676   -1.795370
    111          1           0       -6.232836   -1.485345   -1.715639
    112          1           0       -6.920784    0.823419   -1.581879
    113          1           0       -6.900236    0.384189   -0.003684
    114          1           0       -9.391022   -0.458392   -0.195212
    115          1           0      -10.141276    1.672481   -2.005070
    116          1           0      -10.495344   -0.126299   -2.110050
    117          1           0       -9.049086    0.499907   -2.811590
    118          1           0       -9.537470    2.425648   -0.272505
    119          1           0       -8.047028    2.013602    0.489861
    120          1           0       -9.131672    1.128452    2.324975
    121          1           0      -10.604245    0.603878    1.313707
    122          1           0      -10.688543    3.537568    1.250603
    123          1           0      -10.230468    3.210610    2.784924
    124          1           0      -12.290411    1.305920    2.422542
    125          1           0      -13.338117    2.250927    4.111771
    126          1           0      -13.017681    3.932225    3.791412
    127          1           0      -11.759878    2.948624    4.394283
    128          1           0      -12.532057    2.859654    0.267121
    129          1           0      -13.637677    3.742638    1.382053
    130          1           0      -15.117976    2.387776    0.421736
    131          1           0      -14.619578    1.301293    1.699524
    132          1           0      -13.377185   -0.033400    0.109121
    133          1           0      -13.194587    1.272156   -1.070110
    134          1           0      -15.996915    0.511434   -0.513976
    135          1           0      -13.988482   -1.386313   -1.453099
    136          1           0      -15.614857   -1.339340   -2.295245
    137          1           0      -15.461223   -1.646181   -0.496401
    138          1           0      -14.794108    0.981522   -3.201698
    139          1           0      -15.298259    2.292793   -2.211130
    140          1           0      -16.485555    1.027152   -2.695265
 ---------------------------------------------------------------------

 SCF Done:  E(RZINDO/S) =  -474.151392889     A.U. after   20 cycles

 Excitation energies and oscillator strengths:

 Excited State   1:      Singlet-A      1.2966 eV  956.26 nm  f=0.5953  <S**2>=0.000
     175 ->178         0.18213
     176 ->177         0.66570
 This state for optimization and/or second-order correction.
 Total Energy, E(CIS/TDA) =  -474.103745486
 Copying the excited state density for this state as the 1-particle RhoCI density.

 Excited State   2:      Singlet-A      1.9574 eV  633.42 nm  f=0.0612  <S**2>=0.000
     175 ->177         0.55287
     176 ->178        -0.41208

 Excited State   3:      Singlet-A      2.8456 eV  435.71 nm  f=0.0000  <S**2>=0.000
     168 ->177         0.35389
     168 ->178        -0.10589
     168 ->179        -0.45603
     168 ->181         0.18075
     168 ->184        -0.11135
     168 ->186        -0.21875

 Excited State   4:      Singlet-A      3.0000 eV  413.28 nm  f=0.0042  <S**2>=0.000
     170 ->177         0.24909
     170 ->178        -0.17437
     170 ->179         0.24957
     170 ->181         0.38953
     170 ->184        -0.13084
     170 ->186         0.20355
     170 ->188        -0.11985
     170 ->201        -0.13687
     174 ->177         0.14389
     176 ->179        -0.11539

 Excited State   5:      Singlet-A      3.0462 eV  407.02 nm  f=1.1511  <S**2>=0.000
     175 ->177         0.38072
     176 ->178         0.52757
     176 ->179        -0.14590
     176 ->181        -0.12487

 The electronic state is 1-A.
 Alpha  occ. eigenvalues --   -1.83448  -1.79965  -1.78480  -1.72497  -1.72186
 Alpha  occ. eigenvalues --   -1.68853  -1.65700  -1.61907  -1.58445  -1.57703
 Alpha  occ. eigenvalues --   -1.55309  -1.51275  -1.48460  -1.48156  -1.46788
 Alpha  occ. eigenvalues --   -1.45265  -1.44481  -1.41101  -1.38942  -1.38271
 Alpha  occ. eigenvalues --   -1.35960  -1.33689  -1.32889  -1.31988  -1.29360
 Alpha  occ. eigenvalues --   -1.26768  -1.24446  -1.21932  -1.20696  -1.18473
 Alpha  occ. eigenvalues --   -1.17531  -1.16540  -1.15039  -1.14145  -1.13102
 Alpha  occ. eigenvalues --   -1.12034  -1.10912  -1.10567  -1.04022  -1.03820
 Alpha  occ. eigenvalues --   -1.02370  -1.01038  -0.99190  -0.97432  -0.96550
 Alpha  occ. eigenvalues --   -0.96078  -0.95235  -0.93604  -0.93081  -0.92947
 Alpha  occ. eigenvalues --   -0.90462  -0.89751  -0.88866  -0.87540  -0.86557
 Alpha  occ. eigenvalues --   -0.85855  -0.84304  -0.82974  -0.82467  -0.80575
 Alpha  occ. eigenvalues --   -0.79701  -0.79624  -0.77242  -0.76904  -0.76361
 Alpha  occ. eigenvalues --   -0.76081  -0.75281  -0.74721  -0.74398  -0.73267
 Alpha  occ. eigenvalues --   -0.73030  -0.72364  -0.71938  -0.70884  -0.70605
 Alpha  occ. eigenvalues --   -0.70049  -0.68704  -0.68411  -0.67885  -0.67772
 Alpha  occ. eigenvalues --   -0.67473  -0.66881  -0.66381  -0.66213  -0.65520
 Alpha  occ. eigenvalues --   -0.65081  -0.64880  -0.64571  -0.64121  -0.63605
 Alpha  occ. eigenvalues --   -0.63300  -0.62657  -0.62411  -0.62127  -0.61900
 Alpha  occ. eigenvalues --   -0.61390  -0.60605  -0.60499  -0.60259  -0.60221
 Alpha  occ. eigenvalues --   -0.59684  -0.59579  -0.59291  -0.58646  -0.58358
 Alpha  occ. eigenvalues --   -0.58067  -0.57558  -0.57316  -0.56942  -0.56775
 Alpha  occ. eigenvalues --   -0.55939  -0.55569  -0.55341  -0.54961  -0.54910
 Alpha  occ. eigenvalues --   -0.54551  -0.54226  -0.53535  -0.53039  -0.52878
 Alpha  occ. eigenvalues --   -0.52714  -0.52104  -0.51948  -0.51750  -0.51466
 Alpha  occ. eigenvalues --   -0.51281  -0.51199  -0.51172  -0.50906  -0.50591
 Alpha  occ. eigenvalues --   -0.50300  -0.50072  -0.49730  -0.49278  -0.48806
 Alpha  occ. eigenvalues --   -0.48678  -0.48489  -0.48417  -0.48115  -0.47854
 Alpha  occ. eigenvalues --   -0.47221  -0.47109  -0.47034  -0.46586  -0.46312
 Alpha  occ. eigenvalues --   -0.46100  -0.45918  -0.45424  -0.45366  -0.45084
 Alpha  occ. eigenvalues --   -0.45031  -0.44769  -0.44331  -0.44180  -0.43846
 Alpha  occ. eigenvalues --   -0.43732  -0.43567  -0.43122  -0.42405  -0.42181
 Alpha  occ. eigenvalues --   -0.41843  -0.41806  -0.41013  -0.39429  -0.39246
 Alpha  occ. eigenvalues --   -0.38469  -0.36805  -0.35769  -0.34860  -0.34409
 Alpha  occ. eigenvalues --   -0.33724  -0.33059  -0.31975  -0.31550  -0.26877
 Alpha  occ. eigenvalues --   -0.22099
 Alpha virt. eigenvalues --   -0.08712  -0.02090  -0.00887   0.00914   0.01180
 Alpha virt. eigenvalues --    0.02559   0.02916   0.03283   0.04640   0.04949
 Alpha virt. eigenvalues --    0.06181   0.06555   0.07249   0.07547   0.07992

 Mulliken charges:
               1
     1  Mg   0.425182
     2  C   -0.020943
     3  C   -0.072189
     4  C   -0.065975
     5  C   -0.068717
     6  N   -0.271836
     7  C    0.079460
     8  C    0.006315
     9  C   -0.014581
    10  C    0.145805
    11  C   -0.053676
    12  C   -0.022671
    13  C   -0.000324
    14  C    0.469272
    15  O   -0.507054
    16  O   -0.276461
    17  N   -0.332448
    18  C    0.130007
    19  C    0.026447
    20  C   -0.054334
    21  C    0.151910
    22  C   -0.045300
    23  C    0.322950
    24  O   -0.532269
    25  C   -0.028502
    26  N   -0.270563
    27  C    0.169945
    28  C   -0.014407
    29  C   -0.002074
    30  C    0.107923
    31  C   -0.048432
    32  C   -0.025918
    33  C   -0.061827
    34  N   -0.311265
    35  C    0.075055
    36  C    0.009019
    37  C   -0.061382
    38  C    0.103782
    39  C   -0.035369
    40  C    0.335386
    41  O   -0.525323
    42  C    0.046842
    43  C    0.507075
    44  O   -0.507647
    45  O   -0.261174
    46  C    0.069237
    47  C    0.098198
    48  C   -0.068590
    49  C   -0.025420
    50  C   -0.044646
    51  C   -0.026138
    52  C   -0.025118
    53  C   -0.041599
    54  C   -0.016501
    55  C   -0.057766
    56  C   -0.037172
    57  C   -0.035535
    58  C   -0.042851
    59  C   -0.011216
    60  C   -0.061308
    61  C   -0.038649
    62  C   -0.039323
    63  C   -0.026246
    64  C   -0.016002
    65  C   -0.060994
    66  C   -0.054606
    67  H    0.023570
    68  H    0.042329
    69  H    0.028773
    70  H    0.040394
    71  H    0.027014
    72  H    0.035309
    73  H    0.022503
    74  H    0.019066
    75  H    0.034597
    76  H    0.028467
    77  H    0.029706
    78  H    0.031639
    79  H    0.038649
    80  H    0.036636
    81  H    0.041013
    82  H    0.044021
    83  H    0.026195
    84  H    0.041117
    85  H    0.028885
    86  H    0.036952
    87  H    0.029820
    88  H    0.018425
    89  H    0.022762
    90  H    0.027813
    91  H    0.017997
    92  H    0.017828
    93  H    0.021471
    94  H    0.017540
    95  H    0.018973
    96  H    0.041662
    97  H    0.037814
    98  H    0.061355
    99  H    0.057418
   100  H    0.028556
   101  H    0.026956
   102  H    0.062209
   103  H    0.039381
   104  H    0.041551
   105  H    0.043677
   106  H    0.026773
   107  H    0.018779
   108  H    0.028933
   109  H    0.004305
   110  H    0.009773
   111  H    0.020151
   112  H    0.018257
   113  H    0.001338
   114  H    0.022910
   115  H    0.026506
   116  H    0.019006
   117  H    0.018184
   118  H    0.010822
   119  H    0.023523
   120  H    0.032753
   121  H    0.032378
   122  H    0.023817
   123  H    0.010687
   124  H    0.017601
   125  H    0.010413
   126  H    0.020448
   127  H    0.013909
   128  H    0.015741
   129  H    0.019746
   130  H    0.012985
   131  H    0.024008
   132  H    0.017957
   133  H    0.022975
   134  H    0.009893
   135  H    0.021844
   136  H    0.022921
   137  H    0.022135
   138  H    0.012599
   139  H    0.018525
   140  H    0.019889
 Sum of Mulliken charges =  -0.00000

 Dipole moment (field-independent basis, Debye):
    X=             -4.5845    Y=              7.7578    Z=             -0.7129  Tot=              9.0393
 N-N= 4.262739844546D+03 E-N= 0.000000000000D+00  KE=-9.199629798283D+03
 Leave Link  601 at Thu Apr 28 11:48:18 2022, MaxMem=  6710886400 cpu:               0.7 elap:               0.0
 (Enter /sw/apps/gaussian-16.0/g16/l9999.exe)
 1\1\GINC-BP1-COMPUTE163\SP\RZINDO CIS\STO-3G\C55H74Mg1N4O6\OF15641\28-
 Apr-2022\0\\#p ZINDO=(nstates=5)\\step_151_chromophore_4 ZINDO\\0,1\Mg
 ,0,9.071,3.39,27.632\C,0,10.424,1.861,30.419\C,0,7.419,5.615,29.604\C,
 0,7.434,4.455,24.895\C,0,10.51,0.847,25.561\N,0,8.923,3.684,29.788\C,0
 ,9.702,3.01,30.742\C,0,9.419,3.559,32.121\C,0,8.293,4.715,31.859\C,0,8
 .12,4.627,30.309\C,0,6.973,4.744,32.716\C,0,10.756,4.116,32.749\C,0,10
 .625,5.187,33.834\C,0,11.508,5.004,35.056\O,0,12.634,5.498,35.166\O,0,

 Normal termination of Gaussian 16 at Thu Apr 28 11:48:18 2022.
