 Gaussian 16, Revision A.03,
 Gaussian 16:  ES64L-G16RevA.03 25-Dec-2016

 ------------------------------
 #p blyp/Def2SVP td=(nstates=5)
 ------------------------------

 ---------------------------------------------------
 step_1451_chromophore_25 TDDFT with blyp functional
 ---------------------------------------------------
 Symbolic Z-matrix:
 Charge =  0 Multiplicity = 1

                         Standard orientation:
 ---------------------------------------------------------------------
 Center     Atomic      Atomic             Coordinates (Angstroms)
 Number     Number       Type             X           Y           Z
 ---------------------------------------------------------------------
      1         12           0        5.916622    0.517897    0.193939
      2          6           0        3.682770   -2.231856    0.067789
      3          6           0        3.182809    2.569639   -0.513505
      4          6           0        8.134172    3.036572   -0.153585
      5          6           0        8.677490   -1.814180    0.349128
      6          7           0        3.636679    0.125777   -0.228060
      7          6           0        2.945900   -1.018292   -0.016893
      8          6           0        1.386261   -0.829518   -0.027658
      9          6           0        1.327120    0.742494   -0.475647
     10          6           0        2.812476    1.197952   -0.512640
     11          6           0        0.518688    1.176541   -1.804911
     12          6           0        0.610958   -1.212116    1.327449
     13          6           0       -0.600573   -2.285337    1.241632
     14          6           0       -2.051091   -1.869667    1.500680
     15          8           0       -2.610859   -1.871550    2.661463
     16          8           0       -2.618636   -1.320927    0.422835
     17          7           0        5.671626    2.464299   -0.174661
     18          6           0        4.458436    3.172402   -0.371892
     19          6           0        4.753594    4.553098   -0.467337
     20          6           0        6.179480    4.763465   -0.528979
     21          6           0        6.727864    3.443966   -0.251389
     22          6           0        3.675887    5.645760   -0.598091
     23          6           0        7.043151    5.932623   -0.739863
     24          8           0        8.283346    5.725772   -0.819016
     25          6           0        6.493773    7.244268   -1.028693
     26          7           0        8.103967    0.532635   -0.028929
     27          6           0        8.703708    1.727335   -0.069024
     28          6           0       10.272021    1.479161   -0.045013
     29          6           0       10.394422   -0.000675    0.425061
     30          6           0        8.931712   -0.462741    0.262531
     31          6           0       11.017789    1.834053   -1.335088
     32          6           0       10.782736   -0.174156    1.967764
     33          6           0       12.210546   -0.601673    2.282626
     34          7           0        6.246408   -1.600248    0.115339
     35          6           0        7.362786   -2.404123    0.275945
     36          6           0        6.933916   -3.807717    0.333462
     37          6           0        5.537143   -3.731069    0.252125
     38          6           0        5.116211   -2.399363    0.075293
     39          6           0        7.844285   -4.856608    0.757682
     40          6           0        4.306832   -4.549787    0.426623
     41          8           0        4.175605   -5.739625    0.654028
     42          6           0        3.107561   -3.664540    0.236682
     43          6           0        2.336677   -4.284466   -0.908926
     44          8           0        2.839083   -4.477074   -2.027141
     45          8           0        0.997417   -4.438363   -0.492701
     46          6           0        0.197551   -4.971314   -1.569561
     47          6           0       -3.875561   -0.561651    0.651908
     48          6           0       -4.841839   -1.228824   -0.301776
     49          6           0       -6.177913   -1.388643   -0.155543
     50          6           0       -6.945487   -0.774942    1.056030
     51          6           0       -7.032576   -1.871522   -1.307476
     52          6           0       -7.677736   -0.772139   -2.138826
     53          6           0       -9.144733   -0.408558   -1.707137
     54          6           0      -10.019080   -0.119942   -2.954934
     55          6           0       -9.704318    1.217929   -3.616329
     56          6           0      -11.587990   -0.449212   -2.855042
     57          6           0      -12.370687    0.738493   -2.251577
     58          6           0      -13.620146    0.269627   -1.599810
     59          6           0      -13.496396   -0.078551   -0.121443
     60          6           0      -14.502640   -1.236560    0.103773
     61          6           0      -13.867445    1.186378    0.722819
     62          6           0      -13.120394    1.156820    2.104687
     63          6           0      -12.524768    2.600702    2.392455
     64          6           0      -11.199386    2.510368    3.188343
     65          6           0      -11.471973    2.217762    4.673769
     66          6           0      -10.167423    3.614513    2.902314
     67          1           0        2.350727    3.269002   -0.611358
     68          1           0        8.930602    3.779273   -0.082518
     69          1           0        9.542092   -2.433292    0.599691
     70          1           0        1.066334   -1.450278   -0.864942
     71          1           0        0.852626    1.256753    0.360367
     72          1           0       -0.163149    0.369791   -2.071607
     73          1           0        1.147161    1.367079   -2.674664
     74          1           0        0.081368    2.150707   -1.583490
     75          1           0        0.152054   -0.377556    1.857761
     76          1           0        1.412438   -1.582273    1.967121
     77          1           0       -0.365816   -3.154669    1.855453
     78          1           0       -0.726242   -2.717268    0.248117
     79          1           0        2.661883    5.248210   -0.537886
     80          1           0        3.763292    6.169996   -1.549801
     81          1           0        3.879876    6.356523    0.202479
     82          1           0        7.164710    8.097297   -1.131721
     83          1           0        5.693620    7.458634   -0.320633
     84          1           0        6.052530    7.139869   -2.020143
     85          1           0       10.724266    2.182519    0.654621
     86          1           0       11.057251   -0.554144   -0.240236
     87          1           0       10.225420    2.061298   -2.048131
     88          1           0       11.605464    1.016639   -1.750682
     89          1           0       11.558398    2.774529   -1.224348
     90          1           0       10.117957   -0.896742    2.440767
     91          1           0       10.651758    0.742038    2.544790
     92          1           0       12.354872   -1.490991    2.896161
     93          1           0       12.711527    0.193732    2.835341
     94          1           0       12.708600   -0.797000    1.332624
     95          1           0        7.917803   -4.759559    1.841223
     96          1           0        8.844271   -4.873521    0.324069
     97          1           0        7.416628   -5.853166    0.645361
     98          1           0        2.455062   -3.616796    1.108792
     99          1           0       -0.690170   -4.343437   -1.646176
    100          1           0       -0.051867   -6.024795   -1.437752
    101          1           0        0.546722   -4.803011   -2.588505
    102          1           0       -3.845999    0.495053    0.386655
    103          1           0       -4.272219   -0.590482    1.667188
    104          1           0       -4.501528   -1.760541   -1.190422
    105          1           0       -6.616869    0.247485    1.238836
    106          1           0       -6.828428   -1.370600    1.961100
    107          1           0       -8.004508   -0.641846    0.834398
    108          1           0       -7.738780   -2.599819   -0.907695
    109          1           0       -6.406825   -2.477400   -1.961256
    110          1           0       -7.584298   -1.008758   -3.199301
    111          1           0       -7.059917    0.100018   -1.925251
    112          1           0       -9.064129    0.508727   -1.123418
    113          1           0       -9.544254   -1.180783   -1.048516
    114          1           0       -9.647729   -0.809843   -3.712396
    115          1           0       -8.650858    1.335366   -3.872649
    116          1           0      -10.007071    2.034214   -2.961070
    117          1           0      -10.298632    1.242171   -4.529506
    118          1           0      -11.705718   -1.340598   -2.238783
    119          1           0      -11.941454   -0.617583   -3.872631
    120          1           0      -12.781659    1.304509   -3.087001
    121          1           0      -11.910601    1.452899   -1.568986
    122          1           0      -13.947605   -0.578881   -2.199355
    123          1           0      -14.428304    0.991743   -1.715855
    124          1           0      -12.432478   -0.316096   -0.094704
    125          1           0      -14.025271   -2.193984   -0.104506
    126          1           0      -15.391561   -1.079647   -0.508353
    127          1           0      -14.856784   -1.292400    1.133544
    128          1           0      -14.929420    1.214746    0.965825
    129          1           0      -13.763124    2.115700    0.163534
    130          1           0      -12.403532    0.335620    2.076946
    131          1           0      -13.689896    0.922242    3.004004
    132          1           0      -13.282690    3.201436    2.894783
    133          1           0      -12.425703    3.141081    1.450766
    134          1           0      -10.751942    1.572439    2.858944
    135          1           0      -10.707757    2.651003    5.320060
    136          1           0      -11.333151    1.143335    4.792478
    137          1           0      -12.467690    2.506562    5.009999
    138          1           0       -9.302914    3.124998    2.454935
    139          1           0       -9.733759    4.119713    3.765362
    140          1           0      -10.502272    4.461888    2.303432
 ---------------------------------------------------------------------

 SCF Done:  E(RB-LYP) =  -3007.36926453     A.U. after   23 cycles

 Excitation energies and oscillator strengths:

 Excited State   1:      Singlet-A      1.7655 eV  702.27 nm  f=0.0291  <S**2>=0.000
     243 -> 247        0.13923
     244 -> 247        0.52142
     245 -> 247       -0.39067
     246 -> 247       -0.21626
 This state for optimization and/or second-order correction.
 Total Energy, E(TD-HF/TD-DFT) =  -3007.30438414
 Copying the excited state density for this state as the 1-particle RhoCI density.

 Excited State   2:      Singlet-A      1.8314 eV  676.97 nm  f=0.2616  <S**2>=0.000
     244 -> 247        0.20146
     245 -> 247       -0.11025
     245 -> 248       -0.20801
     246 -> 247        0.64034
     246 <- 247       -0.13143

 Excited State   3:      Singlet-A      1.8825 eV  658.61 nm  f=0.0199  <S**2>=0.000
     243 -> 247        0.56304
     244 -> 247       -0.32390
     245 -> 247       -0.25245

 Excited State   4:      Singlet-A      1.9966 eV  620.99 nm  f=0.0555  <S**2>=0.000
     243 -> 247        0.39868
     244 -> 247        0.27641
     245 -> 247        0.45626
     246 -> 248        0.20595

 Excited State   5:      Singlet-A      2.3461 eV  528.46 nm  f=0.0003  <S**2>=0.000
     241 -> 247        0.70591

 The electronic state is 1-A.
 Alpha  occ. eigenvalues --  -46.27942 -18.83784 -18.83621 -18.78000 -18.75906
 Alpha  occ. eigenvalues --  -18.75466 -18.74750 -14.03647 -14.02729 -14.01605
 Alpha  occ. eigenvalues --  -14.00965 -10.05044 -10.04450  -9.99637  -9.99349
 Alpha  occ. eigenvalues --   -9.98886  -9.97603  -9.97331  -9.97016  -9.96749
 Alpha  occ. eigenvalues --   -9.96417  -9.95963  -9.95937  -9.95782  -9.95765
 Alpha  occ. eigenvalues --   -9.95325  -9.95102  -9.95077  -9.94875  -9.94330
 Alpha  occ. eigenvalues --   -9.94027  -9.93967  -9.93764  -9.93631  -9.93618
 Alpha  occ. eigenvalues --   -9.93523  -9.93217  -9.93046  -9.92956  -9.92874
 Alpha  occ. eigenvalues --   -9.92729  -9.92655  -9.92508  -9.92451  -9.92304
 Alpha  occ. eigenvalues --   -9.92081  -9.92038  -9.92015  -9.91981  -9.91939
 Alpha  occ. eigenvalues --   -9.91809  -9.91780  -9.91750  -9.91717  -9.91504
 Alpha  occ. eigenvalues --   -9.91400  -9.91367  -9.91308  -9.91234  -9.91149
 Alpha  occ. eigenvalues --   -9.91056  -9.90987  -9.90768  -9.90686  -9.90612
 Alpha  occ. eigenvalues --   -9.89862  -2.92435  -1.72841  -1.72366  -1.72118
 Alpha  occ. eigenvalues --   -0.98537  -0.97798  -0.91646  -0.90428  -0.89726
 Alpha  occ. eigenvalues --   -0.86874  -0.86712  -0.85564  -0.84585  -0.83230
 Alpha  occ. eigenvalues --   -0.75164  -0.73869  -0.73366  -0.71832  -0.71735
 Alpha  occ. eigenvalues --   -0.71376  -0.71068  -0.70908  -0.70563  -0.70264
 Alpha  occ. eigenvalues --   -0.69939  -0.69115  -0.67983  -0.67389  -0.67302
 Alpha  occ. eigenvalues --   -0.66588  -0.66418  -0.65644  -0.64818  -0.64406
 Alpha  occ. eigenvalues --   -0.64049  -0.62616  -0.62366  -0.61818  -0.60965
 Alpha  occ. eigenvalues --   -0.60778  -0.60339  -0.59692  -0.59475  -0.58809
 Alpha  occ. eigenvalues --   -0.58442  -0.57553  -0.56726  -0.56168  -0.54174
 Alpha  occ. eigenvalues --   -0.53961  -0.53675  -0.53072  -0.52591  -0.51736
 Alpha  occ. eigenvalues --   -0.51580  -0.51388  -0.50851  -0.50772  -0.50162
 Alpha  occ. eigenvalues --   -0.50017  -0.49039  -0.48967  -0.48223  -0.46218
 Alpha  occ. eigenvalues --   -0.46154  -0.45893  -0.45408  -0.44656  -0.44529
 Alpha  occ. eigenvalues --   -0.44076  -0.43781  -0.42864  -0.42635  -0.42077
 Alpha  occ. eigenvalues --   -0.41938  -0.41726  -0.41476  -0.41313  -0.41030
 Alpha  occ. eigenvalues --   -0.40674  -0.40623  -0.40404  -0.40204  -0.40157
 Alpha  occ. eigenvalues --   -0.39962  -0.39837  -0.39567  -0.39426  -0.39235
 Alpha  occ. eigenvalues --   -0.38818  -0.38645  -0.38336  -0.38278  -0.38210
 Alpha  occ. eigenvalues --   -0.38093  -0.37927  -0.37686  -0.37444  -0.37392
 Alpha  occ. eigenvalues --   -0.37268  -0.37191  -0.37039  -0.36772  -0.36412
 Alpha  occ. eigenvalues --   -0.36267  -0.36088  -0.36020  -0.35789  -0.35732
 Alpha  occ. eigenvalues --   -0.35492  -0.35137  -0.34916  -0.34800  -0.34689
 Alpha  occ. eigenvalues --   -0.34570  -0.34479  -0.34360  -0.34205  -0.34047
 Alpha  occ. eigenvalues --   -0.33871  -0.33704  -0.33568  -0.33194  -0.32836
 Alpha  occ. eigenvalues --   -0.32793  -0.32654  -0.32632  -0.32386  -0.32252
 Alpha  occ. eigenvalues --   -0.32126  -0.32026  -0.31826  -0.31379  -0.31141
 Alpha  occ. eigenvalues --   -0.31089  -0.31049  -0.30826  -0.30774  -0.30715
 Alpha  occ. eigenvalues --   -0.30473  -0.30234  -0.29943  -0.29839  -0.29815
 Alpha  occ. eigenvalues --   -0.29645  -0.29607  -0.29514  -0.29396  -0.29195
 Alpha  occ. eigenvalues --   -0.29111  -0.28488  -0.28322  -0.27930  -0.27909
 Alpha  occ. eigenvalues --   -0.27558  -0.27477  -0.27374  -0.26469  -0.26392
 Alpha  occ. eigenvalues --   -0.26321  -0.26233  -0.26137  -0.25911  -0.25198
 Alpha  occ. eigenvalues --   -0.24978  -0.24762  -0.24350  -0.23837  -0.23736
 Alpha  occ. eigenvalues --   -0.23111  -0.22803  -0.21852  -0.20652  -0.20596
 Alpha  occ. eigenvalues --   -0.20382  -0.20123  -0.18654  -0.18339  -0.17089
 Alpha  occ. eigenvalues --   -0.16200
 Alpha virt. eigenvalues --   -0.11762  -0.07319  -0.06379  -0.04710  -0.04395
 Alpha virt. eigenvalues --   -0.04166  -0.03224  -0.02082  -0.01563  -0.00232
 Alpha virt. eigenvalues --    0.01237   0.01306   0.01767   0.02378   0.02879

 Mulliken charges:
               1
     1  Mg   0.691159
     2  C   -0.010908
     3  C   -0.066598
     4  C    0.001338
     5  C   -0.045277
     6  N   -0.185840
     7  C   -0.136986
     8  C    0.080704
     9  C   -0.045693
    10  C    0.043524
    11  C    0.108560
    12  C    0.128285
    13  C    0.131571
    14  C    0.070160
    15  O   -0.256663
    16  O   -0.245217
    17  N   -0.386509
    18  C    0.181993
    19  C   -0.150282
    20  C    0.054701
    21  C    0.111083
    22  C    0.161395
    23  C   -0.069411
    24  O   -0.209370
    25  C    0.158255
    26  N   -0.159192
    27  C   -0.003343
    28  C   -0.012882
    29  C    0.028860
    30  C    0.006560
    31  C    0.137789
    32  C    0.075349
    33  C    0.064191
    34  N   -0.273770
    35  C    0.081199
    36  C   -0.157662
    37  C    0.074692
    38  C    0.121821
    39  C    0.156934
    40  C   -0.054484
    41  O   -0.128161
    42  C    0.101637
    43  C    0.138823
    44  O   -0.176264
    45  O   -0.270775
    46  C    0.202675
    47  C    0.345141
    48  C   -0.102887
    49  C   -0.177269
    50  C    0.099192
    51  C    0.135692
    52  C    0.079448
    53  C    0.102298
    54  C   -0.069703
    55  C    0.098446
    56  C    0.108794
    57  C    0.090548
    58  C    0.057047
    59  C   -0.061814
    60  C    0.126270
    61  C    0.110691
    62  C    0.051244
    63  C    0.076385
    64  C   -0.071317
    65  C    0.101561
    66  C    0.114328
    67  H   -0.070561
    68  H   -0.033429
    69  H   -0.055590
    70  H   -0.015921
    71  H   -0.017692
    72  H    0.003910
    73  H   -0.003112
    74  H   -0.000024
    75  H   -0.001015
    76  H   -0.006655
    77  H   -0.000420
    78  H   -0.009231
    79  H   -0.015068
    80  H    0.004006
    81  H    0.011031
    82  H   -0.005637
    83  H   -0.007690
    84  H    0.011552
    85  H   -0.031380
    86  H   -0.021521
    87  H   -0.014228
    88  H   -0.008501
    89  H   -0.002673
    90  H   -0.020839
    91  H   -0.020825
    92  H   -0.009497
    93  H   -0.010220
    94  H   -0.015683
    95  H    0.003950
    96  H    0.000717
    97  H   -0.000666
    98  H   -0.009507
    99  H    0.001376
   100  H    0.029958
   101  H    0.014290
   102  H    0.009252
   103  H    0.014947
   104  H   -0.042347
   105  H   -0.008102
   106  H    0.021097
   107  H   -0.015750
   108  H   -0.030490
   109  H   -0.047154
   110  H   -0.017040
   111  H   -0.030179
   112  H   -0.026863
   113  H   -0.021324
   114  H   -0.050023
   115  H   -0.013851
   116  H   -0.013425
   117  H   -0.020457
   118  H   -0.023660
   119  H   -0.026726
   120  H   -0.044460
   121  H   -0.025839
   122  H   -0.052892
   123  H   -0.051923
   124  H   -0.036589
   125  H   -0.015033
   126  H   -0.009639
   127  H   -0.029358
   128  H   -0.041214
   129  H   -0.025999
   130  H   -0.025819
   131  H   -0.026875
   132  H   -0.031336
   133  H   -0.039138
   134  H   -0.035585
   135  H   -0.024645
   136  H   -0.020695
   137  H   -0.007972
   138  H   -0.019601
   139  H   -0.031454
   140  H   -0.017111
 Sum of Mulliken charges =  -0.00000

 Dipole moment (field-independent basis, Debye):
    X=             -2.7658    Y=              4.5096    Z=             -0.3157  Tot=              5.2997
 Quadrupole moment (field-independent basis, Debye-Ang):
   XX=           -386.9240   YY=           -424.0752   ZZ=           -413.3454
   XY=             -2.5280   XZ=             29.2783   YZ=              3.8959

 Normal termination of Gaussian 16 at Wed May  4 07:55:22 2022.
