 Gaussian 16, Revision A.03,
 Gaussian 16:  ES64L-G16RevA.03 25-Dec-2016

 -----------------------------------
 #p cam-b3lyp/Def2SVP td=(nstates=5)
 -----------------------------------

 --------------------------------------------------------
 step_1451_chromophore_25 TDDFT with cam-b3lyp functional
 --------------------------------------------------------
 Symbolic Z-matrix:
 Charge =  0 Multiplicity = 1

                         Standard orientation:
 ---------------------------------------------------------------------
 Center     Atomic      Atomic             Coordinates (Angstroms)
 Number     Number       Type             X           Y           Z
 ---------------------------------------------------------------------
      1         12           0        5.916622    0.517897    0.193939
      2          6           0        3.682770   -2.231856    0.067789
      3          6           0        3.182809    2.569639   -0.513505
      4          6           0        8.134172    3.036572   -0.153585
      5          6           0        8.677490   -1.814180    0.349128
      6          7           0        3.636679    0.125777   -0.228060
      7          6           0        2.945900   -1.018292   -0.016893
      8          6           0        1.386261   -0.829518   -0.027658
      9          6           0        1.327120    0.742494   -0.475647
     10          6           0        2.812476    1.197952   -0.512640
     11          6           0        0.518688    1.176541   -1.804911
     12          6           0        0.610958   -1.212116    1.327449
     13          6           0       -0.600573   -2.285337    1.241632
     14          6           0       -2.051091   -1.869667    1.500680
     15          8           0       -2.610859   -1.871550    2.661463
     16          8           0       -2.618636   -1.320927    0.422835
     17          7           0        5.671626    2.464299   -0.174661
     18          6           0        4.458436    3.172402   -0.371892
     19          6           0        4.753594    4.553098   -0.467337
     20          6           0        6.179480    4.763465   -0.528979
     21          6           0        6.727864    3.443966   -0.251389
     22          6           0        3.675887    5.645760   -0.598091
     23          6           0        7.043151    5.932623   -0.739863
     24          8           0        8.283346    5.725772   -0.819016
     25          6           0        6.493773    7.244268   -1.028693
     26          7           0        8.103967    0.532635   -0.028929
     27          6           0        8.703708    1.727335   -0.069024
     28          6           0       10.272021    1.479161   -0.045013
     29          6           0       10.394422   -0.000675    0.425061
     30          6           0        8.931712   -0.462741    0.262531
     31          6           0       11.017789    1.834053   -1.335088
     32          6           0       10.782736   -0.174156    1.967764
     33          6           0       12.210546   -0.601673    2.282626
     34          7           0        6.246408   -1.600248    0.115339
     35          6           0        7.362786   -2.404123    0.275945
     36          6           0        6.933916   -3.807717    0.333462
     37          6           0        5.537143   -3.731069    0.252125
     38          6           0        5.116211   -2.399363    0.075293
     39          6           0        7.844285   -4.856608    0.757682
     40          6           0        4.306832   -4.549787    0.426623
     41          8           0        4.175605   -5.739625    0.654028
     42          6           0        3.107561   -3.664540    0.236682
     43          6           0        2.336677   -4.284466   -0.908926
     44          8           0        2.839083   -4.477074   -2.027141
     45          8           0        0.997417   -4.438363   -0.492701
     46          6           0        0.197551   -4.971314   -1.569561
     47          6           0       -3.875561   -0.561651    0.651908
     48          6           0       -4.841839   -1.228824   -0.301776
     49          6           0       -6.177913   -1.388643   -0.155543
     50          6           0       -6.945487   -0.774942    1.056030
     51          6           0       -7.032576   -1.871522   -1.307476
     52          6           0       -7.677736   -0.772139   -2.138826
     53          6           0       -9.144733   -0.408558   -1.707137
     54          6           0      -10.019080   -0.119942   -2.954934
     55          6           0       -9.704318    1.217929   -3.616329
     56          6           0      -11.587990   -0.449212   -2.855042
     57          6           0      -12.370687    0.738493   -2.251577
     58          6           0      -13.620146    0.269627   -1.599810
     59          6           0      -13.496396   -0.078551   -0.121443
     60          6           0      -14.502640   -1.236560    0.103773
     61          6           0      -13.867445    1.186378    0.722819
     62          6           0      -13.120394    1.156820    2.104687
     63          6           0      -12.524768    2.600702    2.392455
     64          6           0      -11.199386    2.510368    3.188343
     65          6           0      -11.471973    2.217762    4.673769
     66          6           0      -10.167423    3.614513    2.902314
     67          1           0        2.350727    3.269002   -0.611358
     68          1           0        8.930602    3.779273   -0.082518
     69          1           0        9.542092   -2.433292    0.599691
     70          1           0        1.066334   -1.450278   -0.864942
     71          1           0        0.852626    1.256753    0.360367
     72          1           0       -0.163149    0.369791   -2.071607
     73          1           0        1.147161    1.367079   -2.674664
     74          1           0        0.081368    2.150707   -1.583490
     75          1           0        0.152054   -0.377556    1.857761
     76          1           0        1.412438   -1.582273    1.967121
     77          1           0       -0.365816   -3.154669    1.855453
     78          1           0       -0.726242   -2.717268    0.248117
     79          1           0        2.661883    5.248210   -0.537886
     80          1           0        3.763292    6.169996   -1.549801
     81          1           0        3.879876    6.356523    0.202479
     82          1           0        7.164710    8.097297   -1.131721
     83          1           0        5.693620    7.458634   -0.320633
     84          1           0        6.052530    7.139869   -2.020143
     85          1           0       10.724266    2.182519    0.654621
     86          1           0       11.057251   -0.554144   -0.240236
     87          1           0       10.225420    2.061298   -2.048131
     88          1           0       11.605464    1.016639   -1.750682
     89          1           0       11.558398    2.774529   -1.224348
     90          1           0       10.117957   -0.896742    2.440767
     91          1           0       10.651758    0.742038    2.544790
     92          1           0       12.354872   -1.490991    2.896161
     93          1           0       12.711527    0.193732    2.835341
     94          1           0       12.708600   -0.797000    1.332624
     95          1           0        7.917803   -4.759559    1.841223
     96          1           0        8.844271   -4.873521    0.324069
     97          1           0        7.416628   -5.853166    0.645361
     98          1           0        2.455062   -3.616796    1.108792
     99          1           0       -0.690170   -4.343437   -1.646176
    100          1           0       -0.051867   -6.024795   -1.437752
    101          1           0        0.546722   -4.803011   -2.588505
    102          1           0       -3.845999    0.495053    0.386655
    103          1           0       -4.272219   -0.590482    1.667188
    104          1           0       -4.501528   -1.760541   -1.190422
    105          1           0       -6.616869    0.247485    1.238836
    106          1           0       -6.828428   -1.370600    1.961100
    107          1           0       -8.004508   -0.641846    0.834398
    108          1           0       -7.738780   -2.599819   -0.907695
    109          1           0       -6.406825   -2.477400   -1.961256
    110          1           0       -7.584298   -1.008758   -3.199301
    111          1           0       -7.059917    0.100018   -1.925251
    112          1           0       -9.064129    0.508727   -1.123418
    113          1           0       -9.544254   -1.180783   -1.048516
    114          1           0       -9.647729   -0.809843   -3.712396
    115          1           0       -8.650858    1.335366   -3.872649
    116          1           0      -10.007071    2.034214   -2.961070
    117          1           0      -10.298632    1.242171   -4.529506
    118          1           0      -11.705718   -1.340598   -2.238783
    119          1           0      -11.941454   -0.617583   -3.872631
    120          1           0      -12.781659    1.304509   -3.087001
    121          1           0      -11.910601    1.452899   -1.568986
    122          1           0      -13.947605   -0.578881   -2.199355
    123          1           0      -14.428304    0.991743   -1.715855
    124          1           0      -12.432478   -0.316096   -0.094704
    125          1           0      -14.025271   -2.193984   -0.104506
    126          1           0      -15.391561   -1.079647   -0.508353
    127          1           0      -14.856784   -1.292400    1.133544
    128          1           0      -14.929420    1.214746    0.965825
    129          1           0      -13.763124    2.115700    0.163534
    130          1           0      -12.403532    0.335620    2.076946
    131          1           0      -13.689896    0.922242    3.004004
    132          1           0      -13.282690    3.201436    2.894783
    133          1           0      -12.425703    3.141081    1.450766
    134          1           0      -10.751942    1.572439    2.858944
    135          1           0      -10.707757    2.651003    5.320060
    136          1           0      -11.333151    1.143335    4.792478
    137          1           0      -12.467690    2.506562    5.009999
    138          1           0       -9.302914    3.124998    2.454935
    139          1           0       -9.733759    4.119713    3.765362
    140          1           0      -10.502272    4.461888    2.303432
 ---------------------------------------------------------------------

 SCF Done:  E(RCAM-B3LYP) =  -3007.14326070     A.U. after   19 cycles

 Excitation energies and oscillator strengths:

 Excited State   1:      Singlet-A      1.7147 eV  723.06 nm  f=0.3617  <S**2>=0.000
     245 -> 248        0.20482
     246 -> 247        0.67904
     245 <- 248        0.11256
 This state for optimization and/or second-order correction.
 Total Energy, E(TD-HF/TD-DFT) =  -3007.08024583
 Copying the excited state density for this state as the 1-particle RhoCI density.

 Excited State   2:      Singlet-A      2.1523 eV  576.05 nm  f=0.1397  <S**2>=0.000
     245 -> 247        0.64935
     246 -> 248       -0.26803

 Excited State   3:      Singlet-A      3.2442 eV  382.17 nm  f=0.0017  <S**2>=0.000
     244 -> 247        0.69108

 Excited State   4:      Singlet-A      3.3914 eV  365.59 nm  f=0.0521  <S**2>=0.000
     243 -> 247        0.57914
     246 -> 248        0.33956

 Excited State   5:      Singlet-A      3.4575 eV  358.59 nm  f=0.0463  <S**2>=0.000
     239 -> 249       -0.11553
     240 -> 247        0.28323
     240 -> 251       -0.12426
     241 -> 247        0.40591
     241 -> 248        0.12938
     241 -> 249        0.26707
     241 -> 251       -0.14719
     243 -> 247        0.22022
     246 -> 248       -0.12280

 The electronic state is 1-A.
 Alpha  occ. eigenvalues --  -46.89513 -19.26890 -19.26578 -19.21244 -19.18941
 Alpha  occ. eigenvalues --  -19.18852 -19.17811 -14.42696 -14.41359 -14.39983
 Alpha  occ. eigenvalues --  -14.39453 -10.40742 -10.39853 -10.34804 -10.34724
 Alpha  occ. eigenvalues --  -10.33038 -10.32003 -10.31648 -10.31430 -10.31218
 Alpha  occ. eigenvalues --  -10.30822 -10.30361 -10.30280 -10.30092 -10.30054
 Alpha  occ. eigenvalues --  -10.29617 -10.29449 -10.29445 -10.29189 -10.28838
 Alpha  occ. eigenvalues --  -10.28528 -10.28083 -10.28053 -10.28048 -10.27557
 Alpha  occ. eigenvalues --  -10.27495 -10.27121 -10.26999 -10.26966 -10.26908
 Alpha  occ. eigenvalues --  -10.26707 -10.26566 -10.26399 -10.26211 -10.26022
 Alpha  occ. eigenvalues --  -10.25832 -10.25800 -10.25756 -10.25710 -10.25658
 Alpha  occ. eigenvalues --  -10.25642 -10.25629 -10.25513 -10.25491 -10.25465
 Alpha  occ. eigenvalues --  -10.25085 -10.25068 -10.25017 -10.24941 -10.24851
 Alpha  occ. eigenvalues --  -10.24667 -10.24599 -10.24363 -10.24308 -10.24205
 Alpha  occ. eigenvalues --  -10.23484  -3.17902  -1.92786  -1.92384  -1.92180
 Alpha  occ. eigenvalues --   -1.16961  -1.16395  -1.10281  -1.08563  -1.07928
 Alpha  occ. eigenvalues --   -1.04697  -1.04356  -1.03326  -1.02220  -1.00565
 Alpha  occ. eigenvalues --   -0.92445  -0.90770  -0.90215  -0.88521  -0.88353
 Alpha  occ. eigenvalues --   -0.88055  -0.87648  -0.87518  -0.87184  -0.86783
 Alpha  occ. eigenvalues --   -0.86531  -0.85413  -0.84277  -0.83565  -0.83495
 Alpha  occ. eigenvalues --   -0.82725  -0.82463  -0.81643  -0.80666  -0.80190
 Alpha  occ. eigenvalues --   -0.79814  -0.78305  -0.78009  -0.77365  -0.76406
 Alpha  occ. eigenvalues --   -0.76231  -0.75724  -0.74949  -0.74759  -0.74025
 Alpha  occ. eigenvalues --   -0.73527  -0.72589  -0.71624  -0.70967  -0.68819
 Alpha  occ. eigenvalues --   -0.68643  -0.68167  -0.67459  -0.66939  -0.66024
 Alpha  occ. eigenvalues --   -0.65733  -0.65352  -0.64896  -0.64686  -0.64239
 Alpha  occ. eigenvalues --   -0.64095  -0.62973  -0.62833  -0.62012  -0.59782
 Alpha  occ. eigenvalues --   -0.59701  -0.59321  -0.59082  -0.58426  -0.57863
 Alpha  occ. eigenvalues --   -0.57541  -0.57280  -0.56025  -0.55849  -0.55404
 Alpha  occ. eigenvalues --   -0.54973  -0.54838  -0.54445  -0.54261  -0.54055
 Alpha  occ. eigenvalues --   -0.53559  -0.53317  -0.53091  -0.52968  -0.52869
 Alpha  occ. eigenvalues --   -0.52664  -0.52497  -0.52211  -0.51948  -0.51698
 Alpha  occ. eigenvalues --   -0.51350  -0.50980  -0.50907  -0.50812  -0.50675
 Alpha  occ. eigenvalues --   -0.50564  -0.50142  -0.49909  -0.49788  -0.49720
 Alpha  occ. eigenvalues --   -0.49583  -0.49403  -0.49367  -0.49236  -0.48779
 Alpha  occ. eigenvalues --   -0.48507  -0.48399  -0.48110  -0.48060  -0.47747
 Alpha  occ. eigenvalues --   -0.47667  -0.47070  -0.46946  -0.46712  -0.46623
 Alpha  occ. eigenvalues --   -0.46410  -0.46358  -0.46287  -0.46128  -0.45854
 Alpha  occ. eigenvalues --   -0.45798  -0.45605  -0.45355  -0.44801  -0.44713
 Alpha  occ. eigenvalues --   -0.44517  -0.44449  -0.44207  -0.44148  -0.43830
 Alpha  occ. eigenvalues --   -0.43753  -0.43546  -0.43382  -0.42931  -0.42824
 Alpha  occ. eigenvalues --   -0.42721  -0.42550  -0.42384  -0.42301  -0.42087
 Alpha  occ. eigenvalues --   -0.41921  -0.41649  -0.41358  -0.41195  -0.41029
 Alpha  occ. eigenvalues --   -0.40880  -0.40810  -0.40686  -0.40578  -0.40389
 Alpha  occ. eigenvalues --   -0.40290  -0.39390  -0.39283  -0.38908  -0.38764
 Alpha  occ. eigenvalues --   -0.38513  -0.38409  -0.38207  -0.37813  -0.37572
 Alpha  occ. eigenvalues --   -0.37241  -0.37017  -0.36867  -0.36657  -0.36266
 Alpha  occ. eigenvalues --   -0.36036  -0.35495  -0.35290  -0.34823  -0.34244
 Alpha  occ. eigenvalues --   -0.33678  -0.33030  -0.32884  -0.31353  -0.30973
 Alpha  occ. eigenvalues --   -0.30569  -0.30189  -0.29825  -0.29471  -0.23773
 Alpha  occ. eigenvalues --   -0.21592
 Alpha virt. eigenvalues --   -0.08973  -0.02168   0.00032   0.01758   0.02266
 Alpha virt. eigenvalues --    0.03311   0.03548   0.05391   0.05811   0.06844
 Alpha virt. eigenvalues --    0.07150   0.07627   0.08391   0.08708   0.09087

 Mulliken charges:
               1
     1  Mg   0.818793
     2  C   -0.036897
     3  C   -0.074672
     4  C   -0.021976
     5  C   -0.054576
     6  N   -0.251130
     7  C   -0.094473
     8  C    0.035377
     9  C   -0.093518
    10  C    0.058408
    11  C    0.053615
    12  C    0.075039
    13  C    0.066137
    14  C    0.153537
    15  O   -0.300790
    16  O   -0.310030
    17  N   -0.473921
    18  C    0.185251
    19  C   -0.155653
    20  C   -0.018155
    21  C    0.139873
    22  C    0.107660
    23  C    0.008140
    24  O   -0.252782
    25  C    0.073755
    26  N   -0.234292
    27  C    0.017221
    28  C   -0.062812
    29  C   -0.029273
    30  C    0.025824
    31  C    0.077710
    32  C    0.021109
    33  C    0.003729
    34  N   -0.359791
    35  C    0.092165
    36  C   -0.150698
    37  C   -0.003255
    38  C    0.158558
    39  C    0.097563
    40  C    0.043920
    41  O   -0.164855
    42  C    0.028107
    43  C    0.226497
    44  O   -0.214330
    45  O   -0.335308
    46  C    0.162139
    47  C    0.309383
    48  C   -0.121803
    49  C   -0.195072
    50  C    0.038650
    51  C    0.073469
    52  C    0.022607
    53  C    0.050703
    54  C   -0.127100
    55  C    0.042890
    56  C    0.060679
    57  C    0.029300
    58  C    0.005932
    59  C   -0.118864
    60  C    0.067632
    61  C    0.054674
    62  C    0.003253
    63  C    0.024715
    64  C   -0.133630
    65  C    0.042641
    66  C    0.053867
    67  H   -0.035899
    68  H    0.005939
    69  H   -0.020708
    70  H    0.016926
    71  H    0.015521
    72  H    0.027007
    73  H    0.022723
    74  H    0.021417
    75  H    0.029264
    76  H    0.023428
    77  H    0.032450
    78  H    0.017831
    79  H    0.011720
    80  H    0.029134
    81  H    0.034474
    82  H    0.030455
    83  H    0.018940
    84  H    0.039283
    85  H    0.003616
    86  H    0.013031
    87  H    0.012989
    88  H    0.015293
    89  H    0.021481
    90  H    0.009240
    91  H    0.008140
    92  H    0.014537
    93  H    0.013271
    94  H    0.006489
    95  H    0.031151
    96  H    0.026303
    97  H    0.028473
    98  H    0.033853
    99  H    0.020615
   100  H    0.051874
   101  H    0.042213
   102  H    0.035788
   103  H    0.050210
   104  H   -0.007654
   105  H    0.014407
   106  H    0.046321
   107  H    0.007869
   108  H   -0.000190
   109  H   -0.014454
   110  H    0.010889
   111  H   -0.001162
   112  H   -0.001927
   113  H    0.004124
   114  H   -0.016805
   115  H    0.010847
   116  H    0.008526
   117  H    0.004191
   118  H    0.002523
   119  H    0.002542
   120  H   -0.013016
   121  H   -0.001184
   122  H   -0.021355
   123  H   -0.021300
   124  H   -0.008089
   125  H    0.009455
   126  H    0.013951
   127  H   -0.004386
   128  H   -0.010588
   129  H    0.001691
   130  H    0.000107
   131  H    0.000277
   132  H   -0.003399
   133  H   -0.011051
   134  H   -0.003872
   135  H    0.000986
   136  H    0.003023
   137  H    0.014676
   138  H    0.003349
   139  H   -0.005937
   140  H    0.007275
 Sum of Mulliken charges =  -0.00000

 Dipole moment (field-independent basis, Debye):
    X=             -3.0236    Y=              4.6672    Z=             -0.2791  Tot=              5.5680
 Quadrupole moment (field-independent basis, Debye-Ang):
   XX=           -386.6725   YY=           -419.9697   ZZ=           -413.8164
   XY=             -3.1468   XZ=             31.1059   YZ=              3.6870

 Normal termination of Gaussian 16 at Wed May  4 06:56:49 2022.
