 Gaussian 16, Revision A.03,
 Gaussian 16:  ES64L-G16RevA.03 25-Dec-2016

 ---------------------------------
 #p PBE1PBE/Def2SVP td=(nstates=5)
 ---------------------------------

 ------------------------------------------------------
 step_1451_chromophore_25 TDDFT with PBE1PBE functional
 ------------------------------------------------------
 Symbolic Z-matrix:
 Charge =  0 Multiplicity = 1

                         Standard orientation:
 ---------------------------------------------------------------------
 Center     Atomic      Atomic             Coordinates (Angstroms)
 Number     Number       Type             X           Y           Z
 ---------------------------------------------------------------------
      1         12           0        5.916622    0.517897    0.193939
      2          6           0        3.682770   -2.231856    0.067789
      3          6           0        3.182809    2.569639   -0.513505
      4          6           0        8.134172    3.036572   -0.153585
      5          6           0        8.677490   -1.814180    0.349128
      6          7           0        3.636679    0.125777   -0.228060
      7          6           0        2.945900   -1.018292   -0.016893
      8          6           0        1.386261   -0.829518   -0.027658
      9          6           0        1.327120    0.742494   -0.475647
     10          6           0        2.812476    1.197952   -0.512640
     11          6           0        0.518688    1.176541   -1.804911
     12          6           0        0.610958   -1.212116    1.327449
     13          6           0       -0.600573   -2.285337    1.241632
     14          6           0       -2.051091   -1.869667    1.500680
     15          8           0       -2.610859   -1.871550    2.661463
     16          8           0       -2.618636   -1.320927    0.422835
     17          7           0        5.671626    2.464299   -0.174661
     18          6           0        4.458436    3.172402   -0.371892
     19          6           0        4.753594    4.553098   -0.467337
     20          6           0        6.179480    4.763465   -0.528979
     21          6           0        6.727864    3.443966   -0.251389
     22          6           0        3.675887    5.645760   -0.598091
     23          6           0        7.043151    5.932623   -0.739863
     24          8           0        8.283346    5.725772   -0.819016
     25          6           0        6.493773    7.244268   -1.028693
     26          7           0        8.103967    0.532635   -0.028929
     27          6           0        8.703708    1.727335   -0.069024
     28          6           0       10.272021    1.479161   -0.045013
     29          6           0       10.394422   -0.000675    0.425061
     30          6           0        8.931712   -0.462741    0.262531
     31          6           0       11.017789    1.834053   -1.335088
     32          6           0       10.782736   -0.174156    1.967764
     33          6           0       12.210546   -0.601673    2.282626
     34          7           0        6.246408   -1.600248    0.115339
     35          6           0        7.362786   -2.404123    0.275945
     36          6           0        6.933916   -3.807717    0.333462
     37          6           0        5.537143   -3.731069    0.252125
     38          6           0        5.116211   -2.399363    0.075293
     39          6           0        7.844285   -4.856608    0.757682
     40          6           0        4.306832   -4.549787    0.426623
     41          8           0        4.175605   -5.739625    0.654028
     42          6           0        3.107561   -3.664540    0.236682
     43          6           0        2.336677   -4.284466   -0.908926
     44          8           0        2.839083   -4.477074   -2.027141
     45          8           0        0.997417   -4.438363   -0.492701
     46          6           0        0.197551   -4.971314   -1.569561
     47          6           0       -3.875561   -0.561651    0.651908
     48          6           0       -4.841839   -1.228824   -0.301776
     49          6           0       -6.177913   -1.388643   -0.155543
     50          6           0       -6.945487   -0.774942    1.056030
     51          6           0       -7.032576   -1.871522   -1.307476
     52          6           0       -7.677736   -0.772139   -2.138826
     53          6           0       -9.144733   -0.408558   -1.707137
     54          6           0      -10.019080   -0.119942   -2.954934
     55          6           0       -9.704318    1.217929   -3.616329
     56          6           0      -11.587990   -0.449212   -2.855042
     57          6           0      -12.370687    0.738493   -2.251577
     58          6           0      -13.620146    0.269627   -1.599810
     59          6           0      -13.496396   -0.078551   -0.121443
     60          6           0      -14.502640   -1.236560    0.103773
     61          6           0      -13.867445    1.186378    0.722819
     62          6           0      -13.120394    1.156820    2.104687
     63          6           0      -12.524768    2.600702    2.392455
     64          6           0      -11.199386    2.510368    3.188343
     65          6           0      -11.471973    2.217762    4.673769
     66          6           0      -10.167423    3.614513    2.902314
     67          1           0        2.350727    3.269002   -0.611358
     68          1           0        8.930602    3.779273   -0.082518
     69          1           0        9.542092   -2.433292    0.599691
     70          1           0        1.066334   -1.450278   -0.864942
     71          1           0        0.852626    1.256753    0.360367
     72          1           0       -0.163149    0.369791   -2.071607
     73          1           0        1.147161    1.367079   -2.674664
     74          1           0        0.081368    2.150707   -1.583490
     75          1           0        0.152054   -0.377556    1.857761
     76          1           0        1.412438   -1.582273    1.967121
     77          1           0       -0.365816   -3.154669    1.855453
     78          1           0       -0.726242   -2.717268    0.248117
     79          1           0        2.661883    5.248210   -0.537886
     80          1           0        3.763292    6.169996   -1.549801
     81          1           0        3.879876    6.356523    0.202479
     82          1           0        7.164710    8.097297   -1.131721
     83          1           0        5.693620    7.458634   -0.320633
     84          1           0        6.052530    7.139869   -2.020143
     85          1           0       10.724266    2.182519    0.654621
     86          1           0       11.057251   -0.554144   -0.240236
     87          1           0       10.225420    2.061298   -2.048131
     88          1           0       11.605464    1.016639   -1.750682
     89          1           0       11.558398    2.774529   -1.224348
     90          1           0       10.117957   -0.896742    2.440767
     91          1           0       10.651758    0.742038    2.544790
     92          1           0       12.354872   -1.490991    2.896161
     93          1           0       12.711527    0.193732    2.835341
     94          1           0       12.708600   -0.797000    1.332624
     95          1           0        7.917803   -4.759559    1.841223
     96          1           0        8.844271   -4.873521    0.324069
     97          1           0        7.416628   -5.853166    0.645361
     98          1           0        2.455062   -3.616796    1.108792
     99          1           0       -0.690170   -4.343437   -1.646176
    100          1           0       -0.051867   -6.024795   -1.437752
    101          1           0        0.546722   -4.803011   -2.588505
    102          1           0       -3.845999    0.495053    0.386655
    103          1           0       -4.272219   -0.590482    1.667188
    104          1           0       -4.501528   -1.760541   -1.190422
    105          1           0       -6.616869    0.247485    1.238836
    106          1           0       -6.828428   -1.370600    1.961100
    107          1           0       -8.004508   -0.641846    0.834398
    108          1           0       -7.738780   -2.599819   -0.907695
    109          1           0       -6.406825   -2.477400   -1.961256
    110          1           0       -7.584298   -1.008758   -3.199301
    111          1           0       -7.059917    0.100018   -1.925251
    112          1           0       -9.064129    0.508727   -1.123418
    113          1           0       -9.544254   -1.180783   -1.048516
    114          1           0       -9.647729   -0.809843   -3.712396
    115          1           0       -8.650858    1.335366   -3.872649
    116          1           0      -10.007071    2.034214   -2.961070
    117          1           0      -10.298632    1.242171   -4.529506
    118          1           0      -11.705718   -1.340598   -2.238783
    119          1           0      -11.941454   -0.617583   -3.872631
    120          1           0      -12.781659    1.304509   -3.087001
    121          1           0      -11.910601    1.452899   -1.568986
    122          1           0      -13.947605   -0.578881   -2.199355
    123          1           0      -14.428304    0.991743   -1.715855
    124          1           0      -12.432478   -0.316096   -0.094704
    125          1           0      -14.025271   -2.193984   -0.104506
    126          1           0      -15.391561   -1.079647   -0.508353
    127          1           0      -14.856784   -1.292400    1.133544
    128          1           0      -14.929420    1.214746    0.965825
    129          1           0      -13.763124    2.115700    0.163534
    130          1           0      -12.403532    0.335620    2.076946
    131          1           0      -13.689896    0.922242    3.004004
    132          1           0      -13.282690    3.201436    2.894783
    133          1           0      -12.425703    3.141081    1.450766
    134          1           0      -10.751942    1.572439    2.858944
    135          1           0      -10.707757    2.651003    5.320060
    136          1           0      -11.333151    1.143335    4.792478
    137          1           0      -12.467690    2.506562    5.009999
    138          1           0       -9.302914    3.124998    2.454935
    139          1           0       -9.733759    4.119713    3.765362
    140          1           0      -10.502272    4.461888    2.303432
 ---------------------------------------------------------------------

 SCF Done:  E(RPBE1PBE) =  -3005.33222106     A.U. after   16 cycles

 Excitation energies and oscillator strengths:

 Excited State   1:      Singlet-A      1.8780 eV  660.19 nm  f=0.3468  <S**2>=0.000
     245 -> 248       -0.19867
     246 -> 247        0.68478
 This state for optimization and/or second-order correction.
 Total Energy, E(TD-HF/TD-DFT) =  -3005.26320552
 Copying the excited state density for this state as the 1-particle RhoCI density.

 Excited State   2:      Singlet-A      2.1542 eV  575.54 nm  f=0.1299  <S**2>=0.000
     245 -> 247        0.65838
     246 -> 248        0.24242

 Excited State   3:      Singlet-A      2.9162 eV  425.15 nm  f=0.0022  <S**2>=0.000
     240 -> 247        0.12525
     241 -> 247        0.13357
     243 -> 247        0.10313
     244 -> 247        0.66381

 Excited State   4:      Singlet-A      2.9407 eV  421.61 nm  f=0.0006  <S**2>=0.000
     241 -> 247        0.39648
     241 -> 249        0.12677
     243 -> 247        0.50058
     244 -> 247       -0.15219

 Excited State   5:      Singlet-A      2.9917 eV  414.43 nm  f=0.0037  <S**2>=0.000
     240 -> 247        0.43817
     241 -> 247        0.40338
     243 -> 247       -0.30487
     244 -> 247       -0.13712

 The electronic state is 1-A.
 Alpha  occ. eigenvalues --  -46.92929 -19.27494 -19.27273 -19.21426 -19.19227
 Alpha  occ. eigenvalues --  -19.19019 -19.18185 -14.42108 -14.40922 -14.39780
 Alpha  occ. eigenvalues --  -14.39095 -10.37723 -10.36929 -10.31911 -10.31847
 Alpha  occ. eigenvalues --  -10.30457 -10.29667 -10.29239 -10.29024 -10.28846
 Alpha  occ. eigenvalues --  -10.28608 -10.28014 -10.27922 -10.27887 -10.27849
 Alpha  occ. eigenvalues --  -10.27246 -10.27171 -10.27072 -10.27025 -10.26594
 Alpha  occ. eigenvalues --  -10.26051 -10.25653 -10.25628 -10.25573 -10.25425
 Alpha  occ. eigenvalues --  -10.24979 -10.24857 -10.24812 -10.24760 -10.24454
 Alpha  occ. eigenvalues --  -10.24416 -10.24403 -10.23864 -10.23709 -10.23520
 Alpha  occ. eigenvalues --  -10.23405 -10.23332 -10.23280 -10.23232 -10.23207
 Alpha  occ. eigenvalues --  -10.23201 -10.23195 -10.23188 -10.23176 -10.23031
 Alpha  occ. eigenvalues --  -10.22657 -10.22581 -10.22509 -10.22447 -10.22421
 Alpha  occ. eigenvalues --  -10.22045 -10.21981 -10.21836 -10.21743 -10.21578
 Alpha  occ. eigenvalues --  -10.21040  -3.14901  -1.87724  -1.87299  -1.87101
 Alpha  occ. eigenvalues --   -1.11812  -1.11099  -1.04899  -1.03306  -1.02722
 Alpha  occ. eigenvalues --   -0.99547  -0.99001  -0.97872  -0.96816  -0.95275
 Alpha  occ. eigenvalues --   -0.86701  -0.84874  -0.84331  -0.82664  -0.82621
 Alpha  occ. eigenvalues --   -0.82193  -0.81968  -0.81646  -0.81485  -0.81116
 Alpha  occ. eigenvalues --   -0.80796  -0.79629  -0.78503  -0.77813  -0.77713
 Alpha  occ. eigenvalues --   -0.76954  -0.76704  -0.75923  -0.74875  -0.74549
 Alpha  occ. eigenvalues --   -0.74008  -0.72650  -0.72246  -0.71665  -0.70592
 Alpha  occ. eigenvalues --   -0.70473  -0.69807  -0.69322  -0.68876  -0.68197
 Alpha  occ. eigenvalues --   -0.67837  -0.67012  -0.65970  -0.65412  -0.63140
 Alpha  occ. eigenvalues --   -0.62953  -0.62501  -0.61967  -0.61190  -0.60207
 Alpha  occ. eigenvalues --   -0.60152  -0.59823  -0.59425  -0.59190  -0.58786
 Alpha  occ. eigenvalues --   -0.58212  -0.57354  -0.57165  -0.56230  -0.54340
 Alpha  occ. eigenvalues --   -0.54300  -0.53733  -0.53533  -0.52832  -0.52444
 Alpha  occ. eigenvalues --   -0.52146  -0.51626  -0.50582  -0.50364  -0.49933
 Alpha  occ. eigenvalues --   -0.49563  -0.49318  -0.49109  -0.48675  -0.48482
 Alpha  occ. eigenvalues --   -0.48175  -0.47816  -0.47586  -0.47464  -0.47358
 Alpha  occ. eigenvalues --   -0.47169  -0.47035  -0.46815  -0.46423  -0.46297
 Alpha  occ. eigenvalues --   -0.46002  -0.45492  -0.45399  -0.45375  -0.45282
 Alpha  occ. eigenvalues --   -0.45091  -0.44754  -0.44523  -0.44352  -0.44324
 Alpha  occ. eigenvalues --   -0.44129  -0.43983  -0.43936  -0.43810  -0.43359
 Alpha  occ. eigenvalues --   -0.43154  -0.42991  -0.42738  -0.42658  -0.42424
 Alpha  occ. eigenvalues --   -0.42308  -0.41699  -0.41547  -0.41445  -0.41306
 Alpha  occ. eigenvalues --   -0.41111  -0.41005  -0.40901  -0.40750  -0.40518
 Alpha  occ. eigenvalues --   -0.40488  -0.40337  -0.40111  -0.39533  -0.39420
 Alpha  occ. eigenvalues --   -0.39341  -0.39223  -0.38979  -0.38834  -0.38663
 Alpha  occ. eigenvalues --   -0.38613  -0.38233  -0.38100  -0.37771  -0.37678
 Alpha  occ. eigenvalues --   -0.37460  -0.37398  -0.37109  -0.37068  -0.36850
 Alpha  occ. eigenvalues --   -0.36776  -0.36472  -0.36136  -0.36028  -0.35843
 Alpha  occ. eigenvalues --   -0.35836  -0.35659  -0.35509  -0.35423  -0.35240
 Alpha  occ. eigenvalues --   -0.35024  -0.34272  -0.34179  -0.33834  -0.33635
 Alpha  occ. eigenvalues --   -0.33499  -0.33247  -0.33014  -0.32707  -0.32530
 Alpha  occ. eigenvalues --   -0.32022  -0.31847  -0.31725  -0.31647  -0.31294
 Alpha  occ. eigenvalues --   -0.31051  -0.30391  -0.30106  -0.29730  -0.29213
 Alpha  occ. eigenvalues --   -0.28874  -0.28645  -0.27667  -0.26874  -0.25819
 Alpha  occ. eigenvalues --   -0.25521  -0.25479  -0.25417  -0.25034  -0.20771
 Alpha  occ. eigenvalues --   -0.19185
 Alpha virt. eigenvalues --   -0.11392  -0.05672  -0.04145  -0.02157  -0.01329
 Alpha virt. eigenvalues --   -0.01154  -0.00927   0.00913   0.01299   0.02775
 Alpha virt. eigenvalues --    0.03992   0.04214   0.04537   0.05160   0.05738

 Mulliken charges:
               1
     1  Mg   0.960679
     2  C   -0.043005
     3  C   -0.073436
     4  C   -0.015602
     5  C   -0.041234
     6  N   -0.350695
     7  C   -0.026470
     8  C   -0.029537
     9  C   -0.165589
    10  C    0.100608
    11  C   -0.006368
    12  C    0.021660
    13  C   -0.009305
    14  C    0.217106
    15  O   -0.330978
    16  O   -0.338451
    17  N   -0.584355
    18  C    0.208378
    19  C   -0.184788
    20  C   -0.067976
    21  C    0.173995
    22  C    0.048802
    23  C    0.052098
    24  O   -0.288013
    25  C    0.003851
    26  N   -0.339579
    27  C    0.045147
    28  C   -0.131292
    29  C   -0.108585
    30  C    0.056527
    31  C    0.020374
    32  C   -0.032691
    33  C   -0.066324
    34  N   -0.476984
    35  C    0.118312
    36  C   -0.167029
    37  C   -0.064280
    38  C    0.209571
    39  C    0.042527
    40  C    0.140986
    41  O   -0.211961
    42  C   -0.080616
    43  C    0.309357
    44  O   -0.246547
    45  O   -0.365834
    46  C    0.108733
    47  C    0.265294
    48  C   -0.130892
    49  C   -0.237063
    50  C   -0.023998
    51  C    0.008236
    52  C   -0.040481
    53  C   -0.000747
    54  C   -0.214837
    55  C   -0.015504
    56  C    0.003661
    57  C   -0.038765
    58  C   -0.043148
    59  C   -0.213206
    60  C    0.006592
    61  C    0.005356
    62  C   -0.052900
    63  C   -0.029868
    64  C   -0.231278
    65  C   -0.014912
    66  C   -0.004720
    67  H   -0.002565
    68  H    0.037594
    69  H    0.009888
    70  H    0.056907
    71  H    0.053477
    72  H    0.054406
    73  H    0.050301
    74  H    0.047557
    75  H    0.059958
    76  H    0.055718
    77  H    0.063816
    78  H    0.054037
    79  H    0.039709
    80  H    0.057094
    81  H    0.062579
    82  H    0.057613
    83  H    0.046126
    84  H    0.066782
    85  H    0.040654
    86  H    0.047547
    87  H    0.042134
    88  H    0.042536
    89  H    0.048051
    90  H    0.042390
    91  H    0.039862
    92  H    0.041856
    93  H    0.040741
    94  H    0.034116
    95  H    0.059550
    96  H    0.051845
    97  H    0.056678
    98  H    0.073267
    99  H    0.040700
   100  H    0.073810
   101  H    0.063279
   102  H    0.062220
   103  H    0.075968
   104  H    0.022278
   105  H    0.041110
   106  H    0.073222
   107  H    0.036985
   108  H    0.033628
   109  H    0.018402
   110  H    0.040754
   111  H    0.033370
   112  H    0.030417
   113  H    0.033925
   114  H    0.023805
   115  H    0.038780
   116  H    0.035993
   117  H    0.032715
   118  H    0.035273
   119  H    0.034743
   120  H    0.021892
   121  H    0.030954
   122  H    0.012579
   123  H    0.011909
   124  H    0.031010
   125  H    0.037805
   126  H    0.040893
   127  H    0.024205
   128  H    0.022512
   129  H    0.031141
   130  H    0.030487
   131  H    0.032042
   132  H    0.029345
   133  H    0.021283
   134  H    0.035532
   135  H    0.028711
   136  H    0.030237
   137  H    0.040978
   138  H    0.030138
   139  H    0.021014
   140  H    0.033726
 Sum of Mulliken charges =  -0.00000

 Dipole moment (field-independent basis, Debye):
    X=             -2.9335    Y=              4.8927    Z=             -0.2918  Tot=              5.7122
 Quadrupole moment (field-independent basis, Debye-Ang):
   XX=           -379.4657   YY=           -417.3930   ZZ=           -411.1482
   XY=             -2.5978   XZ=             31.8959   YZ=              3.3967

 Normal termination of Gaussian 16 at Wed May  4 07:13:17 2022.
