 Gaussian 16, Revision A.03,
 Gaussian 16:  ES64L-G16RevA.03 25-Dec-2016

 --------------------------------
 #p wB97XD/Def2SVP td=(nstates=5)
 --------------------------------

 -----------------------------------------------------
 step_1451_chromophore_25 TDDFT with wB97XD functional
 -----------------------------------------------------
 Symbolic Z-matrix:
 Charge =  0 Multiplicity = 1

                         Standard orientation:
 ---------------------------------------------------------------------
 Center     Atomic      Atomic             Coordinates (Angstroms)
 Number     Number       Type             X           Y           Z
 ---------------------------------------------------------------------
      1         12           0        5.916622    0.517897    0.193939
      2          6           0        3.682770   -2.231856    0.067789
      3          6           0        3.182809    2.569639   -0.513505
      4          6           0        8.134172    3.036572   -0.153585
      5          6           0        8.677490   -1.814180    0.349128
      6          7           0        3.636679    0.125777   -0.228060
      7          6           0        2.945900   -1.018292   -0.016893
      8          6           0        1.386261   -0.829518   -0.027658
      9          6           0        1.327120    0.742494   -0.475647
     10          6           0        2.812476    1.197952   -0.512640
     11          6           0        0.518688    1.176541   -1.804911
     12          6           0        0.610958   -1.212116    1.327449
     13          6           0       -0.600573   -2.285337    1.241632
     14          6           0       -2.051091   -1.869667    1.500680
     15          8           0       -2.610859   -1.871550    2.661463
     16          8           0       -2.618636   -1.320927    0.422835
     17          7           0        5.671626    2.464299   -0.174661
     18          6           0        4.458436    3.172402   -0.371892
     19          6           0        4.753594    4.553098   -0.467337
     20          6           0        6.179480    4.763465   -0.528979
     21          6           0        6.727864    3.443966   -0.251389
     22          6           0        3.675887    5.645760   -0.598091
     23          6           0        7.043151    5.932623   -0.739863
     24          8           0        8.283346    5.725772   -0.819016
     25          6           0        6.493773    7.244268   -1.028693
     26          7           0        8.103967    0.532635   -0.028929
     27          6           0        8.703708    1.727335   -0.069024
     28          6           0       10.272021    1.479161   -0.045013
     29          6           0       10.394422   -0.000675    0.425061
     30          6           0        8.931712   -0.462741    0.262531
     31          6           0       11.017789    1.834053   -1.335088
     32          6           0       10.782736   -0.174156    1.967764
     33          6           0       12.210546   -0.601673    2.282626
     34          7           0        6.246408   -1.600248    0.115339
     35          6           0        7.362786   -2.404123    0.275945
     36          6           0        6.933916   -3.807717    0.333462
     37          6           0        5.537143   -3.731069    0.252125
     38          6           0        5.116211   -2.399363    0.075293
     39          6           0        7.844285   -4.856608    0.757682
     40          6           0        4.306832   -4.549787    0.426623
     41          8           0        4.175605   -5.739625    0.654028
     42          6           0        3.107561   -3.664540    0.236682
     43          6           0        2.336677   -4.284466   -0.908926
     44          8           0        2.839083   -4.477074   -2.027141
     45          8           0        0.997417   -4.438363   -0.492701
     46          6           0        0.197551   -4.971314   -1.569561
     47          6           0       -3.875561   -0.561651    0.651908
     48          6           0       -4.841839   -1.228824   -0.301776
     49          6           0       -6.177913   -1.388643   -0.155543
     50          6           0       -6.945487   -0.774942    1.056030
     51          6           0       -7.032576   -1.871522   -1.307476
     52          6           0       -7.677736   -0.772139   -2.138826
     53          6           0       -9.144733   -0.408558   -1.707137
     54          6           0      -10.019080   -0.119942   -2.954934
     55          6           0       -9.704318    1.217929   -3.616329
     56          6           0      -11.587990   -0.449212   -2.855042
     57          6           0      -12.370687    0.738493   -2.251577
     58          6           0      -13.620146    0.269627   -1.599810
     59          6           0      -13.496396   -0.078551   -0.121443
     60          6           0      -14.502640   -1.236560    0.103773
     61          6           0      -13.867445    1.186378    0.722819
     62          6           0      -13.120394    1.156820    2.104687
     63          6           0      -12.524768    2.600702    2.392455
     64          6           0      -11.199386    2.510368    3.188343
     65          6           0      -11.471973    2.217762    4.673769
     66          6           0      -10.167423    3.614513    2.902314
     67          1           0        2.350727    3.269002   -0.611358
     68          1           0        8.930602    3.779273   -0.082518
     69          1           0        9.542092   -2.433292    0.599691
     70          1           0        1.066334   -1.450278   -0.864942
     71          1           0        0.852626    1.256753    0.360367
     72          1           0       -0.163149    0.369791   -2.071607
     73          1           0        1.147161    1.367079   -2.674664
     74          1           0        0.081368    2.150707   -1.583490
     75          1           0        0.152054   -0.377556    1.857761
     76          1           0        1.412438   -1.582273    1.967121
     77          1           0       -0.365816   -3.154669    1.855453
     78          1           0       -0.726242   -2.717268    0.248117
     79          1           0        2.661883    5.248210   -0.537886
     80          1           0        3.763292    6.169996   -1.549801
     81          1           0        3.879876    6.356523    0.202479
     82          1           0        7.164710    8.097297   -1.131721
     83          1           0        5.693620    7.458634   -0.320633
     84          1           0        6.052530    7.139869   -2.020143
     85          1           0       10.724266    2.182519    0.654621
     86          1           0       11.057251   -0.554144   -0.240236
     87          1           0       10.225420    2.061298   -2.048131
     88          1           0       11.605464    1.016639   -1.750682
     89          1           0       11.558398    2.774529   -1.224348
     90          1           0       10.117957   -0.896742    2.440767
     91          1           0       10.651758    0.742038    2.544790
     92          1           0       12.354872   -1.490991    2.896161
     93          1           0       12.711527    0.193732    2.835341
     94          1           0       12.708600   -0.797000    1.332624
     95          1           0        7.917803   -4.759559    1.841223
     96          1           0        8.844271   -4.873521    0.324069
     97          1           0        7.416628   -5.853166    0.645361
     98          1           0        2.455062   -3.616796    1.108792
     99          1           0       -0.690170   -4.343437   -1.646176
    100          1           0       -0.051867   -6.024795   -1.437752
    101          1           0        0.546722   -4.803011   -2.588505
    102          1           0       -3.845999    0.495053    0.386655
    103          1           0       -4.272219   -0.590482    1.667188
    104          1           0       -4.501528   -1.760541   -1.190422
    105          1           0       -6.616869    0.247485    1.238836
    106          1           0       -6.828428   -1.370600    1.961100
    107          1           0       -8.004508   -0.641846    0.834398
    108          1           0       -7.738780   -2.599819   -0.907695
    109          1           0       -6.406825   -2.477400   -1.961256
    110          1           0       -7.584298   -1.008758   -3.199301
    111          1           0       -7.059917    0.100018   -1.925251
    112          1           0       -9.064129    0.508727   -1.123418
    113          1           0       -9.544254   -1.180783   -1.048516
    114          1           0       -9.647729   -0.809843   -3.712396
    115          1           0       -8.650858    1.335366   -3.872649
    116          1           0      -10.007071    2.034214   -2.961070
    117          1           0      -10.298632    1.242171   -4.529506
    118          1           0      -11.705718   -1.340598   -2.238783
    119          1           0      -11.941454   -0.617583   -3.872631
    120          1           0      -12.781659    1.304509   -3.087001
    121          1           0      -11.910601    1.452899   -1.568986
    122          1           0      -13.947605   -0.578881   -2.199355
    123          1           0      -14.428304    0.991743   -1.715855
    124          1           0      -12.432478   -0.316096   -0.094704
    125          1           0      -14.025271   -2.193984   -0.104506
    126          1           0      -15.391561   -1.079647   -0.508353
    127          1           0      -14.856784   -1.292400    1.133544
    128          1           0      -14.929420    1.214746    0.965825
    129          1           0      -13.763124    2.115700    0.163534
    130          1           0      -12.403532    0.335620    2.076946
    131          1           0      -13.689896    0.922242    3.004004
    132          1           0      -13.282690    3.201436    2.894783
    133          1           0      -12.425703    3.141081    1.450766
    134          1           0      -10.751942    1.572439    2.858944
    135          1           0      -10.707757    2.651003    5.320060
    136          1           0      -11.333151    1.143335    4.792478
    137          1           0      -12.467690    2.506562    5.009999
    138          1           0       -9.302914    3.124998    2.454935
    139          1           0       -9.733759    4.119713    3.765362
    140          1           0      -10.502272    4.461888    2.303432
 ---------------------------------------------------------------------

 SCF Done:  E(RwB97XD) =  -3007.84111611     A.U. after   20 cycles

 Excitation energies and oscillator strengths:

 Excited State   1:      Singlet-A      1.6528 eV  750.15 nm  f=0.3599  <S**2>=0.000
     245 -> 248        0.21068
     246 -> 247        0.67714
     245 <- 248        0.12277
 This state for optimization and/or second-order correction.
 Total Energy, E(TD-HF/TD-DFT) =  -3007.78037749
 Copying the excited state density for this state as the 1-particle RhoCI density.

 Excited State   2:      Singlet-A      2.0944 eV  591.99 nm  f=0.1360  <S**2>=0.000
     245 -> 247        0.64720
     246 -> 248       -0.27103

 Excited State   3:      Singlet-A      3.2540 eV  381.02 nm  f=0.0012  <S**2>=0.000
     244 -> 247        0.68317

 Excited State   4:      Singlet-A      3.4066 eV  363.95 nm  f=0.0690  <S**2>=0.000
     243 -> 247        0.56554
     246 -> 248        0.35998

 Excited State   5:      Singlet-A      3.4802 eV  356.26 nm  f=0.0478  <S**2>=0.000
     240 -> 247        0.22438
     240 -> 250       -0.10649
     241 -> 247        0.43038
     241 -> 248        0.14536
     241 -> 249        0.31512
     241 -> 250       -0.16739
     243 -> 247        0.19197
     246 -> 248       -0.12507

 The electronic state is 1-A.
 Alpha  occ. eigenvalues --  -46.95846 -19.32149 -19.31842 -19.26229 -19.24021
 Alpha  occ. eigenvalues --  -19.23889 -19.22836 -14.47318 -14.45899 -14.44621
 Alpha  occ. eigenvalues --  -14.44065 -10.44649 -10.43725 -10.38846 -10.38647
 Alpha  occ. eigenvalues --  -10.36959 -10.36064 -10.35455 -10.35411 -10.35285
 Alpha  occ. eigenvalues --  -10.34841 -10.34370 -10.34358 -10.34161 -10.34104
 Alpha  occ. eigenvalues --  -10.33685 -10.33637 -10.33480 -10.33260 -10.32960
 Alpha  occ. eigenvalues --  -10.32604 -10.32225 -10.32125 -10.32033 -10.31620
 Alpha  occ. eigenvalues --  -10.31421 -10.31139 -10.31051 -10.30927 -10.30830
 Alpha  occ. eigenvalues --  -10.30730 -10.30622 -10.30222 -10.30155 -10.29869
 Alpha  occ. eigenvalues --  -10.29802 -10.29719 -10.29714 -10.29711 -10.29660
 Alpha  occ. eigenvalues --  -10.29601 -10.29577 -10.29475 -10.29461 -10.29411
 Alpha  occ. eigenvalues --  -10.29018 -10.28946 -10.28887 -10.28777 -10.28765
 Alpha  occ. eigenvalues --  -10.28504 -10.28432 -10.28228 -10.28169 -10.28012
 Alpha  occ. eigenvalues --  -10.27403  -3.21707  -1.95275  -1.94849  -1.94645
 Alpha  occ. eigenvalues --   -1.19204  -1.18599  -1.12541  -1.10796  -1.10103
 Alpha  occ. eigenvalues --   -1.06929  -1.06339  -1.05341  -1.04277  -1.02588
 Alpha  occ. eigenvalues --   -0.94458  -0.92555  -0.92002  -0.90320  -0.90227
 Alpha  occ. eigenvalues --   -0.89885  -0.89554  -0.89317  -0.89111  -0.88706
 Alpha  occ. eigenvalues --   -0.88491  -0.87292  -0.86160  -0.85462  -0.85374
 Alpha  occ. eigenvalues --   -0.84606  -0.84357  -0.83575  -0.82530  -0.82153
 Alpha  occ. eigenvalues --   -0.81678  -0.80269  -0.79925  -0.79308  -0.78260
 Alpha  occ. eigenvalues --   -0.78150  -0.77506  -0.76895  -0.76577  -0.75865
 Alpha  occ. eigenvalues --   -0.75459  -0.74585  -0.73569  -0.72954  -0.70732
 Alpha  occ. eigenvalues --   -0.70594  -0.70063  -0.69465  -0.68822  -0.67858
 Alpha  occ. eigenvalues --   -0.67698  -0.67258  -0.66912  -0.66680  -0.66260
 Alpha  occ. eigenvalues --   -0.65898  -0.64834  -0.64801  -0.63860  -0.61797
 Alpha  occ. eigenvalues --   -0.61681  -0.61253  -0.61044  -0.60421  -0.59839
 Alpha  occ. eigenvalues --   -0.59559  -0.59175  -0.57973  -0.57797  -0.57368
 Alpha  occ. eigenvalues --   -0.56973  -0.56760  -0.56471  -0.56144  -0.55948
 Alpha  occ. eigenvalues --   -0.55523  -0.55222  -0.54983  -0.54883  -0.54776
 Alpha  occ. eigenvalues --   -0.54583  -0.54409  -0.54138  -0.53829  -0.53598
 Alpha  occ. eigenvalues --   -0.53320  -0.52890  -0.52824  -0.52743  -0.52629
 Alpha  occ. eigenvalues --   -0.52449  -0.52056  -0.51813  -0.51733  -0.51666
 Alpha  occ. eigenvalues --   -0.51460  -0.51313  -0.51277  -0.51144  -0.50710
 Alpha  occ. eigenvalues --   -0.50433  -0.50298  -0.49972  -0.49954  -0.49651
 Alpha  occ. eigenvalues --   -0.49589  -0.48973  -0.48804  -0.48648  -0.48570
 Alpha  occ. eigenvalues --   -0.48335  -0.48254  -0.48182  -0.48020  -0.47776
 Alpha  occ. eigenvalues --   -0.47729  -0.47514  -0.47269  -0.46748  -0.46583
 Alpha  occ. eigenvalues --   -0.46487  -0.46398  -0.46154  -0.46007  -0.45759
 Alpha  occ. eigenvalues --   -0.45712  -0.45400  -0.45262  -0.44887  -0.44764
 Alpha  occ. eigenvalues --   -0.44664  -0.44499  -0.44271  -0.44249  -0.43963
 Alpha  occ. eigenvalues --   -0.43869  -0.43575  -0.43228  -0.43092  -0.42884
 Alpha  occ. eigenvalues --   -0.42770  -0.42747  -0.42602  -0.42467  -0.42299
 Alpha  occ. eigenvalues --   -0.42146  -0.41233  -0.41209  -0.40809  -0.40635
 Alpha  occ. eigenvalues --   -0.40425  -0.40253  -0.40045  -0.39851  -0.39495
 Alpha  occ. eigenvalues --   -0.39079  -0.38875  -0.38785  -0.38698  -0.38236
 Alpha  occ. eigenvalues --   -0.38057  -0.37338  -0.37288  -0.36673  -0.36081
 Alpha  occ. eigenvalues --   -0.35663  -0.35298  -0.34814  -0.33504  -0.32985
 Alpha  occ. eigenvalues --   -0.32531  -0.32241  -0.31986  -0.31658  -0.25673
 Alpha  occ. eigenvalues --   -0.23395
 Alpha virt. eigenvalues --   -0.07342  -0.00255   0.02117   0.04303   0.04903
 Alpha virt. eigenvalues --    0.05483   0.05641   0.07626   0.08094   0.09456
 Alpha virt. eigenvalues --    0.10446   0.10683   0.11335   0.11894   0.12492

 Mulliken charges:
               1
     1  Mg   0.952538
     2  C   -0.049272
     3  C   -0.083185
     4  C   -0.033378
     5  C   -0.065821
     6  N   -0.315353
     7  C   -0.054145
     8  C   -0.009573
     9  C   -0.139495
    10  C    0.080875
    11  C    0.005579
    12  C    0.033805
    13  C    0.010472
    14  C    0.208083
    15  O   -0.329111
    16  O   -0.338766
    17  N   -0.557971
    18  C    0.198750
    19  C   -0.172989
    20  C   -0.063101
    21  C    0.164518
    22  C    0.061174
    23  C    0.050689
    24  O   -0.283079
    25  C    0.012772
    26  N   -0.305876
    27  C    0.035844
    28  C   -0.109030
    29  C   -0.081523
    30  C    0.051763
    31  C    0.029887
    32  C   -0.021967
    33  C   -0.050227
    34  N   -0.443549
    35  C    0.109333
    36  C   -0.161126
    37  C   -0.053746
    38  C    0.193168
    39  C    0.051415
    40  C    0.122820
    41  O   -0.201306
    42  C   -0.038708
    43  C    0.289108
    44  O   -0.242981
    45  O   -0.364135
    46  C    0.123025
    47  C    0.280779
    48  C   -0.142643
    49  C   -0.221344
    50  C   -0.011032
    51  C    0.027729
    52  C   -0.023480
    53  C    0.009852
    54  C   -0.179313
    55  C   -0.005077
    56  C    0.017993
    57  C   -0.020191
    58  C   -0.026171
    59  C   -0.178154
    60  C    0.019424
    61  C    0.016359
    62  C   -0.038456
    63  C   -0.014193
    64  C   -0.196866
    65  C   -0.005381
    66  C    0.005610
    67  H   -0.010873
    68  H    0.033404
    69  H    0.005439
    70  H    0.043129
    71  H    0.041878
    72  H    0.049398
    73  H    0.044476
    74  H    0.041900
    75  H    0.054161
    76  H    0.047369
    77  H    0.059933
    78  H    0.038603
    79  H    0.035468
    80  H    0.051239
    81  H    0.055953
    82  H    0.057037
    83  H    0.039407
    84  H    0.060999
    85  H    0.030186
    86  H    0.037085
    87  H    0.034823
    88  H    0.037111
    89  H    0.043545
    90  H    0.032753
    91  H    0.032629
    92  H    0.036482
    93  H    0.035071
    94  H    0.026744
    95  H    0.054128
    96  H    0.048201
    97  H    0.053544
    98  H    0.063236
    99  H    0.036910
   100  H    0.070662
   101  H    0.059422
   102  H    0.058425
   103  H    0.071030
   104  H    0.018370
   105  H    0.035337
   106  H    0.069332
   107  H    0.028813
   108  H    0.025097
   109  H    0.011361
   110  H    0.033409
   111  H    0.022005
   112  H    0.020198
   113  H    0.024371
   114  H    0.009788
   115  H    0.033679
   116  H    0.028079
   117  H    0.026362
   118  H    0.024768
   119  H    0.028046
   120  H    0.013563
   121  H    0.019049
   122  H    0.001142
   123  H    0.002617
   124  H    0.013982
   125  H    0.032167
   126  H    0.034038
   127  H    0.017954
   128  H    0.014774
   129  H    0.021488
   130  H    0.019668
   131  H    0.024439
   132  H    0.020791
   133  H    0.010532
   134  H    0.021747
   135  H    0.022974
   136  H    0.024422
   137  H    0.034919
   138  H    0.024561
   139  H    0.015076
   140  H    0.028532
 Sum of Mulliken charges =  -0.00000

 Dipole moment (field-independent basis, Debye):
    X=             -3.0943    Y=              4.7090    Z=             -0.2475  Tot=              5.6401
 Quadrupole moment (field-independent basis, Debye-Ang):
   XX=           -381.4640   YY=           -415.8474   ZZ=           -410.9243
   XY=             -3.6331   XZ=             32.0747   YZ=              3.4262

 Normal termination of Gaussian 16 at Wed May  4 07:42:58 2022.
