 Gaussian 16, Revision A.03,
 Gaussian 16:  ES64L-G16RevA.03 25-Dec-2016

 --------------------
 #p ZINDO=(nstates=5)
 --------------------

 ------------------------------
 step_1451_chromophore_25 ZINDO
 ------------------------------
 Symbolic Z-matrix:
 Charge =  0 Multiplicity = 1

                         Standard orientation:
 ---------------------------------------------------------------------
 Center     Atomic      Atomic             Coordinates (Angstroms)
 Number     Number       Type             X           Y           Z
 ---------------------------------------------------------------------
      1         12           0        5.916622    0.517897    0.193939
      2          6           0        3.682770   -2.231856    0.067789
      3          6           0        3.182809    2.569639   -0.513505
      4          6           0        8.134172    3.036572   -0.153585
      5          6           0        8.677490   -1.814180    0.349128
      6          7           0        3.636679    0.125777   -0.228060
      7          6           0        2.945900   -1.018292   -0.016893
      8          6           0        1.386261   -0.829518   -0.027658
      9          6           0        1.327120    0.742494   -0.475647
     10          6           0        2.812476    1.197952   -0.512640
     11          6           0        0.518688    1.176541   -1.804911
     12          6           0        0.610958   -1.212116    1.327449
     13          6           0       -0.600573   -2.285337    1.241632
     14          6           0       -2.051091   -1.869667    1.500680
     15          8           0       -2.610859   -1.871550    2.661463
     16          8           0       -2.618636   -1.320927    0.422835
     17          7           0        5.671626    2.464299   -0.174661
     18          6           0        4.458436    3.172402   -0.371892
     19          6           0        4.753594    4.553098   -0.467337
     20          6           0        6.179480    4.763465   -0.528979
     21          6           0        6.727864    3.443966   -0.251389
     22          6           0        3.675887    5.645760   -0.598091
     23          6           0        7.043151    5.932623   -0.739863
     24          8           0        8.283346    5.725772   -0.819016
     25          6           0        6.493773    7.244268   -1.028693
     26          7           0        8.103967    0.532635   -0.028929
     27          6           0        8.703708    1.727335   -0.069024
     28          6           0       10.272021    1.479161   -0.045013
     29          6           0       10.394422   -0.000675    0.425061
     30          6           0        8.931712   -0.462741    0.262531
     31          6           0       11.017789    1.834053   -1.335088
     32          6           0       10.782736   -0.174156    1.967764
     33          6           0       12.210546   -0.601673    2.282626
     34          7           0        6.246408   -1.600248    0.115339
     35          6           0        7.362786   -2.404123    0.275945
     36          6           0        6.933916   -3.807717    0.333462
     37          6           0        5.537143   -3.731069    0.252125
     38          6           0        5.116211   -2.399363    0.075293
     39          6           0        7.844285   -4.856608    0.757682
     40          6           0        4.306832   -4.549787    0.426623
     41          8           0        4.175605   -5.739625    0.654028
     42          6           0        3.107561   -3.664540    0.236682
     43          6           0        2.336677   -4.284466   -0.908926
     44          8           0        2.839083   -4.477074   -2.027141
     45          8           0        0.997417   -4.438363   -0.492701
     46          6           0        0.197551   -4.971314   -1.569561
     47          6           0       -3.875561   -0.561651    0.651908
     48          6           0       -4.841839   -1.228824   -0.301776
     49          6           0       -6.177913   -1.388643   -0.155543
     50          6           0       -6.945487   -0.774942    1.056030
     51          6           0       -7.032576   -1.871522   -1.307476
     52          6           0       -7.677736   -0.772139   -2.138826
     53          6           0       -9.144733   -0.408558   -1.707137
     54          6           0      -10.019080   -0.119942   -2.954934
     55          6           0       -9.704318    1.217929   -3.616329
     56          6           0      -11.587990   -0.449212   -2.855042
     57          6           0      -12.370687    0.738493   -2.251577
     58          6           0      -13.620146    0.269627   -1.599810
     59          6           0      -13.496396   -0.078551   -0.121443
     60          6           0      -14.502640   -1.236560    0.103773
     61          6           0      -13.867445    1.186378    0.722819
     62          6           0      -13.120394    1.156820    2.104687
     63          6           0      -12.524768    2.600702    2.392455
     64          6           0      -11.199386    2.510368    3.188343
     65          6           0      -11.471973    2.217762    4.673769
     66          6           0      -10.167423    3.614513    2.902314
     67          1           0        2.350727    3.269002   -0.611358
     68          1           0        8.930602    3.779273   -0.082518
     69          1           0        9.542092   -2.433292    0.599691
     70          1           0        1.066334   -1.450278   -0.864942
     71          1           0        0.852626    1.256753    0.360367
     72          1           0       -0.163149    0.369791   -2.071607
     73          1           0        1.147161    1.367079   -2.674664
     74          1           0        0.081368    2.150707   -1.583490
     75          1           0        0.152054   -0.377556    1.857761
     76          1           0        1.412438   -1.582273    1.967121
     77          1           0       -0.365816   -3.154669    1.855453
     78          1           0       -0.726242   -2.717268    0.248117
     79          1           0        2.661883    5.248210   -0.537886
     80          1           0        3.763292    6.169996   -1.549801
     81          1           0        3.879876    6.356523    0.202479
     82          1           0        7.164710    8.097297   -1.131721
     83          1           0        5.693620    7.458634   -0.320633
     84          1           0        6.052530    7.139869   -2.020143
     85          1           0       10.724266    2.182519    0.654621
     86          1           0       11.057251   -0.554144   -0.240236
     87          1           0       10.225420    2.061298   -2.048131
     88          1           0       11.605464    1.016639   -1.750682
     89          1           0       11.558398    2.774529   -1.224348
     90          1           0       10.117957   -0.896742    2.440767
     91          1           0       10.651758    0.742038    2.544790
     92          1           0       12.354872   -1.490991    2.896161
     93          1           0       12.711527    0.193732    2.835341
     94          1           0       12.708600   -0.797000    1.332624
     95          1           0        7.917803   -4.759559    1.841223
     96          1           0        8.844271   -4.873521    0.324069
     97          1           0        7.416628   -5.853166    0.645361
     98          1           0        2.455062   -3.616796    1.108792
     99          1           0       -0.690170   -4.343437   -1.646176
    100          1           0       -0.051867   -6.024795   -1.437752
    101          1           0        0.546722   -4.803011   -2.588505
    102          1           0       -3.845999    0.495053    0.386655
    103          1           0       -4.272219   -0.590482    1.667188
    104          1           0       -4.501528   -1.760541   -1.190422
    105          1           0       -6.616869    0.247485    1.238836
    106          1           0       -6.828428   -1.370600    1.961100
    107          1           0       -8.004508   -0.641846    0.834398
    108          1           0       -7.738780   -2.599819   -0.907695
    109          1           0       -6.406825   -2.477400   -1.961256
    110          1           0       -7.584298   -1.008758   -3.199301
    111          1           0       -7.059917    0.100018   -1.925251
    112          1           0       -9.064129    0.508727   -1.123418
    113          1           0       -9.544254   -1.180783   -1.048516
    114          1           0       -9.647729   -0.809843   -3.712396
    115          1           0       -8.650858    1.335366   -3.872649
    116          1           0      -10.007071    2.034214   -2.961070
    117          1           0      -10.298632    1.242171   -4.529506
    118          1           0      -11.705718   -1.340598   -2.238783
    119          1           0      -11.941454   -0.617583   -3.872631
    120          1           0      -12.781659    1.304509   -3.087001
    121          1           0      -11.910601    1.452899   -1.568986
    122          1           0      -13.947605   -0.578881   -2.199355
    123          1           0      -14.428304    0.991743   -1.715855
    124          1           0      -12.432478   -0.316096   -0.094704
    125          1           0      -14.025271   -2.193984   -0.104506
    126          1           0      -15.391561   -1.079647   -0.508353
    127          1           0      -14.856784   -1.292400    1.133544
    128          1           0      -14.929420    1.214746    0.965825
    129          1           0      -13.763124    2.115700    0.163534
    130          1           0      -12.403532    0.335620    2.076946
    131          1           0      -13.689896    0.922242    3.004004
    132          1           0      -13.282690    3.201436    2.894783
    133          1           0      -12.425703    3.141081    1.450766
    134          1           0      -10.751942    1.572439    2.858944
    135          1           0      -10.707757    2.651003    5.320060
    136          1           0      -11.333151    1.143335    4.792478
    137          1           0      -12.467690    2.506562    5.009999
    138          1           0       -9.302914    3.124998    2.454935
    139          1           0       -9.733759    4.119713    3.765362
    140          1           0      -10.502272    4.461888    2.303432
 ---------------------------------------------------------------------

 SCF Done:  E(RZINDO/S) =  -473.779810030     A.U. after   19 cycles

 Excitation energies and oscillator strengths:

 Excited State   1:      Singlet-A      1.2752 eV  972.29 nm  f=0.5693  <S**2>=0.000
     175 ->178        -0.20865
     176 ->177         0.65760
 This state for optimization and/or second-order correction.
 Total Energy, E(CIS/TDA) =  -473.732948191
 Copying the excited state density for this state as the 1-particle RhoCI density.

 Excited State   2:      Singlet-A      1.8625 eV  665.68 nm  f=0.0801  <S**2>=0.000
     175 ->177         0.56766
     176 ->178         0.39283

 Excited State   3:      Singlet-A      2.8591 eV  433.65 nm  f=0.0303  <S**2>=0.000
     169 ->177         0.10980
     169 ->179         0.13955
     169 ->181        -0.12675
     170 ->177         0.26331
     170 ->179         0.32004
     170 ->181        -0.27687
     170 ->183        -0.19831
     170 ->185         0.17690
     170 ->188        -0.15140

 Excited State   4:      Singlet-A      2.9396 eV  421.78 nm  f=0.0119  <S**2>=0.000
     167 ->179         0.10331
     168 ->177         0.34729
     168 ->178        -0.15471
     168 ->179        -0.34568
     168 ->181        -0.11848
     168 ->182         0.12403
     168 ->183        -0.26211
     168 ->185        -0.18838

 Excited State   5:      Singlet-A      3.0045 eV  412.67 nm  f=1.1858  <S**2>=0.000
     171 ->177         0.17264
     175 ->177        -0.35659
     176 ->178         0.53893

 The electronic state is 1-A.
 Alpha  occ. eigenvalues --   -1.82478  -1.79105  -1.75922  -1.72825  -1.71656
 Alpha  occ. eigenvalues --   -1.68176  -1.66671  -1.60412  -1.60212  -1.57615
 Alpha  occ. eigenvalues --   -1.56137  -1.50457  -1.47628  -1.45852  -1.44989
 Alpha  occ. eigenvalues --   -1.44177  -1.40710  -1.39857  -1.38692  -1.38000
 Alpha  occ. eigenvalues --   -1.35053  -1.34496  -1.32241  -1.30032  -1.28917
 Alpha  occ. eigenvalues --   -1.27218  -1.23905  -1.22496  -1.20248  -1.17833
 Alpha  occ. eigenvalues --   -1.16984  -1.16595  -1.16465  -1.14109  -1.13087
 Alpha  occ. eigenvalues --   -1.13030  -1.10047  -1.09712  -1.04568  -1.03627
 Alpha  occ. eigenvalues --   -1.02599  -1.00624  -0.99760  -0.97378  -0.96829
 Alpha  occ. eigenvalues --   -0.94811  -0.94755  -0.94349  -0.93278  -0.92482
 Alpha  occ. eigenvalues --   -0.91252  -0.91000  -0.88514  -0.88024  -0.86052
 Alpha  occ. eigenvalues --   -0.85950  -0.85575  -0.83425  -0.82317  -0.79864
 Alpha  occ. eigenvalues --   -0.79572  -0.79263  -0.77689  -0.76762  -0.76407
 Alpha  occ. eigenvalues --   -0.76160  -0.75117  -0.74930  -0.74074  -0.73580
 Alpha  occ. eigenvalues --   -0.72830  -0.72189  -0.71247  -0.70579  -0.70420
 Alpha  occ. eigenvalues --   -0.69884  -0.68873  -0.68627  -0.68062  -0.68011
 Alpha  occ. eigenvalues --   -0.67508  -0.66896  -0.66692  -0.65785  -0.65712
 Alpha  occ. eigenvalues --   -0.65528  -0.64988  -0.64807  -0.64131  -0.63876
 Alpha  occ. eigenvalues --   -0.63695  -0.63278  -0.63190  -0.62193  -0.62114
 Alpha  occ. eigenvalues --   -0.61849  -0.61715  -0.61519  -0.60914  -0.60227
 Alpha  occ. eigenvalues --   -0.59818  -0.59632  -0.59146  -0.58555  -0.58016
 Alpha  occ. eigenvalues --   -0.57896  -0.57315  -0.57098  -0.56945  -0.56557
 Alpha  occ. eigenvalues --   -0.56173  -0.56109  -0.55654  -0.55535  -0.55181
 Alpha  occ. eigenvalues --   -0.54254  -0.53903  -0.53534  -0.52979  -0.52717
 Alpha  occ. eigenvalues --   -0.52650  -0.52442  -0.51866  -0.51716  -0.51434
 Alpha  occ. eigenvalues --   -0.50938  -0.50911  -0.50647  -0.50598  -0.50460
 Alpha  occ. eigenvalues --   -0.50331  -0.50037  -0.50005  -0.49664  -0.49356
 Alpha  occ. eigenvalues --   -0.49270  -0.48827  -0.48684  -0.48031  -0.47893
 Alpha  occ. eigenvalues --   -0.47800  -0.47528  -0.47071  -0.46997  -0.46705
 Alpha  occ. eigenvalues --   -0.46534  -0.46450  -0.45847  -0.45583  -0.45528
 Alpha  occ. eigenvalues --   -0.45122  -0.44937  -0.44738  -0.44428  -0.43888
 Alpha  occ. eigenvalues --   -0.43280  -0.43021  -0.42803  -0.42408  -0.42377
 Alpha  occ. eigenvalues --   -0.42280  -0.41872  -0.41207  -0.39704  -0.38702
 Alpha  occ. eigenvalues --   -0.38378  -0.37068  -0.35555  -0.34908  -0.34217
 Alpha  occ. eigenvalues --   -0.33274  -0.32614  -0.32214  -0.32135  -0.26325
 Alpha  occ. eigenvalues --   -0.22249
 Alpha virt. eigenvalues --   -0.08824  -0.02488  -0.00764   0.00159   0.00784
 Alpha virt. eigenvalues --    0.01486   0.01730   0.02716   0.04511   0.04536
 Alpha virt. eigenvalues --    0.05976   0.06255   0.06908   0.07642   0.07854

 Mulliken charges:
               1
     1  Mg   0.436823
     2  C   -0.047195
     3  C   -0.053298
     4  C   -0.069398
     5  C   -0.085053
     6  N   -0.275367
     7  C    0.134302
     8  C    0.001637
     9  C   -0.008310
    10  C    0.089328
    11  C   -0.052737
    12  C   -0.014749
    13  C   -0.001028
    14  C    0.469176
    15  O   -0.549022
    16  O   -0.244866
    17  N   -0.346677
    18  C    0.084579
    19  C    0.003946
    20  C   -0.052684
    21  C    0.133523
    22  C   -0.049443
    23  C    0.337982
    24  O   -0.561859
    25  C   -0.022228
    26  N   -0.259616
    27  C    0.128002
    28  C   -0.000636
    29  C   -0.002001
    30  C    0.163899
    31  C   -0.052922
    32  C   -0.029573
    33  C   -0.058575
    34  N   -0.338197
    35  C    0.116927
    36  C    0.050690
    37  C   -0.034642
    38  C    0.114417
    39  C   -0.029337
    40  C    0.343241
    41  O   -0.514518
    42  C    0.053373
    43  C    0.489672
    44  O   -0.503826
    45  O   -0.261701
    46  C    0.070237
    47  C    0.109821
    48  C   -0.091225
    49  C   -0.018114
    50  C   -0.051019
    51  C   -0.014082
    52  C   -0.029244
    53  C   -0.030158
    54  C   -0.022552
    55  C   -0.051160
    56  C   -0.027722
    57  C   -0.036584
    58  C   -0.038089
    59  C   -0.015971
    60  C   -0.051178
    61  C   -0.034443
    62  C   -0.046522
    63  C   -0.035410
    64  C   -0.006633
    65  C   -0.055600
    66  C   -0.057068
    67  H    0.027592
    68  H    0.056639
    69  H    0.030212
    70  H    0.037632
    71  H    0.025951
    72  H    0.026802
    73  H    0.025760
    74  H    0.024711
    75  H    0.036966
    76  H    0.030052
    77  H    0.041790
    78  H    0.033509
    79  H    0.024952
    80  H    0.026928
    81  H    0.028313
    82  H    0.039761
    83  H    0.030591
    84  H    0.040047
    85  H    0.023834
    86  H    0.039452
    87  H    0.019604
    88  H    0.025303
    89  H    0.027839
    90  H    0.019614
    91  H    0.023491
    92  H    0.020504
    93  H    0.018377
    94  H    0.016629
    95  H    0.034116
    96  H    0.032137
    97  H    0.028235
    98  H    0.050626
    99  H    0.021726
   100  H    0.049384
   101  H    0.048643
   102  H    0.048049
   103  H    0.066497
   104  H    0.033593
   105  H    0.020158
   106  H    0.036343
   107  H    0.017652
   108  H    0.019269
   109  H    0.010351
   110  H    0.026470
   111  H    0.017269
   112  H    0.016652
   113  H    0.023912
   114  H    0.003856
   115  H    0.019447
   116  H    0.018226
   117  H    0.015067
   118  H    0.023722
   119  H    0.025987
   120  H    0.007458
   121  H    0.028853
   122  H    0.006644
   123  H    0.006845
   124  H    0.033870
   125  H    0.017582
   126  H    0.024420
   127  H    0.009745
   128  H    0.014744
   129  H    0.026192
   130  H    0.021896
   131  H    0.020777
   132  H    0.017878
   133  H    0.013958
   134  H    0.014992
   135  H    0.016426
   136  H    0.013869
   137  H    0.024315
   138  H    0.014924
   139  H    0.014299
   140  H    0.020727
 Sum of Mulliken charges =  -0.00000

 Dipole moment (field-independent basis, Debye):
    X=             -3.5372    Y=              4.4150    Z=              1.0031  Tot=              5.7454
 N-N= 4.248962708236D+03 E-N= 0.000000000000D+00  KE=-9.171475274852D+03
 Leave Link  601 at Wed May  4 07:55:28 2022, MaxMem=  6710886400 cpu:               0.8 elap:               0.0
 (Enter /sw/apps/gaussian-16.0/g16/l9999.exe)
 1\1\GINC-BP1-COMPUTE036\SP\RZINDO CIS\STO-3G\C55H74Mg1N4O6\OF15641\04-
 May-2022\0\\#p ZINDO=(nstates=5)\\step_1451_chromophore_25 ZINDO\\0,1\
 Mg,0,-2.669,34.054,26.578\C,0,-4.022,32.318,29.357\C,0,-1.209,36.253,2
 8.862\C,0,-1.805,35.945,23.921\C,0,-4.717,32.024,24.394\N,0,-2.695,34.
 241,28.922\C,0,-3.123,33.32,29.816\C,0,-2.643,33.592,31.287\C,0,-1.933
 ,35.047,31.054\C,0,-2.012,35.283,29.52\C,0,-2.424,36.333,31.899\C,0,-1
 .729,32.455,31.962\C,0,-2.204,31.83,33.38\C,0,-1.407,32.075,34.664\O,0

 Normal termination of Gaussian 16 at Wed May  4 07:55:28 2022.
