 Gaussian 16, Revision A.03,
 Gaussian 16:  ES64L-G16RevA.03 25-Dec-2016

 ------------------------------
 #p blyp/Def2SVP td=(nstates=5)
 ------------------------------

 ---------------------------------------------------
 step_1701_chromophore_16 TDDFT with blyp functional
 ---------------------------------------------------
 Symbolic Z-matrix:
 Charge =  0 Multiplicity = 1

                         Standard orientation:
 ---------------------------------------------------------------------
 Center     Atomic      Atomic             Coordinates (Angstroms)
 Number     Number       Type             X           Y           Z
 ---------------------------------------------------------------------
      1         12           0        6.215852    0.505146    0.184362
      2          6           0        3.960081   -2.158490   -0.073450
      3          6           0        3.622329    2.695705   -0.947818
      4          6           0        8.464249    2.878891   -0.104091
      5          6           0        8.758275   -1.703641    0.949735
      6          7           0        4.094689    0.274894   -0.324928
      7          6           0        3.383069   -0.929365   -0.396131
      8          6           0        1.931566   -0.626408   -0.680411
      9          6           0        1.866717    0.825947   -1.291405
     10          6           0        3.276324    1.336018   -0.755667
     11          6           0        1.793568    0.879301   -2.858012
     12          6           0        1.081338   -0.920114    0.599986
     13          6           0       -0.030554   -1.970925    0.321722
     14          6           0       -1.379471   -1.926862    1.156883
     15          8           0       -1.650024   -1.145424    2.030380
     16          8           0       -2.217543   -2.801926    0.587639
     17          7           0        6.036336    2.530041   -0.367683
     18          6           0        4.915655    3.251950   -0.721712
     19          6           0        5.310450    4.630336   -0.938841
     20          6           0        6.694612    4.743329   -0.650943
     21          6           0        7.163321    3.347895   -0.344315
     22          6           0        4.326780    5.780031   -1.302922
     23          6           0        7.559992    5.888162   -0.635161
     24          8           0        8.763151    5.825533   -0.346225
     25          6           0        7.070038    7.331463   -1.055469
     26          7           0        8.199301    0.649674    0.652575
     27          6           0        8.974711    1.662455    0.315487
     28          6           0       10.438851    1.502844    0.356913
     29          6           0       10.538494    0.067295    1.036601
     30          6           0        9.123152   -0.397793    0.851829
     31          6           0       11.311063    1.761642   -0.890182
     32          6           0       11.041978    0.173376    2.508057
     33          6           0       10.334390    0.806355    3.739034
     34          7           0        6.430275   -1.482025    0.387958
     35          6           0        7.498152   -2.267476    0.739967
     36          6           0        7.102050   -3.632103    0.843174
     37          6           0        5.739063   -3.614183    0.463437
     38          6           0        5.345657   -2.273803    0.228535
     39          6           0        7.891709   -4.854096    1.239215
     40          6           0        4.620478   -4.458446    0.262232
     41          8           0        4.500045   -5.673467    0.238942
     42          6           0        3.374415   -3.513901   -0.053295
     43          6           0        2.901930   -3.882407   -1.403871
     44          8           0        3.289376   -3.520095   -2.531261
     45          8           0        2.016854   -4.862779   -1.291647
     46          6           0        1.370672   -5.189257   -2.557978
     47          6           0       -3.498873   -2.805590    1.233273
     48          6           0       -4.417962   -1.762478    0.607195
     49          6           0       -5.701251   -1.897250    0.253212
     50          6           0       -6.516908   -3.158885    0.351368
     51          6           0       -6.436504   -0.639432   -0.305680
     52          6           0       -7.608642   -0.057057    0.606988
     53          6           0       -8.961194   -0.508129    0.017960
     54          6           0       -9.424090    0.486546   -0.924685
     55          6           0      -10.047646    1.793170   -0.349874
     56          6           0      -10.377709   -0.184810   -1.960360
     57          6           0      -11.726367   -0.615357   -1.289792
     58          6           0      -12.950697   -0.001777   -2.063025
     59          6           0      -14.296997    0.018137   -1.294961
     60          6           0      -15.437300   -0.511522   -2.190216
     61          6           0      -14.536733    1.492466   -0.917384
     62          6           0      -15.599544    1.548130    0.166798
     63          6           0      -15.034101    1.425308    1.596404
     64          6           0      -15.301216    2.705523    2.473801
     65          6           0      -16.507665    2.667820    3.415218
     66          6           0      -14.050004    2.953877    3.287109
     67          1           0        2.780223    3.196390   -1.430805
     68          1           0        9.256167    3.600924   -0.311475
     69          1           0        9.587343   -2.354453    1.235773
     70          1           0        1.640391   -1.248693   -1.526951
     71          1           0        1.024448    1.347846   -0.837127
     72          1           0        1.548741   -0.083533   -3.305821
     73          1           0        2.803438    1.104504   -3.199374
     74          1           0        1.086980    1.601055   -3.267346
     75          1           0        0.620079    0.005319    0.945253
     76          1           0        1.735162   -1.211393    1.421773
     77          1           0        0.375973   -2.957190    0.545127
     78          1           0       -0.482083   -1.962436   -0.670616
     79          1           0        4.716713    5.987986   -2.299274
     80          1           0        4.401926    6.563715   -0.549666
     81          1           0        3.306816    5.408897   -1.405848
     82          1           0        7.956206    7.964634   -1.016603
     83          1           0        6.280257    7.675106   -0.386334
     84          1           0        6.707507    7.263182   -2.081090
     85          1           0       10.755527    2.211648    1.121739
     86          1           0       11.279344   -0.566062    0.547036
     87          1           0       12.308561    2.141562   -0.669022
     88          1           0       10.804643    2.509666   -1.499358
     89          1           0       11.444216    0.805324   -1.395824
     90          1           0       12.070242    0.519097    2.400025
     91          1           0       11.256774   -0.835615    2.857714
     92          1           0        9.444495    1.319016    3.371041
     93          1           0       10.985456    1.622700    4.050929
     94          1           0       10.157633    0.041565    4.495033
     95          1           0        8.701201   -4.593454    1.921778
     96          1           0        8.404694   -5.303642    0.388152
     97          1           0        7.323802   -5.702932    1.619610
     98          1           0        2.639702   -3.576405    0.749325
     99          1           0        1.141151   -4.299672   -3.144174
    100          1           0        0.445514   -5.745271   -2.405856
    101          1           0        2.072320   -5.795280   -3.130598
    102          1           0       -3.469990   -2.719540    2.319134
    103          1           0       -3.849023   -3.790784    0.925596
    104          1           0       -3.948630   -0.801977    0.396815
    105          1           0       -7.197259   -3.132524    1.203353
    106          1           0       -5.874715   -4.035012    0.442438
    107          1           0       -7.151670   -3.371074   -0.509431
    108          1           0       -6.819551   -0.845810   -1.305408
    109          1           0       -5.729145    0.150845   -0.557766
    110          1           0       -7.552995    1.022829    0.744949
    111          1           0       -7.564349   -0.520066    1.592395
    112          1           0       -9.684882   -0.604348    0.828048
    113          1           0       -8.846250   -1.473389   -0.475456
    114          1           0       -8.583604    0.911127   -1.473273
    115          1           0       -9.289863    2.501223   -0.015169
    116          1           0      -10.501516    1.537116    0.608090
    117          1           0      -10.770015    2.201392   -1.057102
    118          1           0       -9.908908   -1.080060   -2.368508
    119          1           0      -10.491000    0.487759   -2.810519
    120          1           0      -11.837148   -0.242855   -0.271225
    121          1           0      -11.895888   -1.690526   -1.345988
    122          1           0      -13.109447   -0.694198   -2.890245
    123          1           0      -12.711989    0.992925   -2.439336
    124          1           0      -14.164292   -0.677407   -0.466716
    125          1           0      -16.084253   -1.099405   -1.538582
    126          1           0      -15.155643   -1.079569   -3.076445
    127          1           0      -16.127878    0.227216   -2.595918
    128          1           0      -14.981103    2.036143   -1.750546
    129          1           0      -13.603750    1.968024   -0.618730
    130          1           0      -16.377771    0.790153    0.091245
    131          1           0      -16.161492    2.476313    0.060896
    132          1           0      -13.953275    1.287654    1.593458
    133          1           0      -15.494068    0.579687    2.107935
    134          1           0      -15.495967    3.625513    1.921715
    135          1           0      -16.223016    2.265718    4.387808
    136          1           0      -17.113113    1.835723    3.056849
    137          1           0      -17.028304    3.622545    3.485466
    138          1           0      -13.195066    3.240414    2.674457
    139          1           0      -13.730660    2.073175    3.843863
    140          1           0      -14.095560    3.771842    4.007373
 ---------------------------------------------------------------------

 SCF Done:  E(RB-LYP) =  -3007.40963175     A.U. after   21 cycles

 Excitation energies and oscillator strengths:

 Excited State   1:      Singlet-A      1.6666 eV  743.95 nm  f=0.0164  <S**2>=0.000
     244 -> 247        0.58432
     245 -> 247        0.35395
     246 -> 247        0.17748
 This state for optimization and/or second-order correction.
 Total Energy, E(TD-HF/TD-DFT) =  -3007.34838695
 Copying the excited state density for this state as the 1-particle RhoCI density.

 Excited State   2:      Singlet-A      1.7728 eV  699.37 nm  f=0.3163  <S**2>=0.000
     244 -> 247       -0.17490
     245 -> 248       -0.14892
     246 -> 247        0.67615
     246 <- 247       -0.15764

 Excited State   3:      Singlet-A      1.8712 eV  662.59 nm  f=0.0001  <S**2>=0.000
     243 -> 247        0.70627

 Excited State   4:      Singlet-A      2.0249 eV  612.30 nm  f=0.0896  <S**2>=0.000
     244 -> 247       -0.34155
     245 -> 247        0.56370
     246 -> 248        0.21260

 Excited State   5:      Singlet-A      2.4855 eV  498.84 nm  f=0.0000  <S**2>=0.000
     240 -> 247        0.70005

 The electronic state is 1-A.
 Alpha  occ. eigenvalues --  -46.25850 -18.82879 -18.81830 -18.77122 -18.75645
 Alpha  occ. eigenvalues --  -18.75441 -18.74822 -14.03499 -14.03186 -14.01271
 Alpha  occ. eigenvalues --  -14.00717 -10.04040 -10.03240  -9.99228  -9.99093
 Alpha  occ. eigenvalues --   -9.98024  -9.97027  -9.96917  -9.96400  -9.96239
 Alpha  occ. eigenvalues --   -9.96130  -9.96008  -9.95758  -9.95154  -9.94509
 Alpha  occ. eigenvalues --   -9.94489  -9.94409  -9.94067  -9.93711  -9.93679
 Alpha  occ. eigenvalues --   -9.93605  -9.93564  -9.93535  -9.93458  -9.93430
 Alpha  occ. eigenvalues --   -9.93387  -9.93361  -9.93353  -9.92714  -9.92651
 Alpha  occ. eigenvalues --   -9.92597  -9.92595  -9.92500  -9.92326  -9.92243
 Alpha  occ. eigenvalues --   -9.92241  -9.92072  -9.91948  -9.91833  -9.91655
 Alpha  occ. eigenvalues --   -9.91577  -9.91525  -9.91352  -9.91312  -9.91289
 Alpha  occ. eigenvalues --   -9.91233  -9.91134  -9.91075  -9.91043  -9.90692
 Alpha  occ. eigenvalues --   -9.90642  -9.90585  -9.90548  -9.90517  -9.90328
 Alpha  occ. eigenvalues --   -9.90185  -2.90730  -1.71159  -1.70620  -1.70436
 Alpha  occ. eigenvalues --   -1.00163  -0.98822  -0.91420  -0.91162  -0.90305
 Alpha  occ. eigenvalues --   -0.88056  -0.87334  -0.86037  -0.84649  -0.83737
 Alpha  occ. eigenvalues --   -0.76051  -0.74161  -0.73088  -0.72591  -0.72536
 Alpha  occ. eigenvalues --   -0.72041  -0.71846  -0.71105  -0.70680  -0.70266
 Alpha  occ. eigenvalues --   -0.69632  -0.68902  -0.68050  -0.67813  -0.67173
 Alpha  occ. eigenvalues --   -0.66406  -0.65723  -0.65137  -0.64777  -0.63768
 Alpha  occ. eigenvalues --   -0.63637  -0.62515  -0.62204  -0.62101  -0.61060
 Alpha  occ. eigenvalues --   -0.60671  -0.60247  -0.60014  -0.59765  -0.59132
 Alpha  occ. eigenvalues --   -0.58466  -0.58124  -0.56808  -0.55687  -0.55462
 Alpha  occ. eigenvalues --   -0.54526  -0.54154  -0.53198  -0.52525  -0.51121
 Alpha  occ. eigenvalues --   -0.50997  -0.50768  -0.50609  -0.50339  -0.49689
 Alpha  occ. eigenvalues --   -0.49602  -0.48697  -0.48200  -0.47921  -0.46897
 Alpha  occ. eigenvalues --   -0.46348  -0.45793  -0.45536  -0.45239  -0.45075
 Alpha  occ. eigenvalues --   -0.44225  -0.43967  -0.42887  -0.42755  -0.42495
 Alpha  occ. eigenvalues --   -0.42330  -0.42253  -0.41539  -0.41456  -0.40989
 Alpha  occ. eigenvalues --   -0.40938  -0.40774  -0.40596  -0.40301  -0.40150
 Alpha  occ. eigenvalues --   -0.39980  -0.39709  -0.39625  -0.39416  -0.39198
 Alpha  occ. eigenvalues --   -0.38963  -0.38470  -0.38206  -0.38092  -0.37905
 Alpha  occ. eigenvalues --   -0.37868  -0.37562  -0.37537  -0.37226  -0.37161
 Alpha  occ. eigenvalues --   -0.37034  -0.36826  -0.36584  -0.36289  -0.36159
 Alpha  occ. eigenvalues --   -0.36086  -0.36038  -0.35850  -0.35643  -0.35337
 Alpha  occ. eigenvalues --   -0.35295  -0.34894  -0.34865  -0.34753  -0.34671
 Alpha  occ. eigenvalues --   -0.34390  -0.34181  -0.34034  -0.33965  -0.33878
 Alpha  occ. eigenvalues --   -0.33771  -0.33581  -0.33561  -0.33354  -0.33257
 Alpha  occ. eigenvalues --   -0.32997  -0.32847  -0.32612  -0.32587  -0.32467
 Alpha  occ. eigenvalues --   -0.32318  -0.32192  -0.31895  -0.31778  -0.31566
 Alpha  occ. eigenvalues --   -0.31317  -0.31243  -0.30956  -0.30863  -0.30736
 Alpha  occ. eigenvalues --   -0.30466  -0.30281  -0.30133  -0.30044  -0.29844
 Alpha  occ. eigenvalues --   -0.29745  -0.29509  -0.29412  -0.29266  -0.29056
 Alpha  occ. eigenvalues --   -0.28888  -0.28709  -0.28213  -0.28040  -0.27695
 Alpha  occ. eigenvalues --   -0.27602  -0.27242  -0.27178  -0.26942  -0.26561
 Alpha  occ. eigenvalues --   -0.26345  -0.26194  -0.26125  -0.25725  -0.25611
 Alpha  occ. eigenvalues --   -0.25323  -0.24536  -0.24100  -0.23967  -0.23542
 Alpha  occ. eigenvalues --   -0.23366  -0.22136  -0.21926  -0.21165  -0.20983
 Alpha  occ. eigenvalues --   -0.20767  -0.20510  -0.18633  -0.18025  -0.17318
 Alpha  occ. eigenvalues --   -0.15900
 Alpha virt. eigenvalues --   -0.11849  -0.06560  -0.06038  -0.04816  -0.02336
 Alpha virt. eigenvalues --   -0.02101  -0.01895  -0.01127  -0.00619   0.00574
 Alpha virt. eigenvalues --    0.01302   0.01490   0.02140   0.02228   0.02981

 Mulliken charges:
               1
     1  Mg   0.713481
     2  C   -0.048209
     3  C   -0.052472
     4  C   -0.078823
     5  C   -0.121133
     6  N   -0.243943
     7  C   -0.067247
     8  C    0.023663
     9  C   -0.028397
    10  C   -0.006467
    11  C    0.120329
    12  C    0.176229
    13  C    0.049195
    14  C    0.058017
    15  O   -0.175286
    16  O   -0.243723
    17  N   -0.297193
    18  C    0.181332
    19  C   -0.188872
    20  C    0.122892
    21  C    0.116384
    22  C    0.188378
    23  C   -0.146923
    24  O   -0.184566
    25  C    0.119628
    26  N   -0.243609
    27  C    0.035527
    28  C    0.032958
    29  C    0.056656
    30  C    0.074162
    31  C    0.151854
    32  C    0.023125
    33  C    0.096667
    34  N   -0.286789
    35  C    0.149283
    36  C   -0.156885
    37  C    0.121686
    38  C    0.106614
    39  C    0.173914
    40  C   -0.102736
    41  O   -0.127042
    42  C    0.103451
    43  C    0.107128
    44  O   -0.225200
    45  O   -0.224930
    46  C    0.230073
    47  C    0.341275
    48  C   -0.119439
    49  C   -0.117478
    50  C    0.145493
    51  C    0.119232
    52  C    0.085256
    53  C    0.133891
    54  C   -0.101503
    55  C    0.102740
    56  C    0.118820
    57  C    0.047005
    58  C    0.076857
    59  C   -0.069488
    60  C    0.099718
    61  C    0.117565
    62  C    0.095553
    63  C    0.112411
    64  C   -0.091547
    65  C    0.128329
    66  C    0.080320
    67  H   -0.054817
    68  H   -0.044984
    69  H   -0.073410
    70  H   -0.022260
    71  H   -0.026335
    72  H   -0.001093
    73  H    0.002493
    74  H   -0.002239
    75  H   -0.019098
    76  H   -0.010564
    77  H    0.011270
    78  H    0.007073
    79  H    0.011730
    80  H    0.022734
    81  H   -0.012808
    82  H   -0.006535
    83  H    0.003023
    84  H   -0.001813
    85  H   -0.019926
    86  H   -0.042710
    87  H   -0.005819
    88  H    0.001378
    89  H   -0.007110
    90  H   -0.029587
    91  H   -0.039286
    92  H    0.000378
    93  H   -0.004873
    94  H    0.012492
    95  H   -0.015886
    96  H   -0.004461
    97  H    0.004830
    98  H    0.004788
    99  H    0.009291
   100  H    0.007767
   101  H    0.012139
   102  H    0.016367
   103  H   -0.022617
   104  H   -0.030650
   105  H    0.004258
   106  H   -0.024503
   107  H   -0.004816
   108  H   -0.026593
   109  H   -0.046944
   110  H   -0.026185
   111  H   -0.031106
   112  H   -0.040621
   113  H   -0.038503
   114  H   -0.048811
   115  H   -0.017248
   116  H   -0.026782
   117  H    0.001449
   118  H   -0.042355
   119  H   -0.033708
   120  H   -0.012435
   121  H   -0.025774
   122  H   -0.050688
   123  H   -0.029305
   124  H   -0.037516
   125  H   -0.018651
   126  H   -0.016116
   127  H   -0.025979
   128  H   -0.033688
   129  H   -0.023053
   130  H   -0.046451
   131  H   -0.041936
   132  H   -0.030095
   133  H   -0.038015
   134  H   -0.037059
   135  H   -0.030983
   136  H   -0.036953
   137  H   -0.002173
   138  H   -0.025642
   139  H   -0.020546
   140  H   -0.030530
 Sum of Mulliken charges =  -0.00000

 Dipole moment (field-independent basis, Debye):
    X=             -2.5132    Y=              1.3410    Z=             -0.6071  Tot=              2.9126
 Quadrupole moment (field-independent basis, Debye-Ang):
   XX=           -372.5838   YY=           -424.3401   ZZ=           -407.4646
   XY=              1.2055   XZ=             17.0206   YZ=             -7.7113

 Normal termination of Gaussian 16 at Thu Apr 28 19:41:30 2022.
