 Gaussian 16, Revision A.03,
 Gaussian 16:  ES64L-G16RevA.03 25-Dec-2016

 -----------------------------------
 #p cam-b3lyp/Def2SVP td=(nstates=5)
 -----------------------------------

 --------------------------------------------------------
 step_1701_chromophore_16 TDDFT with cam-b3lyp functional
 --------------------------------------------------------
 Symbolic Z-matrix:
 Charge =  0 Multiplicity = 1

                         Standard orientation:
 ---------------------------------------------------------------------
 Center     Atomic      Atomic             Coordinates (Angstroms)
 Number     Number       Type             X           Y           Z
 ---------------------------------------------------------------------
      1         12           0        6.215852    0.505146    0.184362
      2          6           0        3.960081   -2.158490   -0.073450
      3          6           0        3.622329    2.695705   -0.947818
      4          6           0        8.464249    2.878891   -0.104091
      5          6           0        8.758275   -1.703641    0.949735
      6          7           0        4.094689    0.274894   -0.324928
      7          6           0        3.383069   -0.929365   -0.396131
      8          6           0        1.931566   -0.626408   -0.680411
      9          6           0        1.866717    0.825947   -1.291405
     10          6           0        3.276324    1.336018   -0.755667
     11          6           0        1.793568    0.879301   -2.858012
     12          6           0        1.081338   -0.920114    0.599986
     13          6           0       -0.030554   -1.970925    0.321722
     14          6           0       -1.379471   -1.926862    1.156883
     15          8           0       -1.650024   -1.145424    2.030380
     16          8           0       -2.217543   -2.801926    0.587639
     17          7           0        6.036336    2.530041   -0.367683
     18          6           0        4.915655    3.251950   -0.721712
     19          6           0        5.310450    4.630336   -0.938841
     20          6           0        6.694612    4.743329   -0.650943
     21          6           0        7.163321    3.347895   -0.344315
     22          6           0        4.326780    5.780031   -1.302922
     23          6           0        7.559992    5.888162   -0.635161
     24          8           0        8.763151    5.825533   -0.346225
     25          6           0        7.070038    7.331463   -1.055469
     26          7           0        8.199301    0.649674    0.652575
     27          6           0        8.974711    1.662455    0.315487
     28          6           0       10.438851    1.502844    0.356913
     29          6           0       10.538494    0.067295    1.036601
     30          6           0        9.123152   -0.397793    0.851829
     31          6           0       11.311063    1.761642   -0.890182
     32          6           0       11.041978    0.173376    2.508057
     33          6           0       10.334390    0.806355    3.739034
     34          7           0        6.430275   -1.482025    0.387958
     35          6           0        7.498152   -2.267476    0.739967
     36          6           0        7.102050   -3.632103    0.843174
     37          6           0        5.739063   -3.614183    0.463437
     38          6           0        5.345657   -2.273803    0.228535
     39          6           0        7.891709   -4.854096    1.239215
     40          6           0        4.620478   -4.458446    0.262232
     41          8           0        4.500045   -5.673467    0.238942
     42          6           0        3.374415   -3.513901   -0.053295
     43          6           0        2.901930   -3.882407   -1.403871
     44          8           0        3.289376   -3.520095   -2.531261
     45          8           0        2.016854   -4.862779   -1.291647
     46          6           0        1.370672   -5.189257   -2.557978
     47          6           0       -3.498873   -2.805590    1.233273
     48          6           0       -4.417962   -1.762478    0.607195
     49          6           0       -5.701251   -1.897250    0.253212
     50          6           0       -6.516908   -3.158885    0.351368
     51          6           0       -6.436504   -0.639432   -0.305680
     52          6           0       -7.608642   -0.057057    0.606988
     53          6           0       -8.961194   -0.508129    0.017960
     54          6           0       -9.424090    0.486546   -0.924685
     55          6           0      -10.047646    1.793170   -0.349874
     56          6           0      -10.377709   -0.184810   -1.960360
     57          6           0      -11.726367   -0.615357   -1.289792
     58          6           0      -12.950697   -0.001777   -2.063025
     59          6           0      -14.296997    0.018137   -1.294961
     60          6           0      -15.437300   -0.511522   -2.190216
     61          6           0      -14.536733    1.492466   -0.917384
     62          6           0      -15.599544    1.548130    0.166798
     63          6           0      -15.034101    1.425308    1.596404
     64          6           0      -15.301216    2.705523    2.473801
     65          6           0      -16.507665    2.667820    3.415218
     66          6           0      -14.050004    2.953877    3.287109
     67          1           0        2.780223    3.196390   -1.430805
     68          1           0        9.256167    3.600924   -0.311475
     69          1           0        9.587343   -2.354453    1.235773
     70          1           0        1.640391   -1.248693   -1.526951
     71          1           0        1.024448    1.347846   -0.837127
     72          1           0        1.548741   -0.083533   -3.305821
     73          1           0        2.803438    1.104504   -3.199374
     74          1           0        1.086980    1.601055   -3.267346
     75          1           0        0.620079    0.005319    0.945253
     76          1           0        1.735162   -1.211393    1.421773
     77          1           0        0.375973   -2.957190    0.545127
     78          1           0       -0.482083   -1.962436   -0.670616
     79          1           0        4.716713    5.987986   -2.299274
     80          1           0        4.401926    6.563715   -0.549666
     81          1           0        3.306816    5.408897   -1.405848
     82          1           0        7.956206    7.964634   -1.016603
     83          1           0        6.280257    7.675106   -0.386334
     84          1           0        6.707507    7.263182   -2.081090
     85          1           0       10.755527    2.211648    1.121739
     86          1           0       11.279344   -0.566062    0.547036
     87          1           0       12.308561    2.141562   -0.669022
     88          1           0       10.804643    2.509666   -1.499358
     89          1           0       11.444216    0.805324   -1.395824
     90          1           0       12.070242    0.519097    2.400025
     91          1           0       11.256774   -0.835615    2.857714
     92          1           0        9.444495    1.319016    3.371041
     93          1           0       10.985456    1.622700    4.050929
     94          1           0       10.157633    0.041565    4.495033
     95          1           0        8.701201   -4.593454    1.921778
     96          1           0        8.404694   -5.303642    0.388152
     97          1           0        7.323802   -5.702932    1.619610
     98          1           0        2.639702   -3.576405    0.749325
     99          1           0        1.141151   -4.299672   -3.144174
    100          1           0        0.445514   -5.745271   -2.405856
    101          1           0        2.072320   -5.795280   -3.130598
    102          1           0       -3.469990   -2.719540    2.319134
    103          1           0       -3.849023   -3.790784    0.925596
    104          1           0       -3.948630   -0.801977    0.396815
    105          1           0       -7.197259   -3.132524    1.203353
    106          1           0       -5.874715   -4.035012    0.442438
    107          1           0       -7.151670   -3.371074   -0.509431
    108          1           0       -6.819551   -0.845810   -1.305408
    109          1           0       -5.729145    0.150845   -0.557766
    110          1           0       -7.552995    1.022829    0.744949
    111          1           0       -7.564349   -0.520066    1.592395
    112          1           0       -9.684882   -0.604348    0.828048
    113          1           0       -8.846250   -1.473389   -0.475456
    114          1           0       -8.583604    0.911127   -1.473273
    115          1           0       -9.289863    2.501223   -0.015169
    116          1           0      -10.501516    1.537116    0.608090
    117          1           0      -10.770015    2.201392   -1.057102
    118          1           0       -9.908908   -1.080060   -2.368508
    119          1           0      -10.491000    0.487759   -2.810519
    120          1           0      -11.837148   -0.242855   -0.271225
    121          1           0      -11.895888   -1.690526   -1.345988
    122          1           0      -13.109447   -0.694198   -2.890245
    123          1           0      -12.711989    0.992925   -2.439336
    124          1           0      -14.164292   -0.677407   -0.466716
    125          1           0      -16.084253   -1.099405   -1.538582
    126          1           0      -15.155643   -1.079569   -3.076445
    127          1           0      -16.127878    0.227216   -2.595918
    128          1           0      -14.981103    2.036143   -1.750546
    129          1           0      -13.603750    1.968024   -0.618730
    130          1           0      -16.377771    0.790153    0.091245
    131          1           0      -16.161492    2.476313    0.060896
    132          1           0      -13.953275    1.287654    1.593458
    133          1           0      -15.494068    0.579687    2.107935
    134          1           0      -15.495967    3.625513    1.921715
    135          1           0      -16.223016    2.265718    4.387808
    136          1           0      -17.113113    1.835723    3.056849
    137          1           0      -17.028304    3.622545    3.485466
    138          1           0      -13.195066    3.240414    2.674457
    139          1           0      -13.730660    2.073175    3.843863
    140          1           0      -14.095560    3.771842    4.007373
 ---------------------------------------------------------------------

 SCF Done:  E(RCAM-B3LYP) =  -3007.21295854     A.U. after   18 cycles

 Excitation energies and oscillator strengths:

 Excited State   1:      Singlet-A      1.6703 eV  742.27 nm  f=0.3917  <S**2>=0.000
     245 -> 248        0.15474
     246 -> 247        0.69090
     245 <- 248        0.10133
 This state for optimization and/or second-order correction.
 Total Energy, E(TD-HF/TD-DFT) =  -3007.15157462
 Copying the excited state density for this state as the 1-particle RhoCI density.

 Excited State   2:      Singlet-A      2.2091 eV  561.23 nm  f=0.1469  <S**2>=0.000
     245 -> 247        0.65397
     246 -> 248       -0.24731

 Excited State   3:      Singlet-A      3.2975 eV  375.99 nm  f=0.0025  <S**2>=0.000
     241 -> 247        0.56797
     241 -> 248       -0.13769
     241 -> 249        0.28052
     241 -> 250        0.14660

 Excited State   4:      Singlet-A      3.3469 eV  370.44 nm  f=0.0095  <S**2>=0.000
     241 -> 247       -0.10572
     242 -> 247        0.47873
     243 -> 247       -0.19857
     244 -> 247       -0.42142
     246 -> 248        0.14398

 Excited State   5:      Singlet-A      3.4902 eV  355.23 nm  f=0.0090  <S**2>=0.000
     239 -> 247        0.16205
     242 -> 247        0.24239
     243 -> 247       -0.26319
     244 -> 247        0.52659
     246 -> 248        0.18576

 The electronic state is 1-A.
 Alpha  occ. eigenvalues --  -46.87278 -19.25738 -19.24663 -19.20051 -19.18578
 Alpha  occ. eigenvalues --  -19.18476 -19.18094 -14.42437 -14.42092 -14.40001
 Alpha  occ. eigenvalues --  -14.38829 -10.39239 -10.38548 -10.34773 -10.34167
 Alpha  occ. eigenvalues --  -10.32014 -10.31861 -10.31233 -10.31110 -10.30888
 Alpha  occ. eigenvalues --  -10.30767 -10.30619 -10.29789 -10.29725 -10.28704
 Alpha  occ. eigenvalues --  -10.28700 -10.28360 -10.28023 -10.27876 -10.27843
 Alpha  occ. eigenvalues --  -10.27744 -10.27720 -10.27551 -10.27488 -10.27474
 Alpha  occ. eigenvalues --  -10.27471 -10.27467 -10.27198 -10.27147 -10.26451
 Alpha  occ. eigenvalues --  -10.26325 -10.26229 -10.26227 -10.26134 -10.26097
 Alpha  occ. eigenvalues --  -10.25869 -10.25764 -10.25725 -10.25643 -10.25549
 Alpha  occ. eigenvalues --  -10.25535 -10.25363 -10.25197 -10.25065 -10.24963
 Alpha  occ. eigenvalues --  -10.24873 -10.24842 -10.24731 -10.24713 -10.24309
 Alpha  occ. eigenvalues --  -10.24236 -10.24220 -10.24088 -10.24025 -10.24006
 Alpha  occ. eigenvalues --  -10.23773  -3.16075  -1.90977  -1.90549  -1.90381
 Alpha  occ. eigenvalues --   -1.18659  -1.17273  -1.09325  -1.09114  -1.09099
 Alpha  occ. eigenvalues --   -1.05841  -1.05064  -1.03277  -1.02574  -1.01322
 Alpha  occ. eigenvalues --   -0.92974  -0.91066  -0.89902  -0.89265  -0.89215
 Alpha  occ. eigenvalues --   -0.88776  -0.88557  -0.87721  -0.87410  -0.87297
 Alpha  occ. eigenvalues --   -0.85830  -0.85200  -0.84196  -0.84012  -0.83298
 Alpha  occ. eigenvalues --   -0.82366  -0.81691  -0.81016  -0.80754  -0.79833
 Alpha  occ. eigenvalues --   -0.79474  -0.78480  -0.77763  -0.77678  -0.76441
 Alpha  occ. eigenvalues --   -0.75937  -0.75586  -0.75377  -0.75080  -0.74362
 Alpha  occ. eigenvalues --   -0.73500  -0.73077  -0.71808  -0.70487  -0.70066
 Alpha  occ. eigenvalues --   -0.69234  -0.68800  -0.67840  -0.66902  -0.65409
 Alpha  occ. eigenvalues --   -0.65126  -0.64854  -0.64523  -0.64227  -0.63719
 Alpha  occ. eigenvalues --   -0.63458  -0.62577  -0.61805  -0.61672  -0.60464
 Alpha  occ. eigenvalues --   -0.59956  -0.59412  -0.59086  -0.58781  -0.58432
 Alpha  occ. eigenvalues --   -0.57612  -0.57318  -0.56116  -0.55798  -0.55603
 Alpha  occ. eigenvalues --   -0.55309  -0.55206  -0.54951  -0.54388  -0.54213
 Alpha  occ. eigenvalues --   -0.53923  -0.53590  -0.53326  -0.53241  -0.53099
 Alpha  occ. eigenvalues --   -0.52805  -0.52285  -0.52108  -0.52031  -0.51903
 Alpha  occ. eigenvalues --   -0.51586  -0.51061  -0.50670  -0.50521  -0.50264
 Alpha  occ. eigenvalues --   -0.50171  -0.49886  -0.49775  -0.49727  -0.49463
 Alpha  occ. eigenvalues --   -0.49197  -0.49002  -0.48917  -0.48785  -0.48712
 Alpha  occ. eigenvalues --   -0.48371  -0.48150  -0.47996  -0.47940  -0.47831
 Alpha  occ. eigenvalues --   -0.47483  -0.47178  -0.46769  -0.46576  -0.46521
 Alpha  occ. eigenvalues --   -0.46325  -0.45902  -0.45763  -0.45705  -0.45648
 Alpha  occ. eigenvalues --   -0.45453  -0.45276  -0.45202  -0.45015  -0.44940
 Alpha  occ. eigenvalues --   -0.44658  -0.44615  -0.44310  -0.44265  -0.44157
 Alpha  occ. eigenvalues --   -0.44044  -0.43878  -0.43677  -0.43429  -0.43355
 Alpha  occ. eigenvalues --   -0.42929  -0.42554  -0.42538  -0.42419  -0.42248
 Alpha  occ. eigenvalues --   -0.42157  -0.41631  -0.41520  -0.41320  -0.41230
 Alpha  occ. eigenvalues --   -0.41109  -0.40999  -0.40544  -0.40505  -0.40088
 Alpha  occ. eigenvalues --   -0.39970  -0.39706  -0.39249  -0.38960  -0.38886
 Alpha  occ. eigenvalues --   -0.38637  -0.38240  -0.38052  -0.37768  -0.37325
 Alpha  occ. eigenvalues --   -0.37239  -0.36909  -0.36769  -0.36683  -0.36289
 Alpha  occ. eigenvalues --   -0.36200  -0.35952  -0.34745  -0.34581  -0.33813
 Alpha  occ. eigenvalues --   -0.33727  -0.33631  -0.33136  -0.31504  -0.30614
 Alpha  occ. eigenvalues --   -0.30595  -0.30339  -0.30095  -0.29399  -0.24237
 Alpha  occ. eigenvalues --   -0.21261
 Alpha virt. eigenvalues --   -0.09058  -0.01180   0.00336   0.02098   0.03671
 Alpha virt. eigenvalues --    0.05398   0.05612   0.05828   0.06435   0.06953
 Alpha virt. eigenvalues --    0.08018   0.08166   0.08620   0.08914   0.09125

 Mulliken charges:
               1
     1  Mg   0.849555
     2  C   -0.071077
     3  C   -0.070155
     4  C   -0.099389
     5  C   -0.115099
     6  N   -0.313319
     7  C   -0.022826
     8  C   -0.027280
     9  C   -0.078016
    10  C    0.015609
    11  C    0.061755
    12  C    0.117969
    13  C   -0.015109
    14  C    0.139230
    15  O   -0.216792
    16  O   -0.304871
    17  N   -0.385764
    18  C    0.192062
    19  C   -0.184047
    20  C    0.043789
    21  C    0.148684
    22  C    0.133347
    23  C   -0.069107
    24  O   -0.224489
    25  C    0.048203
    26  N   -0.314992
    27  C    0.064413
    28  C   -0.035294
    29  C    0.003856
    30  C    0.073031
    31  C    0.096294
    32  C   -0.023606
    33  C    0.034635
    34  N   -0.378111
    35  C    0.144132
    36  C   -0.153007
    37  C    0.034033
    38  C    0.140785
    39  C    0.123852
    40  C   -0.003069
    41  O   -0.169320
    42  C    0.023220
    43  C    0.192232
    44  O   -0.263357
    45  O   -0.284623
    46  C    0.187422
    47  C    0.294639
    48  C   -0.132232
    49  C   -0.141967
    50  C    0.082660
    51  C    0.064753
    52  C    0.026942
    53  C    0.073775
    54  C   -0.157596
    55  C    0.049557
    56  C    0.065135
    57  C   -0.006791
    58  C    0.033165
    59  C   -0.129317
    60  C    0.041816
    61  C    0.062259
    62  C    0.037035
    63  C    0.058758
    64  C   -0.148298
    65  C    0.065881
    66  C    0.019716
    67  H   -0.019534
    68  H   -0.004118
    69  H   -0.037147
    70  H    0.010151
    71  H    0.009542
    72  H    0.025157
    73  H    0.028527
    74  H    0.021981
    75  H    0.013202
    76  H    0.022057
    77  H    0.039312
    78  H    0.037265
    79  H    0.038656
    80  H    0.048198
    81  H    0.017806
    82  H    0.030674
    83  H    0.029955
    84  H    0.025564
    85  H    0.017191
    86  H   -0.005203
    87  H    0.019949
    88  H    0.024753
    89  H    0.017747
    90  H   -0.002235
    91  H   -0.010557
    92  H    0.019973
    93  H    0.017509
    94  H    0.035819
    95  H    0.006010
    96  H    0.020758
    97  H    0.031234
    98  H    0.045789
    99  H    0.031745
   100  H    0.031955
   101  H    0.037275
   102  H    0.048587
   103  H    0.009536
   104  H    0.001732
   105  H    0.027741
   106  H    0.001216
   107  H    0.019319
   108  H    0.000993
   109  H   -0.014697
   110  H    0.002398
   111  H   -0.001005
   112  H   -0.010090
   113  H   -0.010483
   114  H   -0.015659
   115  H    0.007372
   116  H   -0.005655
   117  H    0.023201
   118  H   -0.012296
   119  H   -0.003879
   120  H    0.009347
   121  H    0.002833
   122  H   -0.021032
   123  H   -0.004157
   124  H   -0.005070
   125  H    0.004975
   126  H    0.009226
   127  H   -0.001257
   128  H   -0.003340
   129  H    0.001822
   130  H   -0.016178
   131  H   -0.011499
   132  H   -0.003274
   133  H   -0.008893
   134  H   -0.005627
   135  H   -0.005779
   136  H   -0.012208
   137  H    0.021985
   138  H   -0.001605
   139  H    0.002853
   140  H   -0.003693
 Sum of Mulliken charges =  -0.00000

 Dipole moment (field-independent basis, Debye):
    X=             -2.6698    Y=              2.9694    Z=             -1.0054  Tot=              4.1178
 Quadrupole moment (field-independent basis, Debye-Ang):
   XX=           -371.7285   YY=           -418.4659   ZZ=           -407.4094
   XY=             10.8887   XZ=             15.4784   YZ=             -9.3656

 Normal termination of Gaussian 16 at Thu Apr 28 18:34:08 2022.
