 Gaussian 16, Revision A.03,
 Gaussian 16:  ES64L-G16RevA.03 25-Dec-2016

 ---------------------------------
 #p PBE1PBE/Def2SVP td=(nstates=5)
 ---------------------------------

 ------------------------------------------------------
 step_1701_chromophore_16 TDDFT with PBE1PBE functional
 ------------------------------------------------------
 Symbolic Z-matrix:
 Charge =  0 Multiplicity = 1

                         Standard orientation:
 ---------------------------------------------------------------------
 Center     Atomic      Atomic             Coordinates (Angstroms)
 Number     Number       Type             X           Y           Z
 ---------------------------------------------------------------------
      1         12           0        6.215852    0.505146    0.184362
      2          6           0        3.960081   -2.158490   -0.073450
      3          6           0        3.622329    2.695705   -0.947818
      4          6           0        8.464249    2.878891   -0.104091
      5          6           0        8.758275   -1.703641    0.949735
      6          7           0        4.094689    0.274894   -0.324928
      7          6           0        3.383069   -0.929365   -0.396131
      8          6           0        1.931566   -0.626408   -0.680411
      9          6           0        1.866717    0.825947   -1.291405
     10          6           0        3.276324    1.336018   -0.755667
     11          6           0        1.793568    0.879301   -2.858012
     12          6           0        1.081338   -0.920114    0.599986
     13          6           0       -0.030554   -1.970925    0.321722
     14          6           0       -1.379471   -1.926862    1.156883
     15          8           0       -1.650024   -1.145424    2.030380
     16          8           0       -2.217543   -2.801926    0.587639
     17          7           0        6.036336    2.530041   -0.367683
     18          6           0        4.915655    3.251950   -0.721712
     19          6           0        5.310450    4.630336   -0.938841
     20          6           0        6.694612    4.743329   -0.650943
     21          6           0        7.163321    3.347895   -0.344315
     22          6           0        4.326780    5.780031   -1.302922
     23          6           0        7.559992    5.888162   -0.635161
     24          8           0        8.763151    5.825533   -0.346225
     25          6           0        7.070038    7.331463   -1.055469
     26          7           0        8.199301    0.649674    0.652575
     27          6           0        8.974711    1.662455    0.315487
     28          6           0       10.438851    1.502844    0.356913
     29          6           0       10.538494    0.067295    1.036601
     30          6           0        9.123152   -0.397793    0.851829
     31          6           0       11.311063    1.761642   -0.890182
     32          6           0       11.041978    0.173376    2.508057
     33          6           0       10.334390    0.806355    3.739034
     34          7           0        6.430275   -1.482025    0.387958
     35          6           0        7.498152   -2.267476    0.739967
     36          6           0        7.102050   -3.632103    0.843174
     37          6           0        5.739063   -3.614183    0.463437
     38          6           0        5.345657   -2.273803    0.228535
     39          6           0        7.891709   -4.854096    1.239215
     40          6           0        4.620478   -4.458446    0.262232
     41          8           0        4.500045   -5.673467    0.238942
     42          6           0        3.374415   -3.513901   -0.053295
     43          6           0        2.901930   -3.882407   -1.403871
     44          8           0        3.289376   -3.520095   -2.531261
     45          8           0        2.016854   -4.862779   -1.291647
     46          6           0        1.370672   -5.189257   -2.557978
     47          6           0       -3.498873   -2.805590    1.233273
     48          6           0       -4.417962   -1.762478    0.607195
     49          6           0       -5.701251   -1.897250    0.253212
     50          6           0       -6.516908   -3.158885    0.351368
     51          6           0       -6.436504   -0.639432   -0.305680
     52          6           0       -7.608642   -0.057057    0.606988
     53          6           0       -8.961194   -0.508129    0.017960
     54          6           0       -9.424090    0.486546   -0.924685
     55          6           0      -10.047646    1.793170   -0.349874
     56          6           0      -10.377709   -0.184810   -1.960360
     57          6           0      -11.726367   -0.615357   -1.289792
     58          6           0      -12.950697   -0.001777   -2.063025
     59          6           0      -14.296997    0.018137   -1.294961
     60          6           0      -15.437300   -0.511522   -2.190216
     61          6           0      -14.536733    1.492466   -0.917384
     62          6           0      -15.599544    1.548130    0.166798
     63          6           0      -15.034101    1.425308    1.596404
     64          6           0      -15.301216    2.705523    2.473801
     65          6           0      -16.507665    2.667820    3.415218
     66          6           0      -14.050004    2.953877    3.287109
     67          1           0        2.780223    3.196390   -1.430805
     68          1           0        9.256167    3.600924   -0.311475
     69          1           0        9.587343   -2.354453    1.235773
     70          1           0        1.640391   -1.248693   -1.526951
     71          1           0        1.024448    1.347846   -0.837127
     72          1           0        1.548741   -0.083533   -3.305821
     73          1           0        2.803438    1.104504   -3.199374
     74          1           0        1.086980    1.601055   -3.267346
     75          1           0        0.620079    0.005319    0.945253
     76          1           0        1.735162   -1.211393    1.421773
     77          1           0        0.375973   -2.957190    0.545127
     78          1           0       -0.482083   -1.962436   -0.670616
     79          1           0        4.716713    5.987986   -2.299274
     80          1           0        4.401926    6.563715   -0.549666
     81          1           0        3.306816    5.408897   -1.405848
     82          1           0        7.956206    7.964634   -1.016603
     83          1           0        6.280257    7.675106   -0.386334
     84          1           0        6.707507    7.263182   -2.081090
     85          1           0       10.755527    2.211648    1.121739
     86          1           0       11.279344   -0.566062    0.547036
     87          1           0       12.308561    2.141562   -0.669022
     88          1           0       10.804643    2.509666   -1.499358
     89          1           0       11.444216    0.805324   -1.395824
     90          1           0       12.070242    0.519097    2.400025
     91          1           0       11.256774   -0.835615    2.857714
     92          1           0        9.444495    1.319016    3.371041
     93          1           0       10.985456    1.622700    4.050929
     94          1           0       10.157633    0.041565    4.495033
     95          1           0        8.701201   -4.593454    1.921778
     96          1           0        8.404694   -5.303642    0.388152
     97          1           0        7.323802   -5.702932    1.619610
     98          1           0        2.639702   -3.576405    0.749325
     99          1           0        1.141151   -4.299672   -3.144174
    100          1           0        0.445514   -5.745271   -2.405856
    101          1           0        2.072320   -5.795280   -3.130598
    102          1           0       -3.469990   -2.719540    2.319134
    103          1           0       -3.849023   -3.790784    0.925596
    104          1           0       -3.948630   -0.801977    0.396815
    105          1           0       -7.197259   -3.132524    1.203353
    106          1           0       -5.874715   -4.035012    0.442438
    107          1           0       -7.151670   -3.371074   -0.509431
    108          1           0       -6.819551   -0.845810   -1.305408
    109          1           0       -5.729145    0.150845   -0.557766
    110          1           0       -7.552995    1.022829    0.744949
    111          1           0       -7.564349   -0.520066    1.592395
    112          1           0       -9.684882   -0.604348    0.828048
    113          1           0       -8.846250   -1.473389   -0.475456
    114          1           0       -8.583604    0.911127   -1.473273
    115          1           0       -9.289863    2.501223   -0.015169
    116          1           0      -10.501516    1.537116    0.608090
    117          1           0      -10.770015    2.201392   -1.057102
    118          1           0       -9.908908   -1.080060   -2.368508
    119          1           0      -10.491000    0.487759   -2.810519
    120          1           0      -11.837148   -0.242855   -0.271225
    121          1           0      -11.895888   -1.690526   -1.345988
    122          1           0      -13.109447   -0.694198   -2.890245
    123          1           0      -12.711989    0.992925   -2.439336
    124          1           0      -14.164292   -0.677407   -0.466716
    125          1           0      -16.084253   -1.099405   -1.538582
    126          1           0      -15.155643   -1.079569   -3.076445
    127          1           0      -16.127878    0.227216   -2.595918
    128          1           0      -14.981103    2.036143   -1.750546
    129          1           0      -13.603750    1.968024   -0.618730
    130          1           0      -16.377771    0.790153    0.091245
    131          1           0      -16.161492    2.476313    0.060896
    132          1           0      -13.953275    1.287654    1.593458
    133          1           0      -15.494068    0.579687    2.107935
    134          1           0      -15.495967    3.625513    1.921715
    135          1           0      -16.223016    2.265718    4.387808
    136          1           0      -17.113113    1.835723    3.056849
    137          1           0      -17.028304    3.622545    3.485466
    138          1           0      -13.195066    3.240414    2.674457
    139          1           0      -13.730660    2.073175    3.843863
    140          1           0      -14.095560    3.771842    4.007373
 ---------------------------------------------------------------------

 SCF Done:  E(RPBE1PBE) =  -3005.40142662     A.U. after   16 cycles

 Excitation energies and oscillator strengths:

 Excited State   1:      Singlet-A      1.8002 eV  688.74 nm  f=0.3811  <S**2>=0.000
     245 -> 248       -0.14973
     246 -> 247        0.69829
     246 <- 247       -0.11639
 This state for optimization and/or second-order correction.
 Total Energy, E(TD-HF/TD-DFT) =  -3005.33527230
 Copying the excited state density for this state as the 1-particle RhoCI density.

 Excited State   2:      Singlet-A      2.2090 eV  561.27 nm  f=0.1368  <S**2>=0.000
     245 -> 247        0.66220
     246 -> 248        0.22656

 Excited State   3:      Singlet-A      2.7698 eV  447.62 nm  f=0.0008  <S**2>=0.000
     244 -> 247        0.67440
     244 -> 249        0.13849

 Excited State   4:      Singlet-A      2.9143 eV  425.44 nm  f=0.0006  <S**2>=0.000
     242 -> 247       -0.18646
     243 -> 247        0.65693
     243 -> 249       -0.13554

 Excited State   5:      Singlet-A      3.0165 eV  411.02 nm  f=0.0016  <S**2>=0.000
     241 -> 247       -0.22570
     242 -> 247        0.63393
     243 -> 247        0.19502

 The electronic state is 1-A.
 Alpha  occ. eigenvalues --  -46.90698 -19.26475 -19.25363 -19.20370 -19.18948
 Alpha  occ. eigenvalues --  -19.18661 -19.18415 -14.41996 -14.41573 -14.39526
 Alpha  occ. eigenvalues --  -14.38698 -10.36322 -10.35647 -10.31597 -10.31577
 Alpha  occ. eigenvalues --  -10.29449 -10.29390 -10.28599 -10.28594 -10.28379
 Alpha  occ. eigenvalues --  -10.28183 -10.28165 -10.27731 -10.26995 -10.26836
 Alpha  occ. eigenvalues --  -10.26463 -10.26384 -10.25790 -10.25616 -10.25430
 Alpha  occ. eigenvalues --  -10.25425 -10.25284 -10.25269 -10.25256 -10.25235
 Alpha  occ. eigenvalues --  -10.25171 -10.25146 -10.24886 -10.24792 -10.23981
 Alpha  occ. eigenvalues --  -10.23876 -10.23739 -10.23699 -10.23624 -10.23603
 Alpha  occ. eigenvalues --  -10.23326 -10.23244 -10.23226 -10.23177 -10.23161
 Alpha  occ. eigenvalues --  -10.23058 -10.23057 -10.22849 -10.22647 -10.22624
 Alpha  occ. eigenvalues --  -10.22433 -10.22289 -10.22286 -10.22264 -10.22131
 Alpha  occ. eigenvalues --  -10.21844 -10.21743 -10.21648 -10.21606 -10.21453
 Alpha  occ. eigenvalues --  -10.21146  -3.13069  -1.85914  -1.85464  -1.85299
 Alpha  occ. eigenvalues --   -1.13553  -1.12153  -1.04246  -1.04140  -1.03540
 Alpha  occ. eigenvalues --   -1.00729  -0.99681  -0.98215  -0.96969  -0.95887
 Alpha  occ. eigenvalues --   -0.87526  -0.85162  -0.83996  -0.83542  -0.83433
 Alpha  occ. eigenvalues --   -0.83050  -0.82789  -0.81824  -0.81621  -0.81361
 Alpha  occ. eigenvalues --   -0.80386  -0.79455  -0.78509  -0.78229  -0.77543
 Alpha  occ. eigenvalues --   -0.76624  -0.75946  -0.75312  -0.74940  -0.73945
 Alpha  occ. eigenvalues --   -0.73652  -0.72537  -0.72062  -0.71973  -0.70640
 Alpha  occ. eigenvalues --   -0.70331  -0.69901  -0.69453  -0.69208  -0.68537
 Alpha  occ. eigenvalues --   -0.67899  -0.67508  -0.66150  -0.64783  -0.64507
 Alpha  occ. eigenvalues --   -0.63511  -0.63175  -0.62276  -0.61138  -0.59662
 Alpha  occ. eigenvalues --   -0.59571  -0.59311  -0.59056  -0.58849  -0.58007
 Alpha  occ. eigenvalues --   -0.57837  -0.56744  -0.56471  -0.55923  -0.54809
 Alpha  occ. eigenvalues --   -0.54468  -0.53977  -0.53601  -0.53266  -0.53090
 Alpha  occ. eigenvalues --   -0.52100  -0.51920  -0.50648  -0.50369  -0.50085
 Alpha  occ. eigenvalues --   -0.49796  -0.49714  -0.49419  -0.48997  -0.48647
 Alpha  occ. eigenvalues --   -0.48539  -0.48044  -0.47919  -0.47722  -0.47433
 Alpha  occ. eigenvalues --   -0.47196  -0.46865  -0.46636  -0.46595  -0.46415
 Alpha  occ. eigenvalues --   -0.46086  -0.45657  -0.45435  -0.45043  -0.44977
 Alpha  occ. eigenvalues --   -0.44681  -0.44386  -0.44305  -0.44167  -0.44078
 Alpha  occ. eigenvalues --   -0.43793  -0.43579  -0.43489  -0.43428  -0.43096
 Alpha  occ. eigenvalues --   -0.42986  -0.42751  -0.42580  -0.42517  -0.42512
 Alpha  occ. eigenvalues --   -0.41980  -0.41784  -0.41431  -0.41376  -0.41171
 Alpha  occ. eigenvalues --   -0.41034  -0.40599  -0.40536  -0.40470  -0.40365
 Alpha  occ. eigenvalues --   -0.40077  -0.40016  -0.39909  -0.39827  -0.39752
 Alpha  occ. eigenvalues --   -0.39407  -0.39233  -0.39140  -0.39026  -0.38991
 Alpha  occ. eigenvalues --   -0.38671  -0.38549  -0.38417  -0.38301  -0.38148
 Alpha  occ. eigenvalues --   -0.37832  -0.37278  -0.37260  -0.37256  -0.36939
 Alpha  occ. eigenvalues --   -0.36891  -0.36512  -0.36404  -0.36222  -0.36070
 Alpha  occ. eigenvalues --   -0.35997  -0.35922  -0.35409  -0.35264  -0.35009
 Alpha  occ. eigenvalues --   -0.34736  -0.34476  -0.34002  -0.33835  -0.33765
 Alpha  occ. eigenvalues --   -0.33415  -0.33201  -0.32885  -0.32582  -0.32291
 Alpha  occ. eigenvalues --   -0.32122  -0.31851  -0.31788  -0.31688  -0.31285
 Alpha  occ. eigenvalues --   -0.31067  -0.30944  -0.29968  -0.29482  -0.28839
 Alpha  occ. eigenvalues --   -0.28719  -0.28701  -0.28352  -0.27054  -0.25925
 Alpha  occ. eigenvalues --   -0.25804  -0.25354  -0.25286  -0.25085  -0.21107
 Alpha  occ. eigenvalues --   -0.18856
 Alpha virt. eigenvalues --   -0.11504  -0.04788  -0.03816  -0.02324   0.00355
 Alpha virt. eigenvalues --    0.01073   0.01128   0.01726   0.02244   0.03147
 Alpha virt. eigenvalues --    0.04311   0.04507   0.04965   0.05149   0.05864

 Mulliken charges:
               1
     1  Mg   1.006739
     2  C   -0.083005
     3  C   -0.059235
     4  C   -0.087873
     5  C   -0.099514
     6  N   -0.414398
     7  C    0.057500
     8  C   -0.096037
     9  C   -0.152525
    10  C    0.047522
    11  C    0.007194
    12  C    0.068090
    13  C   -0.093946
    14  C    0.207552
    15  O   -0.249110
    16  O   -0.334316
    17  N   -0.497975
    18  C    0.210697
    19  C   -0.210326
    20  C   -0.015820
    21  C    0.185074
    22  C    0.070573
    23  C   -0.015736
    24  O   -0.262620
    25  C   -0.025822
    26  N   -0.421390
    27  C    0.091402
    28  C   -0.106840
    29  C   -0.074310
    30  C    0.101775
    31  C    0.036661
    32  C   -0.076989
    33  C   -0.042025
    34  N   -0.514166
    35  C    0.161657
    36  C   -0.161334
    37  C   -0.021778
    38  C    0.199607
    39  C    0.074762
    40  C    0.091937
    41  O   -0.212474
    42  C   -0.092428
    43  C    0.281583
    44  O   -0.296372
    45  O   -0.317756
    46  C    0.130224
    47  C    0.242503
    48  C   -0.133082
    49  C   -0.191181
    50  C    0.022638
    51  C    0.004984
    52  C   -0.036666
    53  C    0.014829
    54  C   -0.245420
    55  C   -0.006614
    56  C    0.007405
    57  C   -0.071545
    58  C   -0.015553
    59  C   -0.218214
    60  C   -0.011491
    61  C   -0.003205
    62  C   -0.023084
    63  C    0.002737
    64  C   -0.237461
    65  C    0.005863
    66  C   -0.045511
    67  H    0.012042
    68  H    0.026930
    69  H   -0.004841
    70  H    0.051999
    71  H    0.044660
    72  H    0.050543
    73  H    0.056828
    74  H    0.048696
    75  H    0.045936
    76  H    0.054520
    77  H    0.073794
    78  H    0.068104
    79  H    0.066152
    80  H    0.073672
    81  H    0.044308
    82  H    0.056885
    83  H    0.055823
    84  H    0.052219
    85  H    0.056083
    86  H    0.030925
    87  H    0.046775
    88  H    0.052518
    89  H    0.044817
    90  H    0.032383
    91  H    0.022976
    92  H    0.051675
    93  H    0.045507
    94  H    0.061868
    95  H    0.034283
    96  H    0.050468
    97  H    0.058876
    98  H    0.083032
    99  H    0.053903
   100  H    0.054375
   101  H    0.060378
   102  H    0.076041
   103  H    0.038223
   104  H    0.030748
   105  H    0.055175
   106  H    0.028741
   107  H    0.045265
   108  H    0.034256
   109  H    0.016962
   110  H    0.034982
   111  H    0.032867
   112  H    0.021842
   113  H    0.024148
   114  H    0.024676
   115  H    0.034822
   116  H    0.020950
   117  H    0.051424
   118  H    0.021357
   119  H    0.027809
   120  H    0.042087
   121  H    0.035793
   122  H    0.013538
   123  H    0.026939
   124  H    0.032332
   125  H    0.032083
   126  H    0.035631
   127  H    0.025480
   128  H    0.029804
   129  H    0.036763
   130  H    0.016983
   131  H    0.020902
   132  H    0.029780
   133  H    0.023406
   134  H    0.031699
   135  H    0.022002
   136  H    0.016627
   137  H    0.048518
   138  H    0.027488
   139  H    0.031275
   140  H    0.025105
 Sum of Mulliken charges =  -0.00000

 Dipole moment (field-independent basis, Debye):
    X=             -2.5849    Y=              2.1091    Z=             -0.8441  Tot=              3.4413
 Quadrupole moment (field-independent basis, Debye-Ang):
   XX=           -364.2345   YY=           -416.9550   ZZ=           -404.7826
   XY=              5.2848   XZ=             17.3800   YZ=             -9.3164

 Normal termination of Gaussian 16 at Thu Apr 28 18:53:53 2022.
