 Gaussian 16, Revision A.03,
 Gaussian 16:  ES64L-G16RevA.03 25-Dec-2016

 --------------------------------
 #p wB97XD/Def2SVP td=(nstates=5)
 --------------------------------

 -----------------------------------------------------
 step_1701_chromophore_16 TDDFT with wB97XD functional
 -----------------------------------------------------
 Symbolic Z-matrix:
 Charge =  0 Multiplicity = 1

                         Standard orientation:
 ---------------------------------------------------------------------
 Center     Atomic      Atomic             Coordinates (Angstroms)
 Number     Number       Type             X           Y           Z
 ---------------------------------------------------------------------
      1         12           0        6.215852    0.505146    0.184362
      2          6           0        3.960081   -2.158490   -0.073450
      3          6           0        3.622329    2.695705   -0.947818
      4          6           0        8.464249    2.878891   -0.104091
      5          6           0        8.758275   -1.703641    0.949735
      6          7           0        4.094689    0.274894   -0.324928
      7          6           0        3.383069   -0.929365   -0.396131
      8          6           0        1.931566   -0.626408   -0.680411
      9          6           0        1.866717    0.825947   -1.291405
     10          6           0        3.276324    1.336018   -0.755667
     11          6           0        1.793568    0.879301   -2.858012
     12          6           0        1.081338   -0.920114    0.599986
     13          6           0       -0.030554   -1.970925    0.321722
     14          6           0       -1.379471   -1.926862    1.156883
     15          8           0       -1.650024   -1.145424    2.030380
     16          8           0       -2.217543   -2.801926    0.587639
     17          7           0        6.036336    2.530041   -0.367683
     18          6           0        4.915655    3.251950   -0.721712
     19          6           0        5.310450    4.630336   -0.938841
     20          6           0        6.694612    4.743329   -0.650943
     21          6           0        7.163321    3.347895   -0.344315
     22          6           0        4.326780    5.780031   -1.302922
     23          6           0        7.559992    5.888162   -0.635161
     24          8           0        8.763151    5.825533   -0.346225
     25          6           0        7.070038    7.331463   -1.055469
     26          7           0        8.199301    0.649674    0.652575
     27          6           0        8.974711    1.662455    0.315487
     28          6           0       10.438851    1.502844    0.356913
     29          6           0       10.538494    0.067295    1.036601
     30          6           0        9.123152   -0.397793    0.851829
     31          6           0       11.311063    1.761642   -0.890182
     32          6           0       11.041978    0.173376    2.508057
     33          6           0       10.334390    0.806355    3.739034
     34          7           0        6.430275   -1.482025    0.387958
     35          6           0        7.498152   -2.267476    0.739967
     36          6           0        7.102050   -3.632103    0.843174
     37          6           0        5.739063   -3.614183    0.463437
     38          6           0        5.345657   -2.273803    0.228535
     39          6           0        7.891709   -4.854096    1.239215
     40          6           0        4.620478   -4.458446    0.262232
     41          8           0        4.500045   -5.673467    0.238942
     42          6           0        3.374415   -3.513901   -0.053295
     43          6           0        2.901930   -3.882407   -1.403871
     44          8           0        3.289376   -3.520095   -2.531261
     45          8           0        2.016854   -4.862779   -1.291647
     46          6           0        1.370672   -5.189257   -2.557978
     47          6           0       -3.498873   -2.805590    1.233273
     48          6           0       -4.417962   -1.762478    0.607195
     49          6           0       -5.701251   -1.897250    0.253212
     50          6           0       -6.516908   -3.158885    0.351368
     51          6           0       -6.436504   -0.639432   -0.305680
     52          6           0       -7.608642   -0.057057    0.606988
     53          6           0       -8.961194   -0.508129    0.017960
     54          6           0       -9.424090    0.486546   -0.924685
     55          6           0      -10.047646    1.793170   -0.349874
     56          6           0      -10.377709   -0.184810   -1.960360
     57          6           0      -11.726367   -0.615357   -1.289792
     58          6           0      -12.950697   -0.001777   -2.063025
     59          6           0      -14.296997    0.018137   -1.294961
     60          6           0      -15.437300   -0.511522   -2.190216
     61          6           0      -14.536733    1.492466   -0.917384
     62          6           0      -15.599544    1.548130    0.166798
     63          6           0      -15.034101    1.425308    1.596404
     64          6           0      -15.301216    2.705523    2.473801
     65          6           0      -16.507665    2.667820    3.415218
     66          6           0      -14.050004    2.953877    3.287109
     67          1           0        2.780223    3.196390   -1.430805
     68          1           0        9.256167    3.600924   -0.311475
     69          1           0        9.587343   -2.354453    1.235773
     70          1           0        1.640391   -1.248693   -1.526951
     71          1           0        1.024448    1.347846   -0.837127
     72          1           0        1.548741   -0.083533   -3.305821
     73          1           0        2.803438    1.104504   -3.199374
     74          1           0        1.086980    1.601055   -3.267346
     75          1           0        0.620079    0.005319    0.945253
     76          1           0        1.735162   -1.211393    1.421773
     77          1           0        0.375973   -2.957190    0.545127
     78          1           0       -0.482083   -1.962436   -0.670616
     79          1           0        4.716713    5.987986   -2.299274
     80          1           0        4.401926    6.563715   -0.549666
     81          1           0        3.306816    5.408897   -1.405848
     82          1           0        7.956206    7.964634   -1.016603
     83          1           0        6.280257    7.675106   -0.386334
     84          1           0        6.707507    7.263182   -2.081090
     85          1           0       10.755527    2.211648    1.121739
     86          1           0       11.279344   -0.566062    0.547036
     87          1           0       12.308561    2.141562   -0.669022
     88          1           0       10.804643    2.509666   -1.499358
     89          1           0       11.444216    0.805324   -1.395824
     90          1           0       12.070242    0.519097    2.400025
     91          1           0       11.256774   -0.835615    2.857714
     92          1           0        9.444495    1.319016    3.371041
     93          1           0       10.985456    1.622700    4.050929
     94          1           0       10.157633    0.041565    4.495033
     95          1           0        8.701201   -4.593454    1.921778
     96          1           0        8.404694   -5.303642    0.388152
     97          1           0        7.323802   -5.702932    1.619610
     98          1           0        2.639702   -3.576405    0.749325
     99          1           0        1.141151   -4.299672   -3.144174
    100          1           0        0.445514   -5.745271   -2.405856
    101          1           0        2.072320   -5.795280   -3.130598
    102          1           0       -3.469990   -2.719540    2.319134
    103          1           0       -3.849023   -3.790784    0.925596
    104          1           0       -3.948630   -0.801977    0.396815
    105          1           0       -7.197259   -3.132524    1.203353
    106          1           0       -5.874715   -4.035012    0.442438
    107          1           0       -7.151670   -3.371074   -0.509431
    108          1           0       -6.819551   -0.845810   -1.305408
    109          1           0       -5.729145    0.150845   -0.557766
    110          1           0       -7.552995    1.022829    0.744949
    111          1           0       -7.564349   -0.520066    1.592395
    112          1           0       -9.684882   -0.604348    0.828048
    113          1           0       -8.846250   -1.473389   -0.475456
    114          1           0       -8.583604    0.911127   -1.473273
    115          1           0       -9.289863    2.501223   -0.015169
    116          1           0      -10.501516    1.537116    0.608090
    117          1           0      -10.770015    2.201392   -1.057102
    118          1           0       -9.908908   -1.080060   -2.368508
    119          1           0      -10.491000    0.487759   -2.810519
    120          1           0      -11.837148   -0.242855   -0.271225
    121          1           0      -11.895888   -1.690526   -1.345988
    122          1           0      -13.109447   -0.694198   -2.890245
    123          1           0      -12.711989    0.992925   -2.439336
    124          1           0      -14.164292   -0.677407   -0.466716
    125          1           0      -16.084253   -1.099405   -1.538582
    126          1           0      -15.155643   -1.079569   -3.076445
    127          1           0      -16.127878    0.227216   -2.595918
    128          1           0      -14.981103    2.036143   -1.750546
    129          1           0      -13.603750    1.968024   -0.618730
    130          1           0      -16.377771    0.790153    0.091245
    131          1           0      -16.161492    2.476313    0.060896
    132          1           0      -13.953275    1.287654    1.593458
    133          1           0      -15.494068    0.579687    2.107935
    134          1           0      -15.495967    3.625513    1.921715
    135          1           0      -16.223016    2.265718    4.387808
    136          1           0      -17.113113    1.835723    3.056849
    137          1           0      -17.028304    3.622545    3.485466
    138          1           0      -13.195066    3.240414    2.674457
    139          1           0      -13.730660    2.073175    3.843863
    140          1           0      -14.095560    3.771842    4.007373
 ---------------------------------------------------------------------

 SCF Done:  E(RwB97XD) =  -3007.91251763     A.U. after   19 cycles

 Excitation energies and oscillator strengths:

 Excited State   1:      Singlet-A      1.6309 eV  760.21 nm  f=0.3905  <S**2>=0.000
     245 -> 248        0.15804
     246 -> 247        0.68874
     245 <- 248        0.10856
 This state for optimization and/or second-order correction.
 Total Energy, E(TD-HF/TD-DFT) =  -3007.85258277
 Copying the excited state density for this state as the 1-particle RhoCI density.

 Excited State   2:      Singlet-A      2.1575 eV  574.67 nm  f=0.1430  <S**2>=0.000
     245 -> 247        0.65130
     246 -> 248       -0.24978

 Excited State   3:      Singlet-A      3.2984 eV  375.89 nm  f=0.0025  <S**2>=0.000
     240 -> 247        0.15429
     241 -> 247        0.42305
     241 -> 248       -0.10150
     241 -> 249        0.22709
     241 -> 250        0.10705
     242 -> 247        0.35423
     242 -> 249        0.19706

 Excited State   4:      Singlet-A      3.3620 eV  368.78 nm  f=0.0131  <S**2>=0.000
     239 -> 247        0.12118
     240 -> 247       -0.19159
     241 -> 247       -0.32377
     242 -> 247        0.41429
     244 -> 247       -0.33865
     246 -> 248        0.17381

 Excited State   5:      Singlet-A      3.5448 eV  349.77 nm  f=0.0153  <S**2>=0.000
     239 -> 247        0.16845
     241 -> 247       -0.15447
     242 -> 247        0.13268
     243 -> 247       -0.12902
     244 -> 247        0.57353
     246 -> 248        0.22922

 The electronic state is 1-A.
 Alpha  occ. eigenvalues --  -46.93631 -19.30989 -19.29822 -19.24984 -19.23591
 Alpha  occ. eigenvalues --  -19.23485 -19.23067 -14.47069 -14.46708 -14.44680
 Alpha  occ. eigenvalues --  -14.43386 -10.43042 -10.42339 -10.38815 -10.38106
 Alpha  occ. eigenvalues --  -10.35997 -10.35901 -10.35409 -10.35277 -10.34814
 Alpha  occ. eigenvalues --  -10.34594 -10.34592 -10.34068 -10.33670 -10.32783
 Alpha  occ. eigenvalues --  -10.32590 -10.32288 -10.32045 -10.31919 -10.31842
 Alpha  occ. eigenvalues --  -10.31827 -10.31659 -10.31643 -10.31607 -10.31538
 Alpha  occ. eigenvalues --  -10.31517 -10.31503 -10.31166 -10.31164 -10.30329
 Alpha  occ. eigenvalues --  -10.30204 -10.30159 -10.30074 -10.30067 -10.30059
 Alpha  occ. eigenvalues --  -10.29813 -10.29701 -10.29643 -10.29580 -10.29520
 Alpha  occ. eigenvalues --  -10.29354 -10.29346 -10.29130 -10.29006 -10.28924
 Alpha  occ. eigenvalues --  -10.28788 -10.28726 -10.28651 -10.28639 -10.28223
 Alpha  occ. eigenvalues --  -10.28124 -10.28079 -10.27970 -10.27951 -10.27883
 Alpha  occ. eigenvalues --  -10.27587  -3.19830  -1.93430  -1.92978  -1.92813
 Alpha  occ. eigenvalues --   -1.20865  -1.19410  -1.11523  -1.11398  -1.11259
 Alpha  occ. eigenvalues --   -1.07972  -1.07073  -1.05244  -1.04683  -1.03341
 Alpha  occ. eigenvalues --   -0.94902  -0.92830  -0.91667  -0.91100  -0.91080
 Alpha  occ. eigenvalues --   -0.90712  -0.90406  -0.89484  -0.89433  -0.89261
 Alpha  occ. eigenvalues --   -0.87726  -0.87080  -0.86056  -0.85861  -0.85192
 Alpha  occ. eigenvalues --   -0.84230  -0.83569  -0.82977  -0.82669  -0.81774
 Alpha  occ. eigenvalues --   -0.81310  -0.80475  -0.79662  -0.79555  -0.78286
 Alpha  occ. eigenvalues --   -0.77841  -0.77545  -0.77151  -0.76901  -0.76197
 Alpha  occ. eigenvalues --   -0.75414  -0.75010  -0.73784  -0.72420  -0.71981
 Alpha  occ. eigenvalues --   -0.71144  -0.70750  -0.69865  -0.68770  -0.67245
 Alpha  occ. eigenvalues --   -0.67145  -0.66796  -0.66478  -0.66207  -0.65531
 Alpha  occ. eigenvalues --   -0.65427  -0.64392  -0.63771  -0.63532  -0.62339
 Alpha  occ. eigenvalues --   -0.61933  -0.61419  -0.61062  -0.60663  -0.60420
 Alpha  occ. eigenvalues --   -0.59515  -0.59337  -0.58097  -0.57709  -0.57491
 Alpha  occ. eigenvalues --   -0.57244  -0.57110  -0.56886  -0.56384  -0.56060
 Alpha  occ. eigenvalues --   -0.55868  -0.55484  -0.55289  -0.55151  -0.55008
 Alpha  occ. eigenvalues --   -0.54754  -0.54234  -0.54020  -0.53903  -0.53810
 Alpha  occ. eigenvalues --   -0.53455  -0.52987  -0.52586  -0.52393  -0.52128
 Alpha  occ. eigenvalues --   -0.52039  -0.51905  -0.51690  -0.51603  -0.51371
 Alpha  occ. eigenvalues --   -0.51090  -0.50994  -0.50868  -0.50721  -0.50620
 Alpha  occ. eigenvalues --   -0.50303  -0.50051  -0.49899  -0.49866  -0.49738
 Alpha  occ. eigenvalues --   -0.49479  -0.49044  -0.48671  -0.48456  -0.48399
 Alpha  occ. eigenvalues --   -0.48250  -0.47787  -0.47649  -0.47592  -0.47513
 Alpha  occ. eigenvalues --   -0.47282  -0.47169  -0.47052  -0.46903  -0.46864
 Alpha  occ. eigenvalues --   -0.46582  -0.46472  -0.46224  -0.46185  -0.46073
 Alpha  occ. eigenvalues --   -0.45966  -0.45734  -0.45571  -0.45346  -0.45278
 Alpha  occ. eigenvalues --   -0.44879  -0.44518  -0.44460  -0.44409  -0.44147
 Alpha  occ. eigenvalues --   -0.44021  -0.43553  -0.43446  -0.43257  -0.43118
 Alpha  occ. eigenvalues --   -0.43054  -0.42884  -0.42426  -0.42390  -0.41997
 Alpha  occ. eigenvalues --   -0.41833  -0.41557  -0.41104  -0.40815  -0.40773
 Alpha  occ. eigenvalues --   -0.40485  -0.40168  -0.39906  -0.39617  -0.39203
 Alpha  occ. eigenvalues --   -0.39164  -0.38808  -0.38728  -0.38670  -0.38205
 Alpha  occ. eigenvalues --   -0.38052  -0.37919  -0.36744  -0.36417  -0.35730
 Alpha  occ. eigenvalues --   -0.35566  -0.35558  -0.35308  -0.33741  -0.32648
 Alpha  occ. eigenvalues --   -0.32624  -0.32552  -0.32023  -0.31498  -0.26185
 Alpha  occ. eigenvalues --   -0.23081
 Alpha virt. eigenvalues --   -0.07399   0.00752   0.02360   0.04222   0.06628
 Alpha virt. eigenvalues --    0.07842   0.07863   0.08108   0.09183   0.09299
 Alpha virt. eigenvalues --    0.10959   0.11408   0.11591   0.11894   0.12509

 Mulliken charges:
               1
     1  Mg   0.993272
     2  C   -0.079878
     3  C   -0.082140
     4  C   -0.106177
     5  C   -0.116357
     6  N   -0.384194
     7  C    0.022719
     8  C   -0.065490
     9  C   -0.129058
    10  C    0.039337
    11  C    0.015415
    12  C    0.076604
    13  C   -0.072475
    14  C    0.196467
    15  O   -0.247121
    16  O   -0.334654
    17  N   -0.467125
    18  C    0.209325
    19  C   -0.197426
    20  C   -0.006422
    21  C    0.177398
    22  C    0.085784
    23  C   -0.021891
    24  O   -0.254857
    25  C   -0.010934
    26  N   -0.388831
    27  C    0.085698
    28  C   -0.085926
    29  C   -0.046282
    30  C    0.085752
    31  C    0.048454
    32  C   -0.066572
    33  C   -0.022062
    34  N   -0.471799
    35  C    0.151954
    36  C   -0.163732
    37  C   -0.015987
    38  C    0.174706
    39  C    0.083673
    40  C    0.072900
    41  O   -0.205732
    42  C   -0.053593
    43  C    0.258969
    44  O   -0.291428
    45  O   -0.316249
    46  C    0.147446
    47  C    0.263757
    48  C   -0.148187
    49  C   -0.175326
    50  C    0.033167
    51  C    0.022916
    52  C   -0.020764
    53  C    0.033553
    54  C   -0.211176
    55  C    0.002945
    56  C    0.023402
    57  C   -0.051073
    58  C    0.001775
    59  C   -0.189848
    60  C   -0.003459
    61  C    0.019797
    62  C   -0.008160
    63  C    0.018060
    64  C   -0.209896
    65  C    0.016065
    66  C   -0.029940
    67  H    0.006555
    68  H    0.020724
    69  H   -0.010192
    70  H    0.031014
    71  H    0.036920
    72  H    0.047357
    73  H    0.049519
    74  H    0.044184
    75  H    0.037966
    76  H    0.047114
    77  H    0.064287
    78  H    0.061344
    79  H    0.060775
    80  H    0.069801
    81  H    0.042384
    82  H    0.057099
    83  H    0.050904
    84  H    0.046759
    85  H    0.044696
    86  H    0.023039
    87  H    0.042630
    88  H    0.045453
    89  H    0.039533
    90  H    0.022488
    91  H    0.014407
    92  H    0.039943
    93  H    0.039227
    94  H    0.058083
    95  H    0.026789
    96  H    0.043662
    97  H    0.054583
    98  H    0.074819
    99  H    0.047817
   100  H    0.051048
   101  H    0.055986
   102  H    0.071586
   103  H    0.032344
   104  H    0.027075
   105  H    0.049665
   106  H    0.023210
   107  H    0.040701
   108  H    0.023103
   109  H    0.010775
   110  H    0.026717
   111  H    0.024333
   112  H    0.013704
   113  H    0.008392
   114  H    0.011178
   115  H    0.029817
   116  H    0.012888
   117  H    0.044130
   118  H    0.012917
   119  H    0.019607
   120  H    0.024987
   121  H    0.028959
   122  H    0.002856
   123  H    0.015058
   124  H    0.020763
   125  H    0.026237
   126  H    0.030507
   127  H    0.019310
   128  H    0.021311
   129  H    0.023357
   130  H    0.008165
   131  H    0.012701
   132  H    0.017070
   133  H    0.015653
   134  H    0.020740
   135  H    0.015409
   136  H    0.009023
   137  H    0.044741
   138  H    0.020170
   139  H    0.023522
   140  H    0.019511
 Sum of Mulliken charges =  -0.00000

 Dipole moment (field-independent basis, Debye):
    X=             -2.6836    Y=              3.2345    Z=             -1.0686  Tot=              4.3365
 Quadrupole moment (field-independent basis, Debye-Ang):
   XX=           -365.9527   YY=           -413.7622   ZZ=           -404.4778
   XY=             12.4280   XZ=             15.6897   YZ=             -9.8080

 Normal termination of Gaussian 16 at Thu Apr 28 19:27:12 2022.
