 Gaussian 16, Revision A.03,
 Gaussian 16:  ES64L-G16RevA.03 25-Dec-2016

 --------------------
 #p ZINDO=(nstates=5)
 --------------------

 ------------------------------
 step_1701_chromophore_16 ZINDO
 ------------------------------
 Symbolic Z-matrix:
 Charge =  0 Multiplicity = 1

                         Standard orientation:
 ---------------------------------------------------------------------
 Center     Atomic      Atomic             Coordinates (Angstroms)
 Number     Number       Type             X           Y           Z
 ---------------------------------------------------------------------
      1         12           0        6.215852    0.505146    0.184362
      2          6           0        3.960081   -2.158490   -0.073450
      3          6           0        3.622329    2.695705   -0.947818
      4          6           0        8.464249    2.878891   -0.104091
      5          6           0        8.758275   -1.703641    0.949735
      6          7           0        4.094689    0.274894   -0.324928
      7          6           0        3.383069   -0.929365   -0.396131
      8          6           0        1.931566   -0.626408   -0.680411
      9          6           0        1.866717    0.825947   -1.291405
     10          6           0        3.276324    1.336018   -0.755667
     11          6           0        1.793568    0.879301   -2.858012
     12          6           0        1.081338   -0.920114    0.599986
     13          6           0       -0.030554   -1.970925    0.321722
     14          6           0       -1.379471   -1.926862    1.156883
     15          8           0       -1.650024   -1.145424    2.030380
     16          8           0       -2.217543   -2.801926    0.587639
     17          7           0        6.036336    2.530041   -0.367683
     18          6           0        4.915655    3.251950   -0.721712
     19          6           0        5.310450    4.630336   -0.938841
     20          6           0        6.694612    4.743329   -0.650943
     21          6           0        7.163321    3.347895   -0.344315
     22          6           0        4.326780    5.780031   -1.302922
     23          6           0        7.559992    5.888162   -0.635161
     24          8           0        8.763151    5.825533   -0.346225
     25          6           0        7.070038    7.331463   -1.055469
     26          7           0        8.199301    0.649674    0.652575
     27          6           0        8.974711    1.662455    0.315487
     28          6           0       10.438851    1.502844    0.356913
     29          6           0       10.538494    0.067295    1.036601
     30          6           0        9.123152   -0.397793    0.851829
     31          6           0       11.311063    1.761642   -0.890182
     32          6           0       11.041978    0.173376    2.508057
     33          6           0       10.334390    0.806355    3.739034
     34          7           0        6.430275   -1.482025    0.387958
     35          6           0        7.498152   -2.267476    0.739967
     36          6           0        7.102050   -3.632103    0.843174
     37          6           0        5.739063   -3.614183    0.463437
     38          6           0        5.345657   -2.273803    0.228535
     39          6           0        7.891709   -4.854096    1.239215
     40          6           0        4.620478   -4.458446    0.262232
     41          8           0        4.500045   -5.673467    0.238942
     42          6           0        3.374415   -3.513901   -0.053295
     43          6           0        2.901930   -3.882407   -1.403871
     44          8           0        3.289376   -3.520095   -2.531261
     45          8           0        2.016854   -4.862779   -1.291647
     46          6           0        1.370672   -5.189257   -2.557978
     47          6           0       -3.498873   -2.805590    1.233273
     48          6           0       -4.417962   -1.762478    0.607195
     49          6           0       -5.701251   -1.897250    0.253212
     50          6           0       -6.516908   -3.158885    0.351368
     51          6           0       -6.436504   -0.639432   -0.305680
     52          6           0       -7.608642   -0.057057    0.606988
     53          6           0       -8.961194   -0.508129    0.017960
     54          6           0       -9.424090    0.486546   -0.924685
     55          6           0      -10.047646    1.793170   -0.349874
     56          6           0      -10.377709   -0.184810   -1.960360
     57          6           0      -11.726367   -0.615357   -1.289792
     58          6           0      -12.950697   -0.001777   -2.063025
     59          6           0      -14.296997    0.018137   -1.294961
     60          6           0      -15.437300   -0.511522   -2.190216
     61          6           0      -14.536733    1.492466   -0.917384
     62          6           0      -15.599544    1.548130    0.166798
     63          6           0      -15.034101    1.425308    1.596404
     64          6           0      -15.301216    2.705523    2.473801
     65          6           0      -16.507665    2.667820    3.415218
     66          6           0      -14.050004    2.953877    3.287109
     67          1           0        2.780223    3.196390   -1.430805
     68          1           0        9.256167    3.600924   -0.311475
     69          1           0        9.587343   -2.354453    1.235773
     70          1           0        1.640391   -1.248693   -1.526951
     71          1           0        1.024448    1.347846   -0.837127
     72          1           0        1.548741   -0.083533   -3.305821
     73          1           0        2.803438    1.104504   -3.199374
     74          1           0        1.086980    1.601055   -3.267346
     75          1           0        0.620079    0.005319    0.945253
     76          1           0        1.735162   -1.211393    1.421773
     77          1           0        0.375973   -2.957190    0.545127
     78          1           0       -0.482083   -1.962436   -0.670616
     79          1           0        4.716713    5.987986   -2.299274
     80          1           0        4.401926    6.563715   -0.549666
     81          1           0        3.306816    5.408897   -1.405848
     82          1           0        7.956206    7.964634   -1.016603
     83          1           0        6.280257    7.675106   -0.386334
     84          1           0        6.707507    7.263182   -2.081090
     85          1           0       10.755527    2.211648    1.121739
     86          1           0       11.279344   -0.566062    0.547036
     87          1           0       12.308561    2.141562   -0.669022
     88          1           0       10.804643    2.509666   -1.499358
     89          1           0       11.444216    0.805324   -1.395824
     90          1           0       12.070242    0.519097    2.400025
     91          1           0       11.256774   -0.835615    2.857714
     92          1           0        9.444495    1.319016    3.371041
     93          1           0       10.985456    1.622700    4.050929
     94          1           0       10.157633    0.041565    4.495033
     95          1           0        8.701201   -4.593454    1.921778
     96          1           0        8.404694   -5.303642    0.388152
     97          1           0        7.323802   -5.702932    1.619610
     98          1           0        2.639702   -3.576405    0.749325
     99          1           0        1.141151   -4.299672   -3.144174
    100          1           0        0.445514   -5.745271   -2.405856
    101          1           0        2.072320   -5.795280   -3.130598
    102          1           0       -3.469990   -2.719540    2.319134
    103          1           0       -3.849023   -3.790784    0.925596
    104          1           0       -3.948630   -0.801977    0.396815
    105          1           0       -7.197259   -3.132524    1.203353
    106          1           0       -5.874715   -4.035012    0.442438
    107          1           0       -7.151670   -3.371074   -0.509431
    108          1           0       -6.819551   -0.845810   -1.305408
    109          1           0       -5.729145    0.150845   -0.557766
    110          1           0       -7.552995    1.022829    0.744949
    111          1           0       -7.564349   -0.520066    1.592395
    112          1           0       -9.684882   -0.604348    0.828048
    113          1           0       -8.846250   -1.473389   -0.475456
    114          1           0       -8.583604    0.911127   -1.473273
    115          1           0       -9.289863    2.501223   -0.015169
    116          1           0      -10.501516    1.537116    0.608090
    117          1           0      -10.770015    2.201392   -1.057102
    118          1           0       -9.908908   -1.080060   -2.368508
    119          1           0      -10.491000    0.487759   -2.810519
    120          1           0      -11.837148   -0.242855   -0.271225
    121          1           0      -11.895888   -1.690526   -1.345988
    122          1           0      -13.109447   -0.694198   -2.890245
    123          1           0      -12.711989    0.992925   -2.439336
    124          1           0      -14.164292   -0.677407   -0.466716
    125          1           0      -16.084253   -1.099405   -1.538582
    126          1           0      -15.155643   -1.079569   -3.076445
    127          1           0      -16.127878    0.227216   -2.595918
    128          1           0      -14.981103    2.036143   -1.750546
    129          1           0      -13.603750    1.968024   -0.618730
    130          1           0      -16.377771    0.790153    0.091245
    131          1           0      -16.161492    2.476313    0.060896
    132          1           0      -13.953275    1.287654    1.593458
    133          1           0      -15.494068    0.579687    2.107935
    134          1           0      -15.495967    3.625513    1.921715
    135          1           0      -16.223016    2.265718    4.387808
    136          1           0      -17.113113    1.835723    3.056849
    137          1           0      -17.028304    3.622545    3.485466
    138          1           0      -13.195066    3.240414    2.674457
    139          1           0      -13.730660    2.073175    3.843863
    140          1           0      -14.095560    3.771842    4.007373
 ---------------------------------------------------------------------

 SCF Done:  E(RZINDO/S) =  -474.545034353     A.U. after   19 cycles

 Excitation energies and oscillator strengths:

 Excited State   1:      Singlet-A      1.2370 eV 1002.27 nm  f=0.5528  <S**2>=0.000
     175 ->178         0.14715
     176 ->177         0.67483
 This state for optimization and/or second-order correction.
 Total Energy, E(CIS/TDA) =  -474.499574173
 Copying the excited state density for this state as the 1-particle RhoCI density.

 Excited State   2:      Singlet-A      1.9368 eV  640.15 nm  f=0.0914  <S**2>=0.000
     175 ->177         0.57404
     176 ->178        -0.37045

 Excited State   3:      Singlet-A      2.7629 eV  448.75 nm  f=0.0083  <S**2>=0.000
     168 ->177         0.37611
     168 ->178        -0.12252
     168 ->179        -0.41328
     168 ->180         0.16782
     168 ->185        -0.19927
     169 ->177         0.10375
     169 ->179        -0.10286

 Excited State   4:      Singlet-A      2.9995 eV  413.34 nm  f=0.4544  <S**2>=0.000
     170 ->177         0.10661
     171 ->177        -0.16914
     171 ->179        -0.15256
     171 ->180        -0.23034
     175 ->177         0.24331
     176 ->178         0.39512
     176 ->179        -0.22104
     176 ->180        -0.20642

 Excited State   5:      Singlet-A      3.0347 eV  408.56 nm  f=0.3590  <S**2>=0.000
     170 ->177         0.12859
     171 ->177         0.23129
     171 ->178        -0.10923
     171 ->179         0.20979
     171 ->180         0.31913
     171 ->185         0.10063
     171 ->189         0.12740
     171 ->204        -0.10837
     175 ->177         0.20709
     176 ->178         0.35401

 The electronic state is 1-A.
 Alpha  occ. eigenvalues --   -1.85351  -1.82791  -1.78930  -1.77154  -1.75440
 Alpha  occ. eigenvalues --   -1.70235  -1.67886  -1.63229  -1.59141  -1.58861
 Alpha  occ. eigenvalues --   -1.55463  -1.51077  -1.48181  -1.47920  -1.46462
 Alpha  occ. eigenvalues --   -1.43274  -1.41830  -1.40154  -1.39208  -1.38457
 Alpha  occ. eigenvalues --   -1.36109  -1.32546  -1.31834  -1.31310  -1.30026
 Alpha  occ. eigenvalues --   -1.25507  -1.25205  -1.20951  -1.20047  -1.17831
 Alpha  occ. eigenvalues --   -1.17007  -1.16780  -1.15875  -1.14865  -1.14181
 Alpha  occ. eigenvalues --   -1.13184  -1.11628  -1.11076  -1.06214  -1.04030
 Alpha  occ. eigenvalues --   -1.02553  -1.02189  -1.00747  -0.98686  -0.97715
 Alpha  occ. eigenvalues --   -0.96932  -0.94487  -0.93294  -0.92902  -0.92345
 Alpha  occ. eigenvalues --   -0.90615  -0.90090  -0.87830  -0.87605  -0.85214
 Alpha  occ. eigenvalues --   -0.84856  -0.83193  -0.82332  -0.81598  -0.79837
 Alpha  occ. eigenvalues --   -0.79302  -0.78815  -0.78031  -0.77385  -0.77093
 Alpha  occ. eigenvalues --   -0.76518  -0.75288  -0.74909  -0.74835  -0.74261
 Alpha  occ. eigenvalues --   -0.73732  -0.73040  -0.71780  -0.71582  -0.70686
 Alpha  occ. eigenvalues --   -0.69715  -0.69005  -0.68765  -0.68595  -0.68153
 Alpha  occ. eigenvalues --   -0.68050  -0.67563  -0.66698  -0.66594  -0.65641
 Alpha  occ. eigenvalues --   -0.65573  -0.64575  -0.64194  -0.63845  -0.63228
 Alpha  occ. eigenvalues --   -0.62252  -0.62209  -0.62150  -0.61665  -0.61384
 Alpha  occ. eigenvalues --   -0.61256  -0.61201  -0.60782  -0.60508  -0.59900
 Alpha  occ. eigenvalues --   -0.59653  -0.59326  -0.59067  -0.58763  -0.58227
 Alpha  occ. eigenvalues --   -0.57592  -0.57319  -0.57125  -0.56819  -0.56273
 Alpha  occ. eigenvalues --   -0.56082  -0.55653  -0.55156  -0.54790  -0.54522
 Alpha  occ. eigenvalues --   -0.54339  -0.54180  -0.53414  -0.53022  -0.52857
 Alpha  occ. eigenvalues --   -0.52709  -0.52095  -0.51755  -0.51397  -0.51159
 Alpha  occ. eigenvalues --   -0.51011  -0.50775  -0.50527  -0.50281  -0.50019
 Alpha  occ. eigenvalues --   -0.49815  -0.49564  -0.49461  -0.49443  -0.49256
 Alpha  occ. eigenvalues --   -0.48487  -0.48406  -0.48009  -0.47747  -0.47430
 Alpha  occ. eigenvalues --   -0.47205  -0.47152  -0.47133  -0.46785  -0.46629
 Alpha  occ. eigenvalues --   -0.46541  -0.46464  -0.46384  -0.45395  -0.45301
 Alpha  occ. eigenvalues --   -0.44912  -0.44849  -0.44690  -0.44238  -0.43848
 Alpha  occ. eigenvalues --   -0.43641  -0.43180  -0.42361  -0.42173  -0.41615
 Alpha  occ. eigenvalues --   -0.41595  -0.41145  -0.40792  -0.38864  -0.38681
 Alpha  occ. eigenvalues --   -0.37637  -0.36968  -0.35793  -0.34807  -0.34272
 Alpha  occ. eigenvalues --   -0.33720  -0.32850  -0.32339  -0.31504  -0.26950
 Alpha  occ. eigenvalues --   -0.21976
 Alpha virt. eigenvalues --   -0.08855  -0.01645  -0.00903   0.01023   0.02430
 Alpha virt. eigenvalues --    0.02685   0.03420   0.03550   0.05025   0.05109
 Alpha virt. eigenvalues --    0.06422   0.06739   0.06916   0.07749   0.08420

 Mulliken charges:
               1
     1  Mg   0.424497
     2  C   -0.028463
     3  C   -0.090168
     4  C   -0.075484
     5  C   -0.051913
     6  N   -0.296223
     7  C    0.101298
     8  C    0.001045
     9  C   -0.002634
    10  C    0.154127
    11  C   -0.049232
    12  C   -0.017718
    13  C   -0.005215
    14  C    0.460087
    15  O   -0.515468
    16  O   -0.257449
    17  N   -0.336727
    18  C    0.146101
    19  C    0.033657
    20  C   -0.030461
    21  C    0.150992
    22  C   -0.047717
    23  C    0.318858
    24  O   -0.530789
    25  C   -0.036178
    26  N   -0.264684
    27  C    0.211110
    28  C    0.001795
    29  C    0.007303
    30  C    0.080351
    31  C   -0.044485
    32  C   -0.037933
    33  C   -0.051281
    34  N   -0.310267
    35  C    0.075544
    36  C    0.007283
    37  C   -0.067771
    38  C    0.094706
    39  C   -0.038103
    40  C    0.329577
    41  O   -0.537285
    42  C    0.059702
    43  C    0.495502
    44  O   -0.552693
    45  O   -0.251383
    46  C    0.077134
    47  C    0.107655
    48  C   -0.075118
    49  C   -0.007380
    50  C   -0.039648
    51  C   -0.028347
    52  C   -0.035428
    53  C   -0.019690
    54  C   -0.004626
    55  C   -0.061134
    56  C   -0.037291
    57  C   -0.041019
    58  C   -0.051688
    59  C   -0.009399
    60  C   -0.059599
    61  C   -0.023068
    62  C   -0.037610
    63  C   -0.031450
    64  C   -0.011788
    65  C   -0.059906
    66  C   -0.053779
    67  H    0.037048
    68  H    0.039185
    69  H    0.019247
    70  H    0.028217
    71  H    0.033396
    72  H    0.027166
    73  H    0.025423
    74  H    0.023213
    75  H    0.028181
    76  H    0.033185
    77  H    0.041815
    78  H    0.046914
    79  H    0.040410
    80  H    0.044488
    81  H    0.028618
    82  H    0.042200
    83  H    0.036891
    84  H    0.032945
    85  H    0.033085
    86  H    0.029575
    87  H    0.024982
    88  H    0.029188
    89  H    0.024068
    90  H    0.009604
    91  H    0.004049
    92  H    0.023668
    93  H    0.020795
    94  H    0.036140
    95  H    0.016887
    96  H    0.026984
    97  H    0.035167
    98  H    0.059547
    99  H    0.040656
   100  H    0.026561
   101  H    0.047207
   102  H    0.062439
   103  H    0.025720
   104  H    0.036398
   105  H    0.029723
   106  H    0.018963
   107  H    0.023190
   108  H    0.019377
   109  H    0.014383
   110  H    0.029811
   111  H    0.012654
   112  H    0.013923
   113  H    0.020491
   114  H    0.007794
   115  H    0.018148
   116  H    0.013389
   117  H    0.027695
   118  H    0.011730
   119  H    0.016778
   120  H    0.025191
   121  H    0.022804
   122  H    0.009857
   123  H    0.022512
   124  H    0.028984
   125  H    0.010510
   126  H    0.022337
   127  H    0.015299
   128  H    0.019032
   129  H    0.023930
   130  H    0.018256
   131  H    0.009486
   132  H    0.022059
   133  H    0.020387
   134  H    0.020528
   135  H    0.016015
   136  H    0.012495
   137  H    0.029490
   138  H    0.005061
   139  H    0.015547
   140  H    0.008281
 Sum of Mulliken charges =  -0.00000

 Dipole moment (field-independent basis, Debye):
    X=             -3.9867    Y=              7.4162    Z=             -1.9542  Tot=              8.6437
 N-N= 4.209028161940D+03 E-N= 0.000000000000D+00  KE=-9.092807622513D+03
 Leave Link  601 at Thu Apr 28 19:41:36 2022, MaxMem=  6710886400 cpu:               1.1 elap:               0.1
 (Enter /sw/apps/gaussian-16.0/g16/l9999.exe)
 1\1\GINC-BP1-COMPUTE137\SP\RZINDO CIS\STO-3G\C55H74Mg1N4O6\OF15641\28-
 Apr-2022\0\\#p ZINDO=(nstates=5)\\step_1701_chromophore_16 ZINDO\\0,1\
 Mg,0,40.912,41.566,26.935\C,0,40.19,43.897,29.444\C,0,41.96,39.281,29.
 482\C,0,42.098,39.615,24.577\C,0,40.203,43.928,24.517\N,0,40.955,41.59
 1,29.128\C,0,40.643,42.679,29.953\C,0,40.705,42.236,31.395\C,0,41.577,
 40.923,31.445\C,0,41.432,40.523,29.911\C,0,43.079,41.144,31.842\C,0,39
 .255,42.174,31.98\C,0,39.098,43.095,33.223\C,0,38.051,42.716,34.354\O,

 Normal termination of Gaussian 16 at Thu Apr 28 19:41:36 2022.
