 Gaussian 16, Revision A.03,
 Gaussian 16:  ES64L-G16RevA.03 25-Dec-2016

 ------------------------------
 #p blyp/Def2SVP td=(nstates=5)
 ------------------------------

 ---------------------------------------------------
 step_1151_chromophore_20 TDDFT with blyp functional
 ---------------------------------------------------
 Symbolic Z-matrix:
 Charge =  0 Multiplicity = 1

                         Standard orientation:
 ---------------------------------------------------------------------
 Center     Atomic      Atomic             Coordinates (Angstroms)
 Number     Number       Type             X           Y           Z
 ---------------------------------------------------------------------
      1         12           0        4.478976    1.242949   -0.570786
      2          6           0        3.899948   -2.199921   -1.075492
      3          6           0        1.869058    1.828393   -2.900332
      4          6           0        4.472043    4.363051    0.328313
      5          6           0        6.589322    0.314468    2.092985
      6          7           0        3.028309   -0.011386   -1.717473
      7          6           0        3.028820   -1.418373   -1.823946
      8          6           0        2.015099   -1.887545   -2.926381
      9          6           0        1.835464   -0.634114   -3.774949
     10          6           0        2.319603    0.482279   -2.749674
     11          6           0        2.676673   -0.570154   -5.098408
     12          6           0        0.657260   -2.291482   -2.312521
     13          6           0       -0.082939   -3.531426   -2.978724
     14          6           0       -1.139683   -4.323560   -2.240632
     15          8           0       -2.050422   -4.828705   -2.854839
     16          8           0       -0.987491   -4.401578   -0.902075
     17          7           0        3.264500    2.856379   -1.142353
     18          6           0        2.360780    2.944764   -2.171716
     19          6           0        1.794486    4.338739   -2.212390
     20          6           0        2.555960    5.072995   -1.293463
     21          6           0        3.501990    4.086824   -0.678099
     22          6           0        0.772598    4.747414   -3.200109
     23          6           0        2.480387    6.554726   -1.086845
     24          8           0        1.642921    7.295079   -1.629990
     25          6           0        3.481496    7.251735   -0.119674
     26          7           0        5.332159    2.181083    0.968840
     27          6           0        5.354346    3.567916    0.991535
     28          6           0        6.316158    4.120362    2.083579
     29          6           0        6.875584    2.837576    2.765108
     30          6           0        6.175847    1.655736    1.927897
     31          6           0        7.347965    5.097205    1.437677
     32          6           0        6.460241    2.730615    4.279342
     33          6           0        7.480775    2.304787    5.334418
     34          7           0        5.112268   -0.579037    0.351757
     35          6           0        6.058481   -0.766414    1.285146
     36          6           0        6.419716   -2.142479    1.395561
     37          6           0        5.529485   -2.751383    0.507349
     38          6           0        4.718371   -1.732741   -0.032675
     39          6           0        7.495832   -2.722289    2.289435
     40          6           0        5.112132   -4.041147    0.049315
     41          8           0        5.565672   -5.134545    0.309820
     42          6           0        4.025854   -3.667496   -1.030525
     43          6           0        2.816873   -4.346203   -0.559897
     44          8           0        2.276660   -4.204013    0.567793
     45          8           0        2.340967   -5.230689   -1.460210
     46          6           0        1.658121   -6.402451   -0.944094
     47          6           0       -2.000831   -5.242036   -0.174571
     48          6           0       -3.293844   -4.499572    0.041961
     49          6           0       -4.383788   -4.889953    0.805758
     50          6           0       -4.440042   -6.203231    1.638620
     51          6           0       -5.574966   -3.979598    0.976857
     52          6           0       -5.272681   -2.760157    1.836498
     53          6           0       -6.221846   -2.704119    3.023729
     54          6           0       -6.404861   -1.299575    3.627865
     55          6           0       -6.557355   -1.484966    5.174621
     56          6           0       -7.474536   -0.457150    2.903839
     57          6           0       -7.178514    0.961040    2.495169
     58          6           0       -6.916570    1.016375    0.967600
     59          6           0       -8.263980    1.251563    0.144769
     60          6           0       -8.223118    0.774643   -1.338933
     61          6           0       -8.684483    2.720991    0.378734
     62          6           0      -10.061632    2.828642    0.891865
     63          6           0      -10.788710    3.990642    0.195046
     64          6           0      -11.890029    3.456065   -0.831115
     65          6           0      -11.520231    3.738186   -2.362632
     66          6           0      -13.217582    4.073897   -0.396173
     67          1           0        1.146095    2.055241   -3.686811
     68          1           0        4.780526    5.399812    0.475833
     69          1           0        7.398590   -0.018886    2.746248
     70          1           0        2.380554   -2.722804   -3.523241
     71          1           0        0.816069   -0.275854   -3.919641
     72          1           0        3.431487    0.162489   -4.811856
     73          1           0        2.199093   -0.303742   -6.041443
     74          1           0        3.244710   -1.480817   -5.287189
     75          1           0        0.003399   -1.421972   -2.388615
     76          1           0        0.777027   -2.187789   -1.233344
     77          1           0        0.590773   -4.176201   -3.544172
     78          1           0       -0.684547   -2.974995   -3.697404
     79          1           0        1.003446    5.716044   -3.645028
     80          1           0       -0.276817    4.618738   -2.933827
     81          1           0        0.958160    4.112836   -4.066106
     82          1           0        4.458873    7.069968   -0.568278
     83          1           0        3.475384    6.802369    0.873717
     84          1           0        3.260060    8.312026   -0.005408
     85          1           0        5.727270    4.678568    2.810718
     86          1           0        7.947327    2.641340    2.745230
     87          1           0        7.333834    5.200344    0.352857
     88          1           0        8.358147    4.747965    1.652759
     89          1           0        7.266478    6.117575    1.812002
     90          1           0        5.632355    2.032203    4.398216
     91          1           0        6.059205    3.716674    4.515355
     92          1           0        7.580443    3.037706    6.134455
     93          1           0        8.485302    2.069112    4.982197
     94          1           0        7.143018    1.388442    5.818651
     95          1           0        7.895839   -3.452750    1.585985
     96          1           0        6.824428   -2.979450    3.108889
     97          1           0        8.297528   -2.063496    2.620611
     98          1           0        4.351593   -4.128494   -1.962897
     99          1           0        2.230415   -6.922298   -0.175932
    100          1           0        1.425027   -7.137131   -1.714658
    101          1           0        0.872776   -6.046261   -0.276537
    102          1           0       -1.560886   -5.565928    0.769327
    103          1           0       -2.196811   -6.170227   -0.712228
    104          1           0       -3.501860   -3.687411   -0.654858
    105          1           0       -3.497707   -6.750787    1.610807
    106          1           0       -5.255368   -6.767433    1.185839
    107          1           0       -4.642541   -6.061057    2.699962
    108          1           0       -6.398191   -4.549902    1.408822
    109          1           0       -5.861717   -3.710826   -0.039997
    110          1           0       -5.352545   -1.853539    1.236280
    111          1           0       -4.212487   -2.856464    2.069742
    112          1           0       -5.784984   -3.365452    3.771665
    113          1           0       -7.214869   -3.081566    2.779774
    114          1           0       -5.486140   -0.774040    3.364797
    115          1           0       -7.166115   -0.664577    5.554182
    116          1           0       -5.607584   -1.401838    5.703832
    117          1           0       -6.968627   -2.444275    5.486986
    118          1           0       -8.361599   -0.399885    3.535226
    119          1           0       -7.775299   -1.022067    2.022155
    120          1           0       -6.330902    1.273368    3.106216
    121          1           0       -8.058584    1.525791    2.801014
    122          1           0       -6.457280    0.109232    0.575456
    123          1           0       -6.290398    1.906071    0.910753
    124          1           0       -9.076392    0.618100    0.500918
    125          1           0       -8.676218   -0.216965   -1.342864
    126          1           0       -7.161534    0.696068   -1.573570
    127          1           0       -8.803962    1.508450   -1.896491
    128          1           0       -8.572751    3.276162   -0.553701
    129          1           0       -8.004260    3.347197    0.957227
    130          1           0       -9.963713    3.005401    1.962441
    131          1           0      -10.616477    1.891558    0.860000
    132          1           0      -10.084087    4.684850   -0.264314
    133          1           0      -11.216699    4.625445    0.970936
    134          1           0      -11.985020    2.374555   -0.923519
    135          1           0      -11.859560    4.717127   -2.700496
    136          1           0      -11.947467    2.974167   -3.011221
    137          1           0      -10.433132    3.726493   -2.437689
    138          1           0      -14.000303    3.319899   -0.481752
    139          1           0      -13.459129    4.922154   -1.036372
    140          1           0      -13.152765    4.274040    0.673680
 ---------------------------------------------------------------------

 SCF Done:  E(RB-LYP) =  -3007.32760955     A.U. after   20 cycles

 Excitation energies and oscillator strengths:

 Excited State   1:      Singlet-A      1.7759 eV  698.17 nm  f=0.2620  <S**2>=0.000
     244 -> 247        0.23509
     245 -> 248        0.16156
     246 -> 247        0.65651
     246 <- 247       -0.15105
 This state for optimization and/or second-order correction.
 Total Energy, E(TD-HF/TD-DFT) =  -3007.26234812
 Copying the excited state density for this state as the 1-particle RhoCI density.

 Excited State   2:      Singlet-A      1.8029 eV  687.69 nm  f=0.0378  <S**2>=0.000
     244 -> 247        0.66131
     246 -> 247       -0.23349

 Excited State   3:      Singlet-A      1.9442 eV  637.72 nm  f=0.0001  <S**2>=0.000
     242 -> 247        0.69980
     243 -> 247       -0.10052

 Excited State   4:      Singlet-A      1.9501 eV  635.77 nm  f=0.0002  <S**2>=0.000
     242 -> 247        0.10040
     243 -> 247        0.69952

 Excited State   5:      Singlet-A      2.0809 eV  595.83 nm  f=0.0910  <S**2>=0.000
     245 -> 247        0.63403
     246 -> 248       -0.25613

 The electronic state is 1-A.
 Alpha  occ. eigenvalues --  -46.27634 -18.82020 -18.81805 -18.75974 -18.75723
 Alpha  occ. eigenvalues --  -18.75670 -18.75558 -14.03902 -14.03547 -14.01981
 Alpha  occ. eigenvalues --  -14.00499 -10.03528 -10.03432 -10.00119  -9.99403
 Alpha  occ. eigenvalues --   -9.98114  -9.97270  -9.97056  -9.96992  -9.96943
 Alpha  occ. eigenvalues --   -9.96866  -9.96799  -9.96208  -9.94902  -9.94849
 Alpha  occ. eigenvalues --   -9.94475  -9.94278  -9.94211  -9.94207  -9.93851
 Alpha  occ. eigenvalues --   -9.93580  -9.93536  -9.93521  -9.93450  -9.93399
 Alpha  occ. eigenvalues --   -9.93116  -9.93102  -9.93026  -9.92898  -9.92837
 Alpha  occ. eigenvalues --   -9.92719  -9.92708  -9.92510  -9.92491  -9.92329
 Alpha  occ. eigenvalues --   -9.92139  -9.92066  -9.92065  -9.91956  -9.91581
 Alpha  occ. eigenvalues --   -9.91337  -9.91336  -9.91168  -9.91079  -9.90841
 Alpha  occ. eigenvalues --   -9.90768  -9.90754  -9.90750  -9.90705  -9.90656
 Alpha  occ. eigenvalues --   -9.90628  -9.90352  -9.90293  -9.90228  -9.90023
 Alpha  occ. eigenvalues --   -9.89913  -2.92410  -1.72792  -1.72290  -1.72143
 Alpha  occ. eigenvalues --   -0.97781  -0.97655  -0.91999  -0.90383  -0.89551
 Alpha  occ. eigenvalues --   -0.88634  -0.87711  -0.86638  -0.85521  -0.84900
 Alpha  occ. eigenvalues --   -0.76501  -0.73469  -0.72830  -0.72621  -0.72338
 Alpha  occ. eigenvalues --   -0.72100  -0.71573  -0.71033  -0.70658  -0.70218
 Alpha  occ. eigenvalues --   -0.70073  -0.68825  -0.68020  -0.67762  -0.67346
 Alpha  occ. eigenvalues --   -0.66379  -0.65943  -0.65271  -0.65084  -0.64693
 Alpha  occ. eigenvalues --   -0.63990  -0.62753  -0.62177  -0.62065  -0.61100
 Alpha  occ. eigenvalues --   -0.60453  -0.60029  -0.59938  -0.59343  -0.58371
 Alpha  occ. eigenvalues --   -0.58226  -0.57343  -0.56880  -0.55695  -0.54575
 Alpha  occ. eigenvalues --   -0.54202  -0.53402  -0.53050  -0.51955  -0.51802
 Alpha  occ. eigenvalues --   -0.51735  -0.51321  -0.51280  -0.50569  -0.49935
 Alpha  occ. eigenvalues --   -0.49253  -0.48947  -0.48868  -0.47829  -0.46799
 Alpha  occ. eigenvalues --   -0.46483  -0.46051  -0.45986  -0.45646  -0.44980
 Alpha  occ. eigenvalues --   -0.44208  -0.43382  -0.43104  -0.42446  -0.42004
 Alpha  occ. eigenvalues --   -0.41746  -0.41358  -0.41266  -0.41122  -0.40926
 Alpha  occ. eigenvalues --   -0.40628  -0.40348  -0.40162  -0.40119  -0.39917
 Alpha  occ. eigenvalues --   -0.39657  -0.39472  -0.39412  -0.39225  -0.39134
 Alpha  occ. eigenvalues --   -0.38888  -0.38661  -0.38463  -0.38292  -0.38138
 Alpha  occ. eigenvalues --   -0.37945  -0.37807  -0.37689  -0.37424  -0.37199
 Alpha  occ. eigenvalues --   -0.37151  -0.36716  -0.36453  -0.36416  -0.36277
 Alpha  occ. eigenvalues --   -0.36263  -0.36029  -0.35912  -0.35726  -0.35512
 Alpha  occ. eigenvalues --   -0.35287  -0.35184  -0.35154  -0.35068  -0.34759
 Alpha  occ. eigenvalues --   -0.34751  -0.34569  -0.34464  -0.34241  -0.34002
 Alpha  occ. eigenvalues --   -0.33965  -0.33491  -0.33360  -0.33242  -0.33189
 Alpha  occ. eigenvalues --   -0.33156  -0.33115  -0.32645  -0.32406  -0.32287
 Alpha  occ. eigenvalues --   -0.32205  -0.32069  -0.31659  -0.31457  -0.31199
 Alpha  occ. eigenvalues --   -0.31025  -0.30760  -0.30701  -0.30649  -0.30541
 Alpha  occ. eigenvalues --   -0.30381  -0.30369  -0.30147  -0.30023  -0.29568
 Alpha  occ. eigenvalues --   -0.29545  -0.29382  -0.29194  -0.28996  -0.28947
 Alpha  occ. eigenvalues --   -0.28839  -0.28604  -0.28121  -0.27901  -0.27748
 Alpha  occ. eigenvalues --   -0.27394  -0.27132  -0.26643  -0.26319  -0.26277
 Alpha  occ. eigenvalues --   -0.26117  -0.25700  -0.25244  -0.25130  -0.24881
 Alpha  occ. eigenvalues --   -0.24764  -0.23985  -0.23848  -0.23697  -0.23387
 Alpha  occ. eigenvalues --   -0.22709  -0.22653  -0.21549  -0.21064  -0.20846
 Alpha  occ. eigenvalues --   -0.20765  -0.19052  -0.18981  -0.18448  -0.17923
 Alpha  occ. eigenvalues --   -0.15992
 Alpha virt. eigenvalues --   -0.11907  -0.07137  -0.06309  -0.04763  -0.04266
 Alpha virt. eigenvalues --   -0.02973  -0.02224  -0.02054  -0.01480   0.00135
 Alpha virt. eigenvalues --    0.01026   0.01772   0.02658   0.02868   0.03258

 Mulliken charges:
               1
     1  Mg   0.709321
     2  C    0.009134
     3  C   -0.040991
     4  C   -0.023351
     5  C   -0.066083
     6  N   -0.200318
     7  C   -0.044673
     8  C   -0.007976
     9  C    0.006772
    10  C   -0.014588
    11  C    0.145474
    12  C    0.125166
    13  C    0.145002
    14  C    0.068107
    15  O   -0.192270
    16  O   -0.252881
    17  N   -0.259866
    18  C    0.091256
    19  C   -0.135272
    20  C    0.057486
    21  C    0.134648
    22  C    0.188290
    23  C   -0.097488
    24  O   -0.172680
    25  C    0.131580
    26  N   -0.301109
    27  C   -0.011593
    28  C    0.050775
    29  C    0.001583
    30  C    0.089609
    31  C    0.114563
    32  C    0.078692
    33  C    0.064386
    34  N   -0.151066
    35  C    0.040382
    36  C   -0.193911
    37  C    0.049374
    38  C    0.044850
    39  C    0.171839
    40  C   -0.061995
    41  O   -0.115386
    42  C    0.095716
    43  C    0.099711
    44  O   -0.219268
    45  O   -0.257125
    46  C    0.229701
    47  C    0.305245
    48  C   -0.073457
    49  C   -0.203184
    50  C    0.126644
    51  C    0.146748
    52  C    0.095895
    53  C    0.077519
    54  C   -0.045916
    55  C    0.116030
    56  C    0.079214
    57  C    0.099618
    58  C    0.108456
    59  C   -0.123021
    60  C    0.132339
    61  C    0.102563
    62  C    0.079170
    63  C    0.102357
    64  C   -0.093210
    65  C    0.066478
    66  C    0.121635
    67  H   -0.056459
    68  H   -0.079741
    69  H   -0.063814
    70  H   -0.034092
    71  H   -0.027686
    72  H   -0.016822
    73  H    0.005581
    74  H   -0.015686
    75  H   -0.043947
    76  H   -0.007642
    77  H    0.019590
    78  H   -0.002764
    79  H    0.001678
    80  H    0.016018
    81  H   -0.027347
    82  H    0.013932
    83  H    0.012189
    84  H   -0.011769
    85  H   -0.012561
    86  H   -0.024107
    87  H   -0.002684
    88  H   -0.016372
    89  H   -0.006139
    90  H   -0.009516
    91  H   -0.027515
    92  H   -0.008034
    93  H   -0.013715
    94  H   -0.010267
    95  H    0.028172
    96  H    0.029230
    97  H   -0.009038
    98  H   -0.020320
    99  H   -0.003878
   100  H    0.022433
   101  H    0.011633
   102  H    0.014024
   103  H    0.006879
   104  H   -0.024903
   105  H   -0.022576
   106  H    0.009292
   107  H    0.000268
   108  H   -0.043291
   109  H   -0.021734
   110  H   -0.036127
   111  H   -0.022368
   112  H   -0.038201
   113  H   -0.026655
   114  H   -0.047046
   115  H   -0.028320
   116  H   -0.017879
   117  H   -0.010975
   118  H   -0.053918
   119  H   -0.043964
   120  H   -0.035098
   121  H   -0.033247
   122  H   -0.025533
   123  H   -0.029250
   124  H   -0.036079
   125  H   -0.014105
   126  H   -0.014113
   127  H   -0.009190
   128  H   -0.049817
   129  H   -0.039840
   130  H   -0.038043
   131  H   -0.027498
   132  H   -0.036839
   133  H   -0.045548
   134  H   -0.023348
   135  H   -0.018970
   136  H   -0.010275
   137  H   -0.008284
   138  H   -0.028820
   139  H   -0.008008
   140  H   -0.013791
 Sum of Mulliken charges =  -0.00000

 Dipole moment (field-independent basis, Debye):
    X=              2.9688    Y=              1.4437    Z=              0.4822  Tot=              3.3363
 Quadrupole moment (field-independent basis, Debye-Ang):
   XX=           -369.2079   YY=           -434.5266   ZZ=           -393.3204
   XY=             33.8923   XZ=             -4.6937   YZ=              9.8986

 Normal termination of Gaussian 16 at Wed Apr 27 12:05:27 2022.
