 Gaussian 16, Revision A.03,
 Gaussian 16:  ES64L-G16RevA.03 25-Dec-2016

 -----------------------------------
 #p cam-b3lyp/Def2SVP td=(nstates=5)
 -----------------------------------

 --------------------------------------------------------
 step_1151_chromophore_20 TDDFT with cam-b3lyp functional
 --------------------------------------------------------
 Symbolic Z-matrix:
 Charge =  0 Multiplicity = 1

                         Standard orientation:
 ---------------------------------------------------------------------
 Center     Atomic      Atomic             Coordinates (Angstroms)
 Number     Number       Type             X           Y           Z
 ---------------------------------------------------------------------
      1         12           0        4.478976    1.242949   -0.570786
      2          6           0        3.899948   -2.199921   -1.075492
      3          6           0        1.869058    1.828393   -2.900332
      4          6           0        4.472043    4.363051    0.328313
      5          6           0        6.589322    0.314468    2.092985
      6          7           0        3.028309   -0.011386   -1.717473
      7          6           0        3.028820   -1.418373   -1.823946
      8          6           0        2.015099   -1.887545   -2.926381
      9          6           0        1.835464   -0.634114   -3.774949
     10          6           0        2.319603    0.482279   -2.749674
     11          6           0        2.676673   -0.570154   -5.098408
     12          6           0        0.657260   -2.291482   -2.312521
     13          6           0       -0.082939   -3.531426   -2.978724
     14          6           0       -1.139683   -4.323560   -2.240632
     15          8           0       -2.050422   -4.828705   -2.854839
     16          8           0       -0.987491   -4.401578   -0.902075
     17          7           0        3.264500    2.856379   -1.142353
     18          6           0        2.360780    2.944764   -2.171716
     19          6           0        1.794486    4.338739   -2.212390
     20          6           0        2.555960    5.072995   -1.293463
     21          6           0        3.501990    4.086824   -0.678099
     22          6           0        0.772598    4.747414   -3.200109
     23          6           0        2.480387    6.554726   -1.086845
     24          8           0        1.642921    7.295079   -1.629990
     25          6           0        3.481496    7.251735   -0.119674
     26          7           0        5.332159    2.181083    0.968840
     27          6           0        5.354346    3.567916    0.991535
     28          6           0        6.316158    4.120362    2.083579
     29          6           0        6.875584    2.837576    2.765108
     30          6           0        6.175847    1.655736    1.927897
     31          6           0        7.347965    5.097205    1.437677
     32          6           0        6.460241    2.730615    4.279342
     33          6           0        7.480775    2.304787    5.334418
     34          7           0        5.112268   -0.579037    0.351757
     35          6           0        6.058481   -0.766414    1.285146
     36          6           0        6.419716   -2.142479    1.395561
     37          6           0        5.529485   -2.751383    0.507349
     38          6           0        4.718371   -1.732741   -0.032675
     39          6           0        7.495832   -2.722289    2.289435
     40          6           0        5.112132   -4.041147    0.049315
     41          8           0        5.565672   -5.134545    0.309820
     42          6           0        4.025854   -3.667496   -1.030525
     43          6           0        2.816873   -4.346203   -0.559897
     44          8           0        2.276660   -4.204013    0.567793
     45          8           0        2.340967   -5.230689   -1.460210
     46          6           0        1.658121   -6.402451   -0.944094
     47          6           0       -2.000831   -5.242036   -0.174571
     48          6           0       -3.293844   -4.499572    0.041961
     49          6           0       -4.383788   -4.889953    0.805758
     50          6           0       -4.440042   -6.203231    1.638620
     51          6           0       -5.574966   -3.979598    0.976857
     52          6           0       -5.272681   -2.760157    1.836498
     53          6           0       -6.221846   -2.704119    3.023729
     54          6           0       -6.404861   -1.299575    3.627865
     55          6           0       -6.557355   -1.484966    5.174621
     56          6           0       -7.474536   -0.457150    2.903839
     57          6           0       -7.178514    0.961040    2.495169
     58          6           0       -6.916570    1.016375    0.967600
     59          6           0       -8.263980    1.251563    0.144769
     60          6           0       -8.223118    0.774643   -1.338933
     61          6           0       -8.684483    2.720991    0.378734
     62          6           0      -10.061632    2.828642    0.891865
     63          6           0      -10.788710    3.990642    0.195046
     64          6           0      -11.890029    3.456065   -0.831115
     65          6           0      -11.520231    3.738186   -2.362632
     66          6           0      -13.217582    4.073897   -0.396173
     67          1           0        1.146095    2.055241   -3.686811
     68          1           0        4.780526    5.399812    0.475833
     69          1           0        7.398590   -0.018886    2.746248
     70          1           0        2.380554   -2.722804   -3.523241
     71          1           0        0.816069   -0.275854   -3.919641
     72          1           0        3.431487    0.162489   -4.811856
     73          1           0        2.199093   -0.303742   -6.041443
     74          1           0        3.244710   -1.480817   -5.287189
     75          1           0        0.003399   -1.421972   -2.388615
     76          1           0        0.777027   -2.187789   -1.233344
     77          1           0        0.590773   -4.176201   -3.544172
     78          1           0       -0.684547   -2.974995   -3.697404
     79          1           0        1.003446    5.716044   -3.645028
     80          1           0       -0.276817    4.618738   -2.933827
     81          1           0        0.958160    4.112836   -4.066106
     82          1           0        4.458873    7.069968   -0.568278
     83          1           0        3.475384    6.802369    0.873717
     84          1           0        3.260060    8.312026   -0.005408
     85          1           0        5.727270    4.678568    2.810718
     86          1           0        7.947327    2.641340    2.745230
     87          1           0        7.333834    5.200344    0.352857
     88          1           0        8.358147    4.747965    1.652759
     89          1           0        7.266478    6.117575    1.812002
     90          1           0        5.632355    2.032203    4.398216
     91          1           0        6.059205    3.716674    4.515355
     92          1           0        7.580443    3.037706    6.134455
     93          1           0        8.485302    2.069112    4.982197
     94          1           0        7.143018    1.388442    5.818651
     95          1           0        7.895839   -3.452750    1.585985
     96          1           0        6.824428   -2.979450    3.108889
     97          1           0        8.297528   -2.063496    2.620611
     98          1           0        4.351593   -4.128494   -1.962897
     99          1           0        2.230415   -6.922298   -0.175932
    100          1           0        1.425027   -7.137131   -1.714658
    101          1           0        0.872776   -6.046261   -0.276537
    102          1           0       -1.560886   -5.565928    0.769327
    103          1           0       -2.196811   -6.170227   -0.712228
    104          1           0       -3.501860   -3.687411   -0.654858
    105          1           0       -3.497707   -6.750787    1.610807
    106          1           0       -5.255368   -6.767433    1.185839
    107          1           0       -4.642541   -6.061057    2.699962
    108          1           0       -6.398191   -4.549902    1.408822
    109          1           0       -5.861717   -3.710826   -0.039997
    110          1           0       -5.352545   -1.853539    1.236280
    111          1           0       -4.212487   -2.856464    2.069742
    112          1           0       -5.784984   -3.365452    3.771665
    113          1           0       -7.214869   -3.081566    2.779774
    114          1           0       -5.486140   -0.774040    3.364797
    115          1           0       -7.166115   -0.664577    5.554182
    116          1           0       -5.607584   -1.401838    5.703832
    117          1           0       -6.968627   -2.444275    5.486986
    118          1           0       -8.361599   -0.399885    3.535226
    119          1           0       -7.775299   -1.022067    2.022155
    120          1           0       -6.330902    1.273368    3.106216
    121          1           0       -8.058584    1.525791    2.801014
    122          1           0       -6.457280    0.109232    0.575456
    123          1           0       -6.290398    1.906071    0.910753
    124          1           0       -9.076392    0.618100    0.500918
    125          1           0       -8.676218   -0.216965   -1.342864
    126          1           0       -7.161534    0.696068   -1.573570
    127          1           0       -8.803962    1.508450   -1.896491
    128          1           0       -8.572751    3.276162   -0.553701
    129          1           0       -8.004260    3.347197    0.957227
    130          1           0       -9.963713    3.005401    1.962441
    131          1           0      -10.616477    1.891558    0.860000
    132          1           0      -10.084087    4.684850   -0.264314
    133          1           0      -11.216699    4.625445    0.970936
    134          1           0      -11.985020    2.374555   -0.923519
    135          1           0      -11.859560    4.717127   -2.700496
    136          1           0      -11.947467    2.974167   -3.011221
    137          1           0      -10.433132    3.726493   -2.437689
    138          1           0      -14.000303    3.319899   -0.481752
    139          1           0      -13.459129    4.922154   -1.036372
    140          1           0      -13.152765    4.274040    0.673680
 ---------------------------------------------------------------------

 SCF Done:  E(RCAM-B3LYP) =  -3007.12546176     A.U. after   17 cycles

 Excitation energies and oscillator strengths:

 Excited State   1:      Singlet-A      1.6841 eV  736.21 nm  f=0.3707  <S**2>=0.000
     245 -> 248        0.15719
     246 -> 247        0.69099
     245 <- 248        0.10189
 This state for optimization and/or second-order correction.
 Total Energy, E(TD-HF/TD-DFT) =  -3007.06357281
 Copying the excited state density for this state as the 1-particle RhoCI density.

 Excited State   2:      Singlet-A      2.3073 eV  537.37 nm  f=0.0990  <S**2>=0.000
     245 -> 247        0.62508
     246 -> 248       -0.31591

 Excited State   3:      Singlet-A      3.4596 eV  358.38 nm  f=0.0113  <S**2>=0.000
     241 -> 247        0.51756
     241 -> 248       -0.15026
     241 -> 249       -0.30402
     241 -> 250        0.18037
     241 -> 251        0.15975

 Excited State   4:      Singlet-A      3.4736 eV  356.93 nm  f=0.1457  <S**2>=0.000
     243 -> 247        0.52743
     245 -> 247        0.14724
     246 -> 248        0.36190
     246 -> 249        0.10061
     246 -> 250        0.17179

 Excited State   5:      Singlet-A      3.4970 eV  354.54 nm  f=0.2568  <S**2>=0.000
     240 -> 247        0.22695
     243 -> 247        0.39853
     245 -> 247       -0.18609
     246 -> 248       -0.36999
     246 -> 249       -0.19739
     246 -> 250       -0.24753

 The electronic state is 1-A.
 Alpha  occ. eigenvalues --  -46.89221 -19.24841 -19.24692 -19.19077 -19.18774
 Alpha  occ. eigenvalues --  -19.18641 -19.18604 -14.43040 -14.42209 -14.40784
 Alpha  occ. eigenvalues --  -14.38630 -10.38810 -10.38666 -10.35661 -10.34400
 Alpha  occ. eigenvalues --  -10.32200 -10.31919 -10.31859 -10.31567 -10.31412
 Alpha  occ. eigenvalues --  -10.31246 -10.31120 -10.31008 -10.29515 -10.28882
 Alpha  occ. eigenvalues --  -10.28533 -10.28433 -10.28358 -10.28268 -10.28141
 Alpha  occ. eigenvalues --  -10.27914 -10.27790 -10.27623 -10.27607 -10.27450
 Alpha  occ. eigenvalues --  -10.27172 -10.27095 -10.26934 -10.26811 -10.26581
 Alpha  occ. eigenvalues --  -10.26579 -10.26395 -10.26311 -10.26307 -10.26292
 Alpha  occ. eigenvalues --  -10.26159 -10.26000 -10.25826 -10.25571 -10.25564
 Alpha  occ. eigenvalues --  -10.25108 -10.25022 -10.24823 -10.24784 -10.24490
 Alpha  occ. eigenvalues --  -10.24459 -10.24359 -10.24347 -10.24284 -10.24279
 Alpha  occ. eigenvalues --  -10.24245 -10.23921 -10.23838 -10.23811 -10.23631
 Alpha  occ. eigenvalues --  -10.23530  -3.17902  -1.92757  -1.92360  -1.92216
 Alpha  occ. eigenvalues --   -1.16200  -1.16075  -1.10087  -1.09038  -1.07335
 Alpha  occ. eigenvalues --   -1.06024  -1.05503  -1.04670  -1.03271  -1.02404
 Alpha  occ. eigenvalues --   -0.93539  -0.90337  -0.89645  -0.89425  -0.89200
 Alpha  occ. eigenvalues --   -0.88665  -0.88258  -0.87647  -0.87346  -0.86865
 Alpha  occ. eigenvalues --   -0.86610  -0.85188  -0.84301  -0.83803  -0.83553
 Alpha  occ. eigenvalues --   -0.82433  -0.82119  -0.81138  -0.80999  -0.80653
 Alpha  occ. eigenvalues --   -0.79714  -0.78379  -0.78083  -0.77580  -0.76445
 Alpha  occ. eigenvalues --   -0.75764  -0.75359  -0.75306  -0.74641  -0.73450
 Alpha  occ. eigenvalues --   -0.73331  -0.72291  -0.71812  -0.70559  -0.69070
 Alpha  occ. eigenvalues --   -0.68728  -0.67922  -0.67815  -0.66319  -0.65961
 Alpha  occ. eigenvalues --   -0.65748  -0.65593  -0.65228  -0.64767  -0.64024
 Alpha  occ. eigenvalues --   -0.63053  -0.62666  -0.62542  -0.61630  -0.60565
 Alpha  occ. eigenvalues --   -0.60094  -0.59539  -0.59489  -0.59130  -0.58538
 Alpha  occ. eigenvalues --   -0.57534  -0.56685  -0.56501  -0.55641  -0.55175
 Alpha  occ. eigenvalues --   -0.54838  -0.54314  -0.54095  -0.53996  -0.53726
 Alpha  occ. eigenvalues --   -0.53355  -0.53002  -0.52793  -0.52595  -0.52557
 Alpha  occ. eigenvalues --   -0.52356  -0.52288  -0.52070  -0.51992  -0.51653
 Alpha  occ. eigenvalues --   -0.51487  -0.51350  -0.50921  -0.50680  -0.50477
 Alpha  occ. eigenvalues --   -0.50359  -0.50235  -0.50189  -0.49911  -0.49643
 Alpha  occ. eigenvalues --   -0.49347  -0.49284  -0.48920  -0.48728  -0.48462
 Alpha  occ. eigenvalues --   -0.48355  -0.48333  -0.48103  -0.47902  -0.47738
 Alpha  occ. eigenvalues --   -0.47655  -0.47440  -0.47202  -0.47050  -0.46936
 Alpha  occ. eigenvalues --   -0.46581  -0.46481  -0.46311  -0.46221  -0.46135
 Alpha  occ. eigenvalues --   -0.45663  -0.45275  -0.45127  -0.44961  -0.44883
 Alpha  occ. eigenvalues --   -0.44822  -0.44738  -0.44353  -0.44094  -0.44042
 Alpha  occ. eigenvalues --   -0.43839  -0.43644  -0.43139  -0.43095  -0.42897
 Alpha  occ. eigenvalues --   -0.42459  -0.42376  -0.42173  -0.42001  -0.41903
 Alpha  occ. eigenvalues --   -0.41821  -0.41717  -0.41611  -0.41428  -0.41046
 Alpha  occ. eigenvalues --   -0.40806  -0.40710  -0.40648  -0.40251  -0.40034
 Alpha  occ. eigenvalues --   -0.39857  -0.39584  -0.39414  -0.38854  -0.38681
 Alpha  occ. eigenvalues --   -0.38247  -0.38191  -0.37653  -0.37203  -0.37079
 Alpha  occ. eigenvalues --   -0.36896  -0.36530  -0.36048  -0.35951  -0.35572
 Alpha  occ. eigenvalues --   -0.35462  -0.35103  -0.34519  -0.34177  -0.33640
 Alpha  occ. eigenvalues --   -0.33262  -0.33107  -0.32962  -0.31919  -0.31203
 Alpha  occ. eigenvalues --   -0.31007  -0.30517  -0.29796  -0.28557  -0.24881
 Alpha  occ. eigenvalues --   -0.21241
 Alpha virt. eigenvalues --   -0.09003  -0.01870   0.00034   0.00697   0.02389
 Alpha virt. eigenvalues --    0.04812   0.05177   0.05219   0.06406   0.06796
 Alpha virt. eigenvalues --    0.07849   0.08609   0.09020   0.09061   0.09376

 Mulliken charges:
               1
     1  Mg   0.840416
     2  C   -0.018154
     3  C   -0.051118
     4  C   -0.052349
     5  C   -0.068235
     6  N   -0.261817
     7  C   -0.012732
     8  C   -0.054577
     9  C   -0.046330
    10  C    0.000231
    11  C    0.086551
    12  C    0.074614
    13  C    0.072586
    14  C    0.148543
    15  O   -0.233849
    16  O   -0.315831
    17  N   -0.345324
    18  C    0.097876
    19  C   -0.126824
    20  C   -0.015968
    21  C    0.169860
    22  C    0.125283
    23  C   -0.016811
    24  O   -0.211572
    25  C    0.048267
    26  N   -0.380352
    27  C    0.019734
    28  C   -0.008168
    29  C   -0.050021
    30  C    0.104238
    31  C    0.053961
    32  C    0.026556
    33  C    0.000867
    34  N   -0.241103
    35  C    0.039452
    36  C   -0.193300
    37  C   -0.028505
    38  C    0.087024
    39  C    0.122273
    40  C    0.035402
    41  O   -0.157916
    42  C    0.008408
    43  C    0.192424
    44  O   -0.254856
    45  O   -0.319476
    46  C    0.185878
    47  C    0.270616
    48  C   -0.092605
    49  C   -0.223715
    50  C    0.069418
    51  C    0.085081
    52  C    0.040756
    53  C    0.025548
    54  C   -0.103323
    55  C    0.056059
    56  C    0.030197
    57  C    0.041725
    58  C    0.051370
    59  C   -0.171467
    60  C    0.079774
    61  C    0.046357
    62  C    0.022662
    63  C    0.041304
    64  C   -0.150102
    65  C    0.017150
    66  C    0.060868
    67  H   -0.018218
    68  H   -0.046861
    69  H   -0.029783
    70  H    0.000963
    71  H    0.007226
    72  H    0.008763
    73  H    0.030856
    74  H    0.011045
    75  H   -0.013698
    76  H    0.026548
    77  H    0.048679
    78  H    0.028879
    79  H    0.034342
    80  H    0.046333
    81  H   -0.000382
    82  H    0.038905
    83  H    0.040713
    84  H    0.025971
    85  H    0.022495
    86  H    0.009435
    87  H    0.022129
    88  H    0.010649
    89  H    0.017803
    90  H    0.020710
    91  H   -0.000955
    92  H    0.015729
    93  H    0.008660
    94  H    0.013813
    95  H    0.050811
    96  H    0.053340
    97  H    0.013947
    98  H    0.026135
    99  H    0.021804
   100  H    0.046088
   101  H    0.036683
   102  H    0.040242
   103  H    0.037470
   104  H    0.006528
   105  H    0.000882
   106  H    0.032464
   107  H    0.023233
   108  H   -0.011702
   109  H    0.009545
   110  H   -0.010654
   111  H    0.010064
   112  H   -0.009193
   113  H    0.000591
   114  H   -0.014162
   115  H   -0.003907
   116  H    0.007445
   117  H    0.012650
   118  H   -0.023049
   119  H   -0.016416
   120  H   -0.005014
   121  H   -0.005409
   122  H   -0.001332
   123  H   -0.000211
   124  H   -0.006330
   125  H    0.009042
   126  H    0.009197
   127  H    0.011069
   128  H   -0.021471
   129  H   -0.009290
   130  H   -0.008746
   131  H    0.000705
   132  H   -0.007216
   133  H   -0.013998
   134  H    0.006097
   135  H    0.003638
   136  H    0.013062
   137  H    0.010338
   138  H   -0.003435
   139  H    0.014510
   140  H    0.010278
 Sum of Mulliken charges =  -0.00000

 Dipole moment (field-independent basis, Debye):
    X=              2.7074    Y=              2.4359    Z=             -0.0908  Tot=              3.6431
 Quadrupole moment (field-independent basis, Debye-Ang):
   XX=           -371.8539   YY=           -429.5237   ZZ=           -391.2845
   XY=             38.5526   XZ=             -6.5945   YZ=              9.4335

 Normal termination of Gaussian 16 at Wed Apr 27 11:09:00 2022.
