 Gaussian 16, Revision A.03,
 Gaussian 16:  ES64L-G16RevA.03 25-Dec-2016

 ---------------------------------
 #p PBE1PBE/Def2SVP td=(nstates=5)
 ---------------------------------

 ------------------------------------------------------
 step_1151_chromophore_20 TDDFT with PBE1PBE functional
 ------------------------------------------------------
 Symbolic Z-matrix:
 Charge =  0 Multiplicity = 1

                         Standard orientation:
 ---------------------------------------------------------------------
 Center     Atomic      Atomic             Coordinates (Angstroms)
 Number     Number       Type             X           Y           Z
 ---------------------------------------------------------------------
      1         12           0        4.478976    1.242949   -0.570786
      2          6           0        3.899948   -2.199921   -1.075492
      3          6           0        1.869058    1.828393   -2.900332
      4          6           0        4.472043    4.363051    0.328313
      5          6           0        6.589322    0.314468    2.092985
      6          7           0        3.028309   -0.011386   -1.717473
      7          6           0        3.028820   -1.418373   -1.823946
      8          6           0        2.015099   -1.887545   -2.926381
      9          6           0        1.835464   -0.634114   -3.774949
     10          6           0        2.319603    0.482279   -2.749674
     11          6           0        2.676673   -0.570154   -5.098408
     12          6           0        0.657260   -2.291482   -2.312521
     13          6           0       -0.082939   -3.531426   -2.978724
     14          6           0       -1.139683   -4.323560   -2.240632
     15          8           0       -2.050422   -4.828705   -2.854839
     16          8           0       -0.987491   -4.401578   -0.902075
     17          7           0        3.264500    2.856379   -1.142353
     18          6           0        2.360780    2.944764   -2.171716
     19          6           0        1.794486    4.338739   -2.212390
     20          6           0        2.555960    5.072995   -1.293463
     21          6           0        3.501990    4.086824   -0.678099
     22          6           0        0.772598    4.747414   -3.200109
     23          6           0        2.480387    6.554726   -1.086845
     24          8           0        1.642921    7.295079   -1.629990
     25          6           0        3.481496    7.251735   -0.119674
     26          7           0        5.332159    2.181083    0.968840
     27          6           0        5.354346    3.567916    0.991535
     28          6           0        6.316158    4.120362    2.083579
     29          6           0        6.875584    2.837576    2.765108
     30          6           0        6.175847    1.655736    1.927897
     31          6           0        7.347965    5.097205    1.437677
     32          6           0        6.460241    2.730615    4.279342
     33          6           0        7.480775    2.304787    5.334418
     34          7           0        5.112268   -0.579037    0.351757
     35          6           0        6.058481   -0.766414    1.285146
     36          6           0        6.419716   -2.142479    1.395561
     37          6           0        5.529485   -2.751383    0.507349
     38          6           0        4.718371   -1.732741   -0.032675
     39          6           0        7.495832   -2.722289    2.289435
     40          6           0        5.112132   -4.041147    0.049315
     41          8           0        5.565672   -5.134545    0.309820
     42          6           0        4.025854   -3.667496   -1.030525
     43          6           0        2.816873   -4.346203   -0.559897
     44          8           0        2.276660   -4.204013    0.567793
     45          8           0        2.340967   -5.230689   -1.460210
     46          6           0        1.658121   -6.402451   -0.944094
     47          6           0       -2.000831   -5.242036   -0.174571
     48          6           0       -3.293844   -4.499572    0.041961
     49          6           0       -4.383788   -4.889953    0.805758
     50          6           0       -4.440042   -6.203231    1.638620
     51          6           0       -5.574966   -3.979598    0.976857
     52          6           0       -5.272681   -2.760157    1.836498
     53          6           0       -6.221846   -2.704119    3.023729
     54          6           0       -6.404861   -1.299575    3.627865
     55          6           0       -6.557355   -1.484966    5.174621
     56          6           0       -7.474536   -0.457150    2.903839
     57          6           0       -7.178514    0.961040    2.495169
     58          6           0       -6.916570    1.016375    0.967600
     59          6           0       -8.263980    1.251563    0.144769
     60          6           0       -8.223118    0.774643   -1.338933
     61          6           0       -8.684483    2.720991    0.378734
     62          6           0      -10.061632    2.828642    0.891865
     63          6           0      -10.788710    3.990642    0.195046
     64          6           0      -11.890029    3.456065   -0.831115
     65          6           0      -11.520231    3.738186   -2.362632
     66          6           0      -13.217582    4.073897   -0.396173
     67          1           0        1.146095    2.055241   -3.686811
     68          1           0        4.780526    5.399812    0.475833
     69          1           0        7.398590   -0.018886    2.746248
     70          1           0        2.380554   -2.722804   -3.523241
     71          1           0        0.816069   -0.275854   -3.919641
     72          1           0        3.431487    0.162489   -4.811856
     73          1           0        2.199093   -0.303742   -6.041443
     74          1           0        3.244710   -1.480817   -5.287189
     75          1           0        0.003399   -1.421972   -2.388615
     76          1           0        0.777027   -2.187789   -1.233344
     77          1           0        0.590773   -4.176201   -3.544172
     78          1           0       -0.684547   -2.974995   -3.697404
     79          1           0        1.003446    5.716044   -3.645028
     80          1           0       -0.276817    4.618738   -2.933827
     81          1           0        0.958160    4.112836   -4.066106
     82          1           0        4.458873    7.069968   -0.568278
     83          1           0        3.475384    6.802369    0.873717
     84          1           0        3.260060    8.312026   -0.005408
     85          1           0        5.727270    4.678568    2.810718
     86          1           0        7.947327    2.641340    2.745230
     87          1           0        7.333834    5.200344    0.352857
     88          1           0        8.358147    4.747965    1.652759
     89          1           0        7.266478    6.117575    1.812002
     90          1           0        5.632355    2.032203    4.398216
     91          1           0        6.059205    3.716674    4.515355
     92          1           0        7.580443    3.037706    6.134455
     93          1           0        8.485302    2.069112    4.982197
     94          1           0        7.143018    1.388442    5.818651
     95          1           0        7.895839   -3.452750    1.585985
     96          1           0        6.824428   -2.979450    3.108889
     97          1           0        8.297528   -2.063496    2.620611
     98          1           0        4.351593   -4.128494   -1.962897
     99          1           0        2.230415   -6.922298   -0.175932
    100          1           0        1.425027   -7.137131   -1.714658
    101          1           0        0.872776   -6.046261   -0.276537
    102          1           0       -1.560886   -5.565928    0.769327
    103          1           0       -2.196811   -6.170227   -0.712228
    104          1           0       -3.501860   -3.687411   -0.654858
    105          1           0       -3.497707   -6.750787    1.610807
    106          1           0       -5.255368   -6.767433    1.185839
    107          1           0       -4.642541   -6.061057    2.699962
    108          1           0       -6.398191   -4.549902    1.408822
    109          1           0       -5.861717   -3.710826   -0.039997
    110          1           0       -5.352545   -1.853539    1.236280
    111          1           0       -4.212487   -2.856464    2.069742
    112          1           0       -5.784984   -3.365452    3.771665
    113          1           0       -7.214869   -3.081566    2.779774
    114          1           0       -5.486140   -0.774040    3.364797
    115          1           0       -7.166115   -0.664577    5.554182
    116          1           0       -5.607584   -1.401838    5.703832
    117          1           0       -6.968627   -2.444275    5.486986
    118          1           0       -8.361599   -0.399885    3.535226
    119          1           0       -7.775299   -1.022067    2.022155
    120          1           0       -6.330902    1.273368    3.106216
    121          1           0       -8.058584    1.525791    2.801014
    122          1           0       -6.457280    0.109232    0.575456
    123          1           0       -6.290398    1.906071    0.910753
    124          1           0       -9.076392    0.618100    0.500918
    125          1           0       -8.676218   -0.216965   -1.342864
    126          1           0       -7.161534    0.696068   -1.573570
    127          1           0       -8.803962    1.508450   -1.896491
    128          1           0       -8.572751    3.276162   -0.553701
    129          1           0       -8.004260    3.347197    0.957227
    130          1           0       -9.963713    3.005401    1.962441
    131          1           0      -10.616477    1.891558    0.860000
    132          1           0      -10.084087    4.684850   -0.264314
    133          1           0      -11.216699    4.625445    0.970936
    134          1           0      -11.985020    2.374555   -0.923519
    135          1           0      -11.859560    4.717127   -2.700496
    136          1           0      -11.947467    2.974167   -3.011221
    137          1           0      -10.433132    3.726493   -2.437689
    138          1           0      -14.000303    3.319899   -0.481752
    139          1           0      -13.459129    4.922154   -1.036372
    140          1           0      -13.152765    4.274040    0.673680
 ---------------------------------------------------------------------

 SCF Done:  E(RPBE1PBE) =  -3005.31402817     A.U. after   16 cycles

 Excitation energies and oscillator strengths:

 Excited State   1:      Singlet-A      1.8228 eV  680.17 nm  f=0.3563  <S**2>=0.000
     245 -> 248       -0.15622
     246 -> 247        0.69840
     246 <- 247       -0.11822
 This state for optimization and/or second-order correction.
 Total Energy, E(TD-HF/TD-DFT) =  -3005.24704013
 Copying the excited state density for this state as the 1-particle RhoCI density.

 Excited State   2:      Singlet-A      2.3078 eV  537.24 nm  f=0.1060  <S**2>=0.000
     245 -> 247        0.63934
     246 -> 248        0.28951

 Excited State   3:      Singlet-A      2.9513 eV  420.09 nm  f=0.0001  <S**2>=0.000
     242 -> 247        0.12416
     243 -> 247        0.65529
     243 -> 249        0.17475

 Excited State   4:      Singlet-A      2.9945 eV  414.03 nm  f=0.0001  <S**2>=0.000
     241 -> 247        0.23352
     242 -> 247        0.63147
     242 -> 249       -0.11106
     243 -> 247       -0.11473

 Excited State   5:      Singlet-A      3.0053 eV  412.55 nm  f=0.0000  <S**2>=0.000
     244 -> 247        0.70540

 The electronic state is 1-A.
 Alpha  occ. eigenvalues --  -46.92627 -19.25505 -19.25322 -19.19249 -19.19101
 Alpha  occ. eigenvalues --  -19.18929 -19.18911 -14.42433 -14.41892 -14.40236
 Alpha  occ. eigenvalues --  -14.38392 -10.35864 -10.35695 -10.32625 -10.31760
 Alpha  occ. eigenvalues --  -10.29603 -10.29457 -10.29398 -10.29231 -10.29214
 Alpha  occ. eigenvalues --  -10.29117 -10.28496 -10.28240 -10.26783 -10.26691
 Alpha  occ. eigenvalues --  -10.26635 -10.26311 -10.26153 -10.26085 -10.25588
 Alpha  occ. eigenvalues --  -10.25551 -10.25539 -10.25336 -10.25313 -10.25068
 Alpha  occ. eigenvalues --  -10.25023 -10.24984 -10.24768 -10.24274 -10.24244
 Alpha  occ. eigenvalues --  -10.24060 -10.24037 -10.23958 -10.23867 -10.23511
 Alpha  occ. eigenvalues --  -10.23489 -10.23480 -10.23371 -10.23126 -10.23074
 Alpha  occ. eigenvalues --  -10.22819 -10.22702 -10.22358 -10.22354 -10.22043
 Alpha  occ. eigenvalues --  -10.21897 -10.21879 -10.21872 -10.21792 -10.21788
 Alpha  occ. eigenvalues --  -10.21726 -10.21661 -10.21320 -10.21283 -10.21150
 Alpha  occ. eigenvalues --  -10.21068  -3.14882  -1.87677  -1.87261  -1.87117
 Alpha  occ. eigenvalues --   -1.11004  -1.10884  -1.05062  -1.03564  -1.02227
 Alpha  occ. eigenvalues --   -1.01015  -1.00334  -0.99100  -0.97800  -0.97047
 Alpha  occ. eigenvalues --   -0.88037  -0.84414  -0.83763  -0.83613  -0.83444
 Alpha  occ. eigenvalues --   -0.82982  -0.82359  -0.81928  -0.81682  -0.81182
 Alpha  occ. eigenvalues --   -0.80701  -0.79370  -0.78498  -0.78189  -0.77756
 Alpha  occ. eigenvalues --   -0.76621  -0.76269  -0.75447  -0.75214  -0.74901
 Alpha  occ. eigenvalues --   -0.73909  -0.72660  -0.72172  -0.71921  -0.70829
 Alpha  occ. eigenvalues --   -0.70127  -0.69489  -0.69376  -0.68756  -0.67871
 Alpha  occ. eigenvalues --   -0.67594  -0.66604  -0.66214  -0.64855  -0.63486
 Alpha  occ. eigenvalues --   -0.63295  -0.62180  -0.62107  -0.60503  -0.60410
 Alpha  occ. eigenvalues --   -0.60221  -0.59838  -0.59728  -0.59252  -0.58137
 Alpha  occ. eigenvalues --   -0.57421  -0.57180  -0.56987  -0.55827  -0.55069
 Alpha  occ. eigenvalues --   -0.54669  -0.54152  -0.53863  -0.53678  -0.53003
 Alpha  occ. eigenvalues --   -0.52178  -0.51196  -0.51027  -0.50145  -0.49693
 Alpha  occ. eigenvalues --   -0.49358  -0.48865  -0.48605  -0.48423  -0.48335
 Alpha  occ. eigenvalues --   -0.47874  -0.47483  -0.47357  -0.47201  -0.47049
 Alpha  occ. eigenvalues --   -0.46907  -0.46829  -0.46627  -0.46382  -0.46131
 Alpha  occ. eigenvalues --   -0.46040  -0.45834  -0.45469  -0.45244  -0.44995
 Alpha  occ. eigenvalues --   -0.44921  -0.44813  -0.44646  -0.44546  -0.44274
 Alpha  occ. eigenvalues --   -0.43944  -0.43820  -0.43541  -0.43313  -0.43099
 Alpha  occ. eigenvalues --   -0.43064  -0.42978  -0.42795  -0.42511  -0.42447
 Alpha  occ. eigenvalues --   -0.42302  -0.42049  -0.41890  -0.41632  -0.41536
 Alpha  occ. eigenvalues --   -0.41215  -0.41074  -0.40992  -0.40881  -0.40821
 Alpha  occ. eigenvalues --   -0.40299  -0.40029  -0.39950  -0.39736  -0.39609
 Alpha  occ. eigenvalues --   -0.39444  -0.39338  -0.39068  -0.38873  -0.38832
 Alpha  occ. eigenvalues --   -0.38621  -0.38370  -0.37886  -0.37777  -0.37679
 Alpha  occ. eigenvalues --   -0.37247  -0.37192  -0.36845  -0.36808  -0.36765
 Alpha  occ. eigenvalues --   -0.36659  -0.36582  -0.36493  -0.36302  -0.35870
 Alpha  occ. eigenvalues --   -0.35693  -0.35433  -0.35410  -0.35178  -0.34888
 Alpha  occ. eigenvalues --   -0.34747  -0.34350  -0.34317  -0.33670  -0.33458
 Alpha  occ. eigenvalues --   -0.33121  -0.33019  -0.32645  -0.32281  -0.31900
 Alpha  occ. eigenvalues --   -0.31725  -0.31422  -0.31078  -0.30857  -0.30436
 Alpha  occ. eigenvalues --   -0.30280  -0.30022  -0.29423  -0.29347  -0.28916
 Alpha  occ. eigenvalues --   -0.28364  -0.28006  -0.27956  -0.27329  -0.26614
 Alpha  occ. eigenvalues --   -0.25720  -0.25610  -0.25575  -0.23853  -0.21717
 Alpha  occ. eigenvalues --   -0.18909
 Alpha virt. eigenvalues --   -0.11511  -0.05429  -0.04060  -0.02259  -0.01976
 Alpha virt. eigenvalues --    0.00133   0.00773   0.00817   0.01813   0.03074
 Alpha virt. eigenvalues --    0.03983   0.04605   0.05479   0.05837   0.06131

 Mulliken charges:
               1
     1  Mg   0.985740
     2  C   -0.043019
     3  C   -0.040697
     4  C   -0.044660
     5  C   -0.050908
     6  N   -0.358499
     7  C    0.059686
     8  C   -0.129890
     9  C   -0.122541
    10  C    0.031947
    11  C    0.032560
    12  C    0.038019
    13  C   -0.009211
    14  C    0.220008
    15  O   -0.265568
    16  O   -0.346375
    17  N   -0.456461
    18  C    0.112847
    19  C   -0.144584
    20  C   -0.063738
    21  C    0.192963
    22  C    0.066330
    23  C    0.037531
    24  O   -0.248654
    25  C   -0.034227
    26  N   -0.483971
    27  C    0.049941
    28  C   -0.084670
    29  C   -0.125733
    30  C    0.137118
    31  C   -0.001823
    32  C   -0.027625
    33  C   -0.070237
    34  N   -0.373144
    35  C    0.062807
    36  C   -0.209694
    37  C   -0.075001
    38  C    0.158606
    39  C    0.065986
    40  C    0.133310
    41  O   -0.204332
    42  C   -0.108835
    43  C    0.296033
    44  O   -0.290075
    45  O   -0.353918
    46  C    0.127303
    47  C    0.223525
    48  C   -0.098421
    49  C   -0.270256
    50  C    0.006131
    51  C    0.025065
    52  C   -0.025523
    53  C   -0.033731
    54  C   -0.188457
    55  C   -0.006910
    56  C   -0.016176
    57  C   -0.023840
    58  C   -0.023251
    59  C   -0.245044
    60  C    0.013251
    61  C   -0.003679
    62  C   -0.040476
    63  C   -0.019529
    64  C   -0.233425
    65  C   -0.043956
    66  C   -0.001920
    67  H    0.010189
    68  H   -0.013378
    69  H    0.003574
    70  H    0.036961
    71  H    0.042726
    72  H    0.038323
    73  H    0.056977
    74  H    0.037493
    75  H    0.020054
    76  H    0.057831
    77  H    0.077628
    78  H    0.062884
    79  H    0.060520
    80  H    0.071692
    81  H    0.026226
    82  H    0.066137
    83  H    0.067091
    84  H    0.053898
    85  H    0.057770
    86  H    0.045181
    87  H    0.049203
    88  H    0.038110
    89  H    0.044980
    90  H    0.052777
    91  H    0.033019
    92  H    0.043928
    93  H    0.035094
    94  H    0.041160
    95  H    0.078805
    96  H    0.082827
    97  H    0.041441
    98  H    0.063142
    99  H    0.044142
   100  H    0.067327
   101  H    0.062864
   102  H    0.064342
   103  H    0.064329
   104  H    0.035670
   105  H    0.028163
   106  H    0.060548
   107  H    0.050305
   108  H    0.020584
   109  H    0.041950
   110  H    0.027276
   111  H    0.043616
   112  H    0.025732
   113  H    0.032457
   114  H    0.025609
   115  H    0.024291
   116  H    0.035688
   117  H    0.039266
   118  H    0.009999
   119  H    0.017200
   120  H    0.027520
   121  H    0.029505
   122  H    0.035027
   123  H    0.034109
   124  H    0.031072
   125  H    0.036465
   126  H    0.037019
   127  H    0.041205
   128  H    0.011625
   129  H    0.022449
   130  H    0.024413
   131  H    0.031219
   132  H    0.024624
   133  H    0.018095
   134  H    0.042194
   135  H    0.030781
   136  H    0.040240
   137  H    0.038642
   138  H    0.025037
   139  H    0.041330
   140  H    0.037782
 Sum of Mulliken charges =  -0.00000

 Dipole moment (field-independent basis, Debye):
    X=              3.0870    Y=              1.9737    Z=              0.2555  Tot=              3.6729
 Quadrupole moment (field-independent basis, Debye-Ang):
   XX=           -364.8397   YY=           -427.9905   ZZ=           -387.6259
   XY=             37.1928   XZ=             -4.1800   YZ=             10.1775

 Normal termination of Gaussian 16 at Wed Apr 27 11:25:23 2022.
