 Gaussian 16, Revision A.03,
 Gaussian 16:  ES64L-G16RevA.03 25-Dec-2016

 --------------------------------
 #p wB97XD/Def2SVP td=(nstates=5)
 --------------------------------

 -----------------------------------------------------
 step_1151_chromophore_20 TDDFT with wB97XD functional
 -----------------------------------------------------
 Symbolic Z-matrix:
 Charge =  0 Multiplicity = 1

                         Standard orientation:
 ---------------------------------------------------------------------
 Center     Atomic      Atomic             Coordinates (Angstroms)
 Number     Number       Type             X           Y           Z
 ---------------------------------------------------------------------
      1         12           0        4.478976    1.242949   -0.570786
      2          6           0        3.899948   -2.199921   -1.075492
      3          6           0        1.869058    1.828393   -2.900332
      4          6           0        4.472043    4.363051    0.328313
      5          6           0        6.589322    0.314468    2.092985
      6          7           0        3.028309   -0.011386   -1.717473
      7          6           0        3.028820   -1.418373   -1.823946
      8          6           0        2.015099   -1.887545   -2.926381
      9          6           0        1.835464   -0.634114   -3.774949
     10          6           0        2.319603    0.482279   -2.749674
     11          6           0        2.676673   -0.570154   -5.098408
     12          6           0        0.657260   -2.291482   -2.312521
     13          6           0       -0.082939   -3.531426   -2.978724
     14          6           0       -1.139683   -4.323560   -2.240632
     15          8           0       -2.050422   -4.828705   -2.854839
     16          8           0       -0.987491   -4.401578   -0.902075
     17          7           0        3.264500    2.856379   -1.142353
     18          6           0        2.360780    2.944764   -2.171716
     19          6           0        1.794486    4.338739   -2.212390
     20          6           0        2.555960    5.072995   -1.293463
     21          6           0        3.501990    4.086824   -0.678099
     22          6           0        0.772598    4.747414   -3.200109
     23          6           0        2.480387    6.554726   -1.086845
     24          8           0        1.642921    7.295079   -1.629990
     25          6           0        3.481496    7.251735   -0.119674
     26          7           0        5.332159    2.181083    0.968840
     27          6           0        5.354346    3.567916    0.991535
     28          6           0        6.316158    4.120362    2.083579
     29          6           0        6.875584    2.837576    2.765108
     30          6           0        6.175847    1.655736    1.927897
     31          6           0        7.347965    5.097205    1.437677
     32          6           0        6.460241    2.730615    4.279342
     33          6           0        7.480775    2.304787    5.334418
     34          7           0        5.112268   -0.579037    0.351757
     35          6           0        6.058481   -0.766414    1.285146
     36          6           0        6.419716   -2.142479    1.395561
     37          6           0        5.529485   -2.751383    0.507349
     38          6           0        4.718371   -1.732741   -0.032675
     39          6           0        7.495832   -2.722289    2.289435
     40          6           0        5.112132   -4.041147    0.049315
     41          8           0        5.565672   -5.134545    0.309820
     42          6           0        4.025854   -3.667496   -1.030525
     43          6           0        2.816873   -4.346203   -0.559897
     44          8           0        2.276660   -4.204013    0.567793
     45          8           0        2.340967   -5.230689   -1.460210
     46          6           0        1.658121   -6.402451   -0.944094
     47          6           0       -2.000831   -5.242036   -0.174571
     48          6           0       -3.293844   -4.499572    0.041961
     49          6           0       -4.383788   -4.889953    0.805758
     50          6           0       -4.440042   -6.203231    1.638620
     51          6           0       -5.574966   -3.979598    0.976857
     52          6           0       -5.272681   -2.760157    1.836498
     53          6           0       -6.221846   -2.704119    3.023729
     54          6           0       -6.404861   -1.299575    3.627865
     55          6           0       -6.557355   -1.484966    5.174621
     56          6           0       -7.474536   -0.457150    2.903839
     57          6           0       -7.178514    0.961040    2.495169
     58          6           0       -6.916570    1.016375    0.967600
     59          6           0       -8.263980    1.251563    0.144769
     60          6           0       -8.223118    0.774643   -1.338933
     61          6           0       -8.684483    2.720991    0.378734
     62          6           0      -10.061632    2.828642    0.891865
     63          6           0      -10.788710    3.990642    0.195046
     64          6           0      -11.890029    3.456065   -0.831115
     65          6           0      -11.520231    3.738186   -2.362632
     66          6           0      -13.217582    4.073897   -0.396173
     67          1           0        1.146095    2.055241   -3.686811
     68          1           0        4.780526    5.399812    0.475833
     69          1           0        7.398590   -0.018886    2.746248
     70          1           0        2.380554   -2.722804   -3.523241
     71          1           0        0.816069   -0.275854   -3.919641
     72          1           0        3.431487    0.162489   -4.811856
     73          1           0        2.199093   -0.303742   -6.041443
     74          1           0        3.244710   -1.480817   -5.287189
     75          1           0        0.003399   -1.421972   -2.388615
     76          1           0        0.777027   -2.187789   -1.233344
     77          1           0        0.590773   -4.176201   -3.544172
     78          1           0       -0.684547   -2.974995   -3.697404
     79          1           0        1.003446    5.716044   -3.645028
     80          1           0       -0.276817    4.618738   -2.933827
     81          1           0        0.958160    4.112836   -4.066106
     82          1           0        4.458873    7.069968   -0.568278
     83          1           0        3.475384    6.802369    0.873717
     84          1           0        3.260060    8.312026   -0.005408
     85          1           0        5.727270    4.678568    2.810718
     86          1           0        7.947327    2.641340    2.745230
     87          1           0        7.333834    5.200344    0.352857
     88          1           0        8.358147    4.747965    1.652759
     89          1           0        7.266478    6.117575    1.812002
     90          1           0        5.632355    2.032203    4.398216
     91          1           0        6.059205    3.716674    4.515355
     92          1           0        7.580443    3.037706    6.134455
     93          1           0        8.485302    2.069112    4.982197
     94          1           0        7.143018    1.388442    5.818651
     95          1           0        7.895839   -3.452750    1.585985
     96          1           0        6.824428   -2.979450    3.108889
     97          1           0        8.297528   -2.063496    2.620611
     98          1           0        4.351593   -4.128494   -1.962897
     99          1           0        2.230415   -6.922298   -0.175932
    100          1           0        1.425027   -7.137131   -1.714658
    101          1           0        0.872776   -6.046261   -0.276537
    102          1           0       -1.560886   -5.565928    0.769327
    103          1           0       -2.196811   -6.170227   -0.712228
    104          1           0       -3.501860   -3.687411   -0.654858
    105          1           0       -3.497707   -6.750787    1.610807
    106          1           0       -5.255368   -6.767433    1.185839
    107          1           0       -4.642541   -6.061057    2.699962
    108          1           0       -6.398191   -4.549902    1.408822
    109          1           0       -5.861717   -3.710826   -0.039997
    110          1           0       -5.352545   -1.853539    1.236280
    111          1           0       -4.212487   -2.856464    2.069742
    112          1           0       -5.784984   -3.365452    3.771665
    113          1           0       -7.214869   -3.081566    2.779774
    114          1           0       -5.486140   -0.774040    3.364797
    115          1           0       -7.166115   -0.664577    5.554182
    116          1           0       -5.607584   -1.401838    5.703832
    117          1           0       -6.968627   -2.444275    5.486986
    118          1           0       -8.361599   -0.399885    3.535226
    119          1           0       -7.775299   -1.022067    2.022155
    120          1           0       -6.330902    1.273368    3.106216
    121          1           0       -8.058584    1.525791    2.801014
    122          1           0       -6.457280    0.109232    0.575456
    123          1           0       -6.290398    1.906071    0.910753
    124          1           0       -9.076392    0.618100    0.500918
    125          1           0       -8.676218   -0.216965   -1.342864
    126          1           0       -7.161534    0.696068   -1.573570
    127          1           0       -8.803962    1.508450   -1.896491
    128          1           0       -8.572751    3.276162   -0.553701
    129          1           0       -8.004260    3.347197    0.957227
    130          1           0       -9.963713    3.005401    1.962441
    131          1           0      -10.616477    1.891558    0.860000
    132          1           0      -10.084087    4.684850   -0.264314
    133          1           0      -11.216699    4.625445    0.970936
    134          1           0      -11.985020    2.374555   -0.923519
    135          1           0      -11.859560    4.717127   -2.700496
    136          1           0      -11.947467    2.974167   -3.011221
    137          1           0      -10.433132    3.726493   -2.437689
    138          1           0      -14.000303    3.319899   -0.481752
    139          1           0      -13.459129    4.922154   -1.036372
    140          1           0      -13.152765    4.274040    0.673680
 ---------------------------------------------------------------------

 SCF Done:  E(RwB97XD) =  -3007.82561306     A.U. after   17 cycles

 Excitation energies and oscillator strengths:

 Excited State   1:      Singlet-A      1.6411 eV  755.50 nm  f=0.3707  <S**2>=0.000
     245 -> 248       -0.16178
     246 -> 247        0.68855
     245 <- 248       -0.10981
 This state for optimization and/or second-order correction.
 Total Energy, E(TD-HF/TD-DFT) =  -3007.76530420
 Copying the excited state density for this state as the 1-particle RhoCI density.

 Excited State   2:      Singlet-A      2.2560 eV  549.58 nm  f=0.0966  <S**2>=0.000
     245 -> 247        0.62331
     246 -> 248        0.31769

 Excited State   3:      Singlet-A      3.4643 eV  357.90 nm  f=0.0017  <S**2>=0.000
     241 -> 247        0.51546
     241 -> 248        0.15449
     241 -> 249        0.38636
     241 -> 251        0.16335

 Excited State   4:      Singlet-A      3.5216 eV  352.07 nm  f=0.2608  <S**2>=0.000
     243 -> 247        0.50275
     245 -> 247        0.19082
     246 -> 248       -0.43186

 Excited State   5:      Singlet-A      3.5522 eV  349.03 nm  f=0.3493  <S**2>=0.000
     239 -> 247       -0.10749
     240 -> 247        0.32842
     243 -> 247        0.39306
     245 -> 247       -0.20881
     246 -> 248        0.40548

 The electronic state is 1-A.
 Alpha  occ. eigenvalues --  -46.95590 -19.30039 -19.29860 -19.24173 -19.23781
 Alpha  occ. eigenvalues --  -19.23564 -19.23547 -14.47692 -14.46792 -14.45416
 Alpha  occ. eigenvalues --  -14.43153 -10.42634 -10.42454 -10.39705 -10.38373
 Alpha  occ. eigenvalues --  -10.36093 -10.36064 -10.35955 -10.35658 -10.35400
 Alpha  occ. eigenvalues --  -10.35277 -10.35268 -10.34743 -10.33761 -10.32947
 Alpha  occ. eigenvalues --  -10.32515 -10.32453 -10.32395 -10.32340 -10.32283
 Alpha  occ. eigenvalues --  -10.32094 -10.31892 -10.31617 -10.31500 -10.31386
 Alpha  occ. eigenvalues --  -10.31153 -10.31097 -10.30955 -10.30694 -10.30635
 Alpha  occ. eigenvalues --  -10.30464 -10.30382 -10.30292 -10.30214 -10.30210
 Alpha  occ. eigenvalues --  -10.29983 -10.29814 -10.29785 -10.29508 -10.29358
 Alpha  occ. eigenvalues --  -10.29097 -10.28996 -10.28736 -10.28726 -10.28391
 Alpha  occ. eigenvalues --  -10.28309 -10.28266 -10.28181 -10.28170 -10.28164
 Alpha  occ. eigenvalues --  -10.28100 -10.27818 -10.27721 -10.27699 -10.27533
 Alpha  occ. eigenvalues --  -10.27447  -3.21700  -1.95245  -1.94825  -1.94684
 Alpha  occ. eigenvalues --   -1.18352  -1.18228  -1.12278  -1.11315  -1.09530
 Alpha  occ. eigenvalues --   -1.08029  -1.07633  -1.06769  -1.05300  -1.04410
 Alpha  occ. eigenvalues --   -0.95494  -0.92093  -0.91429  -0.91274  -0.91167
 Alpha  occ. eigenvalues --   -0.90515  -0.90034  -0.89669  -0.89261  -0.88802
 Alpha  occ. eigenvalues --   -0.88379  -0.87052  -0.86156  -0.85682  -0.85426
 Alpha  occ. eigenvalues --   -0.84288  -0.84027  -0.83066  -0.82896  -0.82544
 Alpha  occ. eigenvalues --   -0.81555  -0.80316  -0.80035  -0.79467  -0.78355
 Alpha  occ. eigenvalues --   -0.77720  -0.77180  -0.77091  -0.76450  -0.75341
 Alpha  occ. eigenvalues --   -0.75246  -0.74218  -0.73782  -0.72488  -0.70989
 Alpha  occ. eigenvalues --   -0.70707  -0.69872  -0.69772  -0.68158  -0.67925
 Alpha  occ. eigenvalues --   -0.67655  -0.67408  -0.67207  -0.66792  -0.65827
 Alpha  occ. eigenvalues --   -0.64933  -0.64577  -0.64495  -0.63460  -0.62622
 Alpha  occ. eigenvalues --   -0.62049  -0.61520  -0.61377  -0.61107  -0.60455
 Alpha  occ. eigenvalues --   -0.59536  -0.58690  -0.58425  -0.57551  -0.57135
 Alpha  occ. eigenvalues --   -0.56751  -0.56264  -0.55937  -0.55919  -0.55666
 Alpha  occ. eigenvalues --   -0.55244  -0.54902  -0.54709  -0.54551  -0.54501
 Alpha  occ. eigenvalues --   -0.54294  -0.54172  -0.53972  -0.53924  -0.53505
 Alpha  occ. eigenvalues --   -0.53411  -0.53214  -0.52830  -0.52568  -0.52375
 Alpha  occ. eigenvalues --   -0.52267  -0.52143  -0.52081  -0.51816  -0.51551
 Alpha  occ. eigenvalues --   -0.51306  -0.51152  -0.50861  -0.50637  -0.50343
 Alpha  occ. eigenvalues --   -0.50274  -0.50260  -0.50056  -0.49836  -0.49648
 Alpha  occ. eigenvalues --   -0.49573  -0.49354  -0.49114  -0.48962  -0.48797
 Alpha  occ. eigenvalues --   -0.48458  -0.48360  -0.48279  -0.48092  -0.48030
 Alpha  occ. eigenvalues --   -0.47513  -0.47208  -0.47033  -0.46915  -0.46762
 Alpha  occ. eigenvalues --   -0.46718  -0.46589  -0.46273  -0.46045  -0.45961
 Alpha  occ. eigenvalues --   -0.45731  -0.45543  -0.45061  -0.44954  -0.44809
 Alpha  occ. eigenvalues --   -0.44386  -0.44310  -0.44211  -0.43886  -0.43788
 Alpha  occ. eigenvalues --   -0.43690  -0.43617  -0.43515  -0.43320  -0.42968
 Alpha  occ. eigenvalues --   -0.42733  -0.42556  -0.42505  -0.42164  -0.41877
 Alpha  occ. eigenvalues --   -0.41763  -0.41408  -0.41325  -0.40705  -0.40515
 Alpha  occ. eigenvalues --   -0.40108  -0.40078  -0.39622  -0.39319  -0.38958
 Alpha  occ. eigenvalues --   -0.38750  -0.38429  -0.37961  -0.37828  -0.37418
 Alpha  occ. eigenvalues --   -0.37297  -0.37050  -0.36347  -0.36155  -0.35674
 Alpha  occ. eigenvalues --   -0.35290  -0.34992  -0.34931  -0.34120  -0.33432
 Alpha  occ. eigenvalues --   -0.33015  -0.32462  -0.31916  -0.30578  -0.26820
 Alpha  occ. eigenvalues --   -0.23069
 Alpha virt. eigenvalues --   -0.07338   0.00053   0.02154   0.03769   0.04511
 Alpha virt. eigenvalues --    0.06997   0.07476   0.07534   0.08735   0.09599
 Alpha virt. eigenvalues --    0.10581   0.11376   0.12068   0.12517   0.12753

 Mulliken charges:
               1
     1  Mg   0.975715
     2  C   -0.035430
     3  C   -0.058701
     4  C   -0.061493
     5  C   -0.071928
     6  N   -0.326442
     7  C    0.024953
     8  C   -0.104472
     9  C   -0.092718
    10  C    0.020308
    11  C    0.040210
    12  C    0.044148
    13  C    0.008075
    14  C    0.206022
    15  O   -0.263518
    16  O   -0.343226
    17  N   -0.425034
    18  C    0.111453
    19  C   -0.137225
    20  C   -0.058587
    21  C    0.193073
    22  C    0.077639
    23  C    0.029695
    24  O   -0.241880
    25  C   -0.012610
    26  N   -0.456381
    27  C    0.047824
    28  C   -0.059977
    29  C   -0.100295
    30  C    0.125165
    31  C    0.006587
    32  C   -0.014707
    33  C   -0.054795
    34  N   -0.330294
    35  C    0.050965
    36  C   -0.204973
    37  C   -0.074056
    38  C    0.129605
    39  C    0.076619
    40  C    0.113744
    41  O   -0.196235
    42  C   -0.065605
    43  C    0.260504
    44  O   -0.281995
    45  O   -0.349210
    46  C    0.145167
    47  C    0.240231
    48  C   -0.112613
    49  C   -0.252478
    50  C    0.020488
    51  C    0.040246
    52  C   -0.005909
    53  C   -0.013093
    54  C   -0.159226
    55  C    0.006538
    56  C   -0.003955
    57  C   -0.006844
    58  C    0.007238
    59  C   -0.218669
    60  C    0.029777
    61  C    0.008322
    62  C   -0.023121
    63  C    0.000006
    64  C   -0.211675
    65  C   -0.027812
    66  C    0.012550
    67  H    0.006931
    68  H   -0.028975
    69  H   -0.003750
    70  H    0.025323
    71  H    0.031435
    72  H    0.029638
    73  H    0.053578
    74  H    0.033412
    75  H    0.010307
    76  H    0.051121
    77  H    0.073417
    78  H    0.055493
    79  H    0.058402
    80  H    0.071050
    81  H    0.020084
    82  H    0.058464
    83  H    0.060836
    84  H    0.053712
    85  H    0.047900
    86  H    0.034011
    87  H    0.042534
    88  H    0.033516
    89  H    0.039839
    90  H    0.044835
    91  H    0.022789
    92  H    0.037991
    93  H    0.028721
    94  H    0.035354
    95  H    0.073086
    96  H    0.076300
    97  H    0.035649
    98  H    0.058145
    99  H    0.040773
   100  H    0.065459
   101  H    0.052442
   102  H    0.061087
   103  H    0.059099
   104  H    0.032060
   105  H    0.022580
   106  H    0.054486
   107  H    0.044695
   108  H    0.011107
   109  H    0.035454
   110  H    0.013186
   111  H    0.034200
   112  H    0.015447
   113  H    0.022073
   114  H    0.010562
   115  H    0.017877
   116  H    0.030324
   117  H    0.033389
   118  H    0.002147
   119  H    0.002782
   120  H    0.020027
   121  H    0.018073
   122  H    0.019339
   123  H    0.024519
   124  H    0.015553
   125  H    0.031407
   126  H    0.030798
   127  H    0.032430
   128  H   -0.002150
   129  H    0.014428
   130  H    0.016459
   131  H    0.021299
   132  H    0.015780
   133  H    0.009884
   134  H    0.030804
   135  H    0.024247
   136  H    0.035176
   137  H    0.028740
   138  H    0.019623
   139  H    0.035052
   140  H    0.030454
 Sum of Mulliken charges =  -0.00000

 Dipole moment (field-independent basis, Debye):
    X=              2.6930    Y=              2.6156    Z=             -0.1896  Tot=              3.7589
 Quadrupole moment (field-independent basis, Debye-Ang):
   XX=           -368.1179   YY=           -425.1303   ZZ=           -387.1904
   XY=             39.1560   XZ=             -6.4489   YZ=              9.1092

 Normal termination of Gaussian 16 at Wed Apr 27 11:52:21 2022.
