 Gaussian 16, Revision A.03,
 Gaussian 16:  ES64L-G16RevA.03 25-Dec-2016

 --------------------
 #p ZINDO=(nstates=5)
 --------------------

 ------------------------------
 step_1151_chromophore_20 ZINDO
 ------------------------------
 Symbolic Z-matrix:
 Charge =  0 Multiplicity = 1

                         Standard orientation:
 ---------------------------------------------------------------------
 Center     Atomic      Atomic             Coordinates (Angstroms)
 Number     Number       Type             X           Y           Z
 ---------------------------------------------------------------------
      1         12           0        4.478976    1.242949   -0.570786
      2          6           0        3.899948   -2.199921   -1.075492
      3          6           0        1.869058    1.828393   -2.900332
      4          6           0        4.472043    4.363051    0.328313
      5          6           0        6.589322    0.314468    2.092985
      6          7           0        3.028309   -0.011386   -1.717473
      7          6           0        3.028820   -1.418373   -1.823946
      8          6           0        2.015099   -1.887545   -2.926381
      9          6           0        1.835464   -0.634114   -3.774949
     10          6           0        2.319603    0.482279   -2.749674
     11          6           0        2.676673   -0.570154   -5.098408
     12          6           0        0.657260   -2.291482   -2.312521
     13          6           0       -0.082939   -3.531426   -2.978724
     14          6           0       -1.139683   -4.323560   -2.240632
     15          8           0       -2.050422   -4.828705   -2.854839
     16          8           0       -0.987491   -4.401578   -0.902075
     17          7           0        3.264500    2.856379   -1.142353
     18          6           0        2.360780    2.944764   -2.171716
     19          6           0        1.794486    4.338739   -2.212390
     20          6           0        2.555960    5.072995   -1.293463
     21          6           0        3.501990    4.086824   -0.678099
     22          6           0        0.772598    4.747414   -3.200109
     23          6           0        2.480387    6.554726   -1.086845
     24          8           0        1.642921    7.295079   -1.629990
     25          6           0        3.481496    7.251735   -0.119674
     26          7           0        5.332159    2.181083    0.968840
     27          6           0        5.354346    3.567916    0.991535
     28          6           0        6.316158    4.120362    2.083579
     29          6           0        6.875584    2.837576    2.765108
     30          6           0        6.175847    1.655736    1.927897
     31          6           0        7.347965    5.097205    1.437677
     32          6           0        6.460241    2.730615    4.279342
     33          6           0        7.480775    2.304787    5.334418
     34          7           0        5.112268   -0.579037    0.351757
     35          6           0        6.058481   -0.766414    1.285146
     36          6           0        6.419716   -2.142479    1.395561
     37          6           0        5.529485   -2.751383    0.507349
     38          6           0        4.718371   -1.732741   -0.032675
     39          6           0        7.495832   -2.722289    2.289435
     40          6           0        5.112132   -4.041147    0.049315
     41          8           0        5.565672   -5.134545    0.309820
     42          6           0        4.025854   -3.667496   -1.030525
     43          6           0        2.816873   -4.346203   -0.559897
     44          8           0        2.276660   -4.204013    0.567793
     45          8           0        2.340967   -5.230689   -1.460210
     46          6           0        1.658121   -6.402451   -0.944094
     47          6           0       -2.000831   -5.242036   -0.174571
     48          6           0       -3.293844   -4.499572    0.041961
     49          6           0       -4.383788   -4.889953    0.805758
     50          6           0       -4.440042   -6.203231    1.638620
     51          6           0       -5.574966   -3.979598    0.976857
     52          6           0       -5.272681   -2.760157    1.836498
     53          6           0       -6.221846   -2.704119    3.023729
     54          6           0       -6.404861   -1.299575    3.627865
     55          6           0       -6.557355   -1.484966    5.174621
     56          6           0       -7.474536   -0.457150    2.903839
     57          6           0       -7.178514    0.961040    2.495169
     58          6           0       -6.916570    1.016375    0.967600
     59          6           0       -8.263980    1.251563    0.144769
     60          6           0       -8.223118    0.774643   -1.338933
     61          6           0       -8.684483    2.720991    0.378734
     62          6           0      -10.061632    2.828642    0.891865
     63          6           0      -10.788710    3.990642    0.195046
     64          6           0      -11.890029    3.456065   -0.831115
     65          6           0      -11.520231    3.738186   -2.362632
     66          6           0      -13.217582    4.073897   -0.396173
     67          1           0        1.146095    2.055241   -3.686811
     68          1           0        4.780526    5.399812    0.475833
     69          1           0        7.398590   -0.018886    2.746248
     70          1           0        2.380554   -2.722804   -3.523241
     71          1           0        0.816069   -0.275854   -3.919641
     72          1           0        3.431487    0.162489   -4.811856
     73          1           0        2.199093   -0.303742   -6.041443
     74          1           0        3.244710   -1.480817   -5.287189
     75          1           0        0.003399   -1.421972   -2.388615
     76          1           0        0.777027   -2.187789   -1.233344
     77          1           0        0.590773   -4.176201   -3.544172
     78          1           0       -0.684547   -2.974995   -3.697404
     79          1           0        1.003446    5.716044   -3.645028
     80          1           0       -0.276817    4.618738   -2.933827
     81          1           0        0.958160    4.112836   -4.066106
     82          1           0        4.458873    7.069968   -0.568278
     83          1           0        3.475384    6.802369    0.873717
     84          1           0        3.260060    8.312026   -0.005408
     85          1           0        5.727270    4.678568    2.810718
     86          1           0        7.947327    2.641340    2.745230
     87          1           0        7.333834    5.200344    0.352857
     88          1           0        8.358147    4.747965    1.652759
     89          1           0        7.266478    6.117575    1.812002
     90          1           0        5.632355    2.032203    4.398216
     91          1           0        6.059205    3.716674    4.515355
     92          1           0        7.580443    3.037706    6.134455
     93          1           0        8.485302    2.069112    4.982197
     94          1           0        7.143018    1.388442    5.818651
     95          1           0        7.895839   -3.452750    1.585985
     96          1           0        6.824428   -2.979450    3.108889
     97          1           0        8.297528   -2.063496    2.620611
     98          1           0        4.351593   -4.128494   -1.962897
     99          1           0        2.230415   -6.922298   -0.175932
    100          1           0        1.425027   -7.137131   -1.714658
    101          1           0        0.872776   -6.046261   -0.276537
    102          1           0       -1.560886   -5.565928    0.769327
    103          1           0       -2.196811   -6.170227   -0.712228
    104          1           0       -3.501860   -3.687411   -0.654858
    105          1           0       -3.497707   -6.750787    1.610807
    106          1           0       -5.255368   -6.767433    1.185839
    107          1           0       -4.642541   -6.061057    2.699962
    108          1           0       -6.398191   -4.549902    1.408822
    109          1           0       -5.861717   -3.710826   -0.039997
    110          1           0       -5.352545   -1.853539    1.236280
    111          1           0       -4.212487   -2.856464    2.069742
    112          1           0       -5.784984   -3.365452    3.771665
    113          1           0       -7.214869   -3.081566    2.779774
    114          1           0       -5.486140   -0.774040    3.364797
    115          1           0       -7.166115   -0.664577    5.554182
    116          1           0       -5.607584   -1.401838    5.703832
    117          1           0       -6.968627   -2.444275    5.486986
    118          1           0       -8.361599   -0.399885    3.535226
    119          1           0       -7.775299   -1.022067    2.022155
    120          1           0       -6.330902    1.273368    3.106216
    121          1           0       -8.058584    1.525791    2.801014
    122          1           0       -6.457280    0.109232    0.575456
    123          1           0       -6.290398    1.906071    0.910753
    124          1           0       -9.076392    0.618100    0.500918
    125          1           0       -8.676218   -0.216965   -1.342864
    126          1           0       -7.161534    0.696068   -1.573570
    127          1           0       -8.803962    1.508450   -1.896491
    128          1           0       -8.572751    3.276162   -0.553701
    129          1           0       -8.004260    3.347197    0.957227
    130          1           0       -9.963713    3.005401    1.962441
    131          1           0      -10.616477    1.891558    0.860000
    132          1           0      -10.084087    4.684850   -0.264314
    133          1           0      -11.216699    4.625445    0.970936
    134          1           0      -11.985020    2.374555   -0.923519
    135          1           0      -11.859560    4.717127   -2.700496
    136          1           0      -11.947467    2.974167   -3.011221
    137          1           0      -10.433132    3.726493   -2.437689
    138          1           0      -14.000303    3.319899   -0.481752
    139          1           0      -13.459129    4.922154   -1.036372
    140          1           0      -13.152765    4.274040    0.673680
 ---------------------------------------------------------------------

 SCF Done:  E(RZINDO/S) =  -474.359683910     A.U. after   20 cycles

 Excitation energies and oscillator strengths:

 Excited State   1:      Singlet-A      1.2976 eV  955.51 nm  f=0.5781  <S**2>=0.000
     175 ->178        -0.15613
     176 ->177         0.67234
 This state for optimization and/or second-order correction.
 Total Energy, E(CIS/TDA) =  -474.311999151
 Copying the excited state density for this state as the 1-particle RhoCI density.

 Excited State   2:      Singlet-A      1.9646 eV  631.08 nm  f=0.0167  <S**2>=0.000
     175 ->177         0.51093
     176 ->178         0.45576

 Excited State   3:      Singlet-A      2.9164 eV  425.12 nm  f=0.1561  <S**2>=0.000
     175 ->177        -0.15839
     176 ->178         0.18363
     176 ->179        -0.25574
     176 ->180         0.59677

 Excited State   4:      Singlet-A      2.9657 eV  418.06 nm  f=0.0058  <S**2>=0.000
     167 ->177         0.13778
     167 ->179        -0.22537
     167 ->181         0.11315
     167 ->185        -0.10364
     168 ->177         0.26631
     168 ->178         0.14829
     168 ->179        -0.40838
     168 ->181         0.20012
     168 ->185        -0.18659
     168 ->192        -0.10205

 Excited State   5:      Singlet-A      2.9843 eV  415.46 nm  f=0.5591  <S**2>=0.000
     175 ->177        -0.32031
     176 ->178         0.35240
     176 ->179         0.39198
     176 ->181         0.23796

 The electronic state is 1-A.
 Alpha  occ. eigenvalues --   -1.87764  -1.81892  -1.79413  -1.74097  -1.72427
 Alpha  occ. eigenvalues --   -1.70755  -1.66839  -1.61520  -1.59889  -1.57963
 Alpha  occ. eigenvalues --   -1.54034  -1.49723  -1.48875  -1.47537  -1.46536
 Alpha  occ. eigenvalues --   -1.44107  -1.41938  -1.40450  -1.38407  -1.38180
 Alpha  occ. eigenvalues --   -1.35903  -1.34178  -1.32837  -1.32099  -1.29409
 Alpha  occ. eigenvalues --   -1.28723  -1.27139  -1.22984  -1.19867  -1.18076
 Alpha  occ. eigenvalues --   -1.16795  -1.16132  -1.14771  -1.13855  -1.13491
 Alpha  occ. eigenvalues --   -1.13343  -1.11084  -1.08245  -1.05890  -1.03859
 Alpha  occ. eigenvalues --   -1.01897  -1.00885  -0.98853  -0.97803  -0.96431
 Alpha  occ. eigenvalues --   -0.95974  -0.95563  -0.95023  -0.93126  -0.93033
 Alpha  occ. eigenvalues --   -0.91161  -0.90907  -0.89231  -0.87841  -0.86307
 Alpha  occ. eigenvalues --   -0.85579  -0.84045  -0.83426  -0.81635  -0.80559
 Alpha  occ. eigenvalues --   -0.79871  -0.79127  -0.77678  -0.77169  -0.76526
 Alpha  occ. eigenvalues --   -0.75167  -0.74542  -0.74485  -0.73796  -0.72839
 Alpha  occ. eigenvalues --   -0.72274  -0.72128  -0.71429  -0.71098  -0.70663
 Alpha  occ. eigenvalues --   -0.70430  -0.69195  -0.68740  -0.68232  -0.68052
 Alpha  occ. eigenvalues --   -0.67508  -0.66989  -0.66550  -0.66410  -0.65742
 Alpha  occ. eigenvalues --   -0.65387  -0.65340  -0.64237  -0.63898  -0.63800
 Alpha  occ. eigenvalues --   -0.63294  -0.62860  -0.62732  -0.62338  -0.62147
 Alpha  occ. eigenvalues --   -0.61334  -0.61118  -0.60459  -0.60164  -0.59587
 Alpha  occ. eigenvalues --   -0.59178  -0.59012  -0.58550  -0.58307  -0.58105
 Alpha  occ. eigenvalues --   -0.57352  -0.57315  -0.57204  -0.57093  -0.56459
 Alpha  occ. eigenvalues --   -0.56126  -0.55763  -0.55594  -0.55049  -0.54855
 Alpha  occ. eigenvalues --   -0.54595  -0.53901  -0.53701  -0.53314  -0.53223
 Alpha  occ. eigenvalues --   -0.53037  -0.52619  -0.52141  -0.51729  -0.51555
 Alpha  occ. eigenvalues --   -0.51316  -0.50773  -0.50390  -0.50117  -0.50016
 Alpha  occ. eigenvalues --   -0.49868  -0.49828  -0.49390  -0.49205  -0.49098
 Alpha  occ. eigenvalues --   -0.48935  -0.48208  -0.47989  -0.47745  -0.47627
 Alpha  occ. eigenvalues --   -0.47257  -0.47087  -0.46773  -0.46696  -0.46490
 Alpha  occ. eigenvalues --   -0.46283  -0.46130  -0.45923  -0.45260  -0.45215
 Alpha  occ. eigenvalues --   -0.44917  -0.44411  -0.44063  -0.43784  -0.43430
 Alpha  occ. eigenvalues --   -0.43018  -0.42647  -0.41858  -0.41759  -0.41682
 Alpha  occ. eigenvalues --   -0.41247  -0.40258  -0.39801  -0.39251  -0.38028
 Alpha  occ. eigenvalues --   -0.37702  -0.36946  -0.36385  -0.34929  -0.34558
 Alpha  occ. eigenvalues --   -0.33770  -0.33193  -0.31632  -0.30311  -0.27515
 Alpha  occ. eigenvalues --   -0.21972
 Alpha virt. eigenvalues --   -0.08597  -0.02381  -0.01029   0.00547   0.01048
 Alpha virt. eigenvalues --    0.02663   0.02969   0.03108   0.04529   0.05022
 Alpha virt. eigenvalues --    0.06112   0.06314   0.06801   0.07519   0.07811

 Mulliken charges:
               1
     1  Mg   0.435581
     2  C   -0.009699
     3  C   -0.078946
     4  C   -0.109324
     5  C   -0.077035
     6  N   -0.275436
     7  C    0.069785
     8  C    0.013387
     9  C    0.000925
    10  C    0.161464
    11  C   -0.057174
    12  C   -0.036059
    13  C    0.002263
    14  C    0.482956
    15  O   -0.527138
    16  O   -0.260587
    17  N   -0.310628
    18  C    0.113450
    19  C    0.069134
    20  C   -0.045114
    21  C    0.164857
    22  C   -0.032788
    23  C    0.324986
    24  O   -0.523038
    25  C   -0.030658
    26  N   -0.286793
    27  C    0.156691
    28  C    0.012313
    29  C   -0.005802
    30  C    0.081271
    31  C   -0.052272
    32  C   -0.031942
    33  C   -0.055288
    34  N   -0.287070
    35  C    0.061369
    36  C    0.011748
    37  C   -0.071765
    38  C    0.101132
    39  C   -0.051835
    40  C    0.332704
    41  O   -0.527504
    42  C    0.067144
    43  C    0.496893
    44  O   -0.549480
    45  O   -0.277080
    46  C    0.067439
    47  C    0.113319
    48  C   -0.096162
    49  C   -0.010283
    50  C   -0.046048
    51  C   -0.018793
    52  C   -0.028456
    53  C   -0.029587
    54  C   -0.015400
    55  C   -0.055984
    56  C   -0.033317
    57  C   -0.035128
    58  C   -0.035273
    59  C   -0.027355
    60  C   -0.063836
    61  C   -0.028744
    62  C   -0.029100
    63  C   -0.033416
    64  C   -0.020954
    65  C   -0.064653
    66  C   -0.057573
    67  H    0.035286
    68  H    0.024018
    69  H    0.038560
    70  H    0.028182
    71  H    0.035169
    72  H    0.020595
    73  H    0.032120
    74  H    0.021161
    75  H    0.013695
    76  H    0.041640
    77  H    0.055045
    78  H    0.034135
    79  H    0.042324
    80  H    0.051359
    81  H    0.014322
    82  H    0.036505
    83  H    0.036318
    84  H    0.039421
    85  H    0.037420
    86  H    0.036348
    87  H    0.022929
    88  H    0.017877
    89  H    0.018996
    90  H    0.024526
    91  H    0.014355
    92  H    0.017807
    93  H    0.019977
    94  H    0.016485
    95  H    0.044230
    96  H    0.052454
    97  H    0.024649
    98  H    0.047520
    99  H    0.037939
   100  H    0.043788
   101  H    0.053599
   102  H    0.041397
   103  H    0.050307
   104  H    0.036364
   105  H    0.019913
   106  H    0.031633
   107  H    0.026517
   108  H    0.017170
   109  H    0.022217
   110  H    0.017198
   111  H    0.027832
   112  H    0.014085
   113  H    0.021152
   114  H    0.017199
   115  H    0.012098
   116  H    0.016086
   117  H    0.024406
   118  H    0.006364
   119  H    0.013779
   120  H    0.018920
   121  H    0.022204
   122  H    0.026273
   123  H    0.018274
   124  H    0.018855
   125  H    0.020583
   126  H    0.024789
   127  H    0.029344
   128  H    0.007495
   129  H    0.018105
   130  H    0.008893
   131  H    0.023473
   132  H    0.021057
   133  H    0.013199
   134  H    0.027155
   135  H    0.018381
   136  H    0.019827
   137  H    0.016742
   138  H    0.009231
   139  H    0.027889
   140  H    0.022543
 Sum of Mulliken charges =  -0.00000

 Dipole moment (field-independent basis, Debye):
    X=              3.6512    Y=              5.2379    Z=             -3.0697  Tot=              7.0845
 N-N= 4.460116527593D+03 E-N= 0.000000000000D+00  KE=-9.594870354793D+03
 Leave Link  601 at Wed Apr 27 12:05:36 2022, MaxMem=  6710886400 cpu:               0.8 elap:               0.0
 (Enter /sw/apps/gaussian-16.0/g16/l9999.exe)
 1\1\GINC-BP1-COMPUTE216\SP\RZINDO CIS\STO-3G\C55H74Mg1N4O6\OF15641\27-
 Apr-2022\0\\#p ZINDO=(nstates=5)\\step_1151_chromophore_20 ZINDO\\0,1\
 Mg,0,5.967,57.21,42.074\C,0,5.187,53.822,41.477\C,0,9.216,56.479,40.85
 3\C,0,6.559,60.4,41.944\C,0,2.531,57.71,42.67\N,0,6.996,55.436,41.187\
 C,0,6.493,54.12,41.109\C,0,7.621,53.125,40.661\C,0,8.897,53.889,40.995
 \C,0,8.335,55.376,41.065\C,0,9.601,53.501,42.343\C,0,7.567,52.854,39.1
 42\C,0,7.906,51.373,38.672\C,0,7.458,50.837,37.33\O,0,8.138,50.022,36.

 Normal termination of Gaussian 16 at Wed Apr 27 12:05:36 2022.
