 Gaussian 16, Revision A.03,
 Gaussian 16:  ES64L-G16RevA.03 25-Dec-2016

 ------------------------------
 #p blyp/Def2SVP td=(nstates=5)
 ------------------------------

 --------------------------------------------------
 step_1251_chromophore_5 TDDFT with blyp functional
 --------------------------------------------------
 Symbolic Z-matrix:
 Charge =  0 Multiplicity = 1

                         Standard orientation:
 ---------------------------------------------------------------------
 Center     Atomic      Atomic             Coordinates (Angstroms)
 Number     Number       Type             X           Y           Z
 ---------------------------------------------------------------------
      1         12           0        5.398148    0.237742   -0.493586
      2          6           0        3.713139   -2.705231   -0.460843
      3          6           0        3.111143    1.664769   -2.557966
      4          6           0        6.765625    3.415983    0.194118
      5          6           0        7.665478   -1.066238    1.850285
      6          7           0        3.710803   -0.435209   -1.415534
      7          6           0        3.176685   -1.722901   -1.295387
      8          6           0        1.834181   -1.758852   -2.011875
      9          6           0        1.898133   -0.541972   -2.975387
     10          6           0        3.005238    0.277092   -2.306245
     11          6           0        2.276682   -0.987557   -4.403826
     12          6           0        0.615292   -1.628575   -1.089313
     13          6           0       -0.473323   -2.679624   -1.233049
     14          6           0       -1.879791   -2.184075   -1.581943
     15          8           0       -2.204474   -1.706271   -2.668152
     16          8           0       -2.786016   -2.223689   -0.513563
     17          7           0        5.017063    2.281792   -1.190315
     18          6           0        3.993881    2.619838   -1.984681
     19          6           0        4.052259    4.088799   -2.146291
     20          6           0        5.064790    4.612739   -1.308785
     21          6           0        5.715791    3.425590   -0.742303
     22          6           0        2.968214    4.790635   -2.990600
     23          6           0        5.418888    6.102524   -1.234570
     24          8           0        4.639333    6.932964   -1.683695
     25          6           0        6.596122    6.624143   -0.492129
     26          7           0        6.938066    1.098579    0.767888
     27          6           0        7.365559    2.373681    0.882683
     28          6           0        8.403647    2.550918    1.971175
     29          6           0        8.680740    1.148098    2.559650
     30          6           0        7.756674    0.333312    1.621966
     31          6           0        9.732796    3.188580    1.536090
     32          6           0        8.457658    1.083019    4.124712
     33          6           0        9.619954    0.531040    5.015331
     34          7           0        5.746648   -1.577277    0.471554
     35          6           0        6.659728   -2.039139    1.368799
     36          6           0        6.308115   -3.388123    1.780434
     37          6           0        5.109429   -3.756068    1.070931
     38          6           0        4.867072   -2.601199    0.322426
     39          6           0        7.148765   -4.190378    2.717301
     40          6           0        4.139583   -4.706636    0.906257
     41          8           0        3.981474   -5.800524    1.449358
     42          6           0        3.005540   -4.051321   -0.023433
     43          6           0        2.627808   -4.979364   -1.087894
     44          8           0        1.542142   -5.384419   -1.369731
     45          8           0        3.813425   -5.315534   -1.723800
     46          6           0        3.664965   -6.283042   -2.862950
     47          6           0       -4.104542   -1.640398   -0.708416
     48          6           0       -4.094086   -0.196946   -0.332676
     49          6           0       -4.612939    0.337190    0.819277
     50          6           0       -5.100488   -0.395530    2.093591
     51          6           0       -4.505644    1.880427    0.916819
     52          6           0       -5.594113    2.713680    0.057536
     53          6           0       -6.733905    3.446191    0.911679
     54          6           0       -8.154495    2.826190    0.742033
     55          6           0       -9.148394    3.855261    0.300755
     56          6           0       -8.684370    2.230404    2.084228
     57          6           0      -10.025075    1.519640    1.771207
     58          6           0      -10.190764    0.038139    2.239519
     59          6           0      -10.939493   -0.873496    1.227102
     60          6           0       -9.966410   -1.716001    0.403716
     61          6           0      -12.124823   -1.699287    1.745912
     62          6           0      -13.509764   -0.948878    1.784365
     63          6           0      -14.178921   -0.845385    0.377634
     64          6           0      -14.194787    0.570729   -0.240849
     65          6           0      -15.635836    1.039701   -0.607823
     66          6           0      -13.333322    0.612354   -1.498929
     67          1           0        2.437473    2.078866   -3.311640
     68          1           0        7.014019    4.431084    0.510377
     69          1           0        8.404545   -1.603650    2.448038
     70          1           0        1.825430   -2.635164   -2.660024
     71          1           0        1.000056    0.073853   -3.010321
     72          1           0        1.755684   -1.900246   -4.692606
     73          1           0        3.314958   -1.153093   -4.692765
     74          1           0        1.902820   -0.200860   -5.059770
     75          1           0        0.064663   -0.730342   -1.367916
     76          1           0        1.013735   -1.503843   -0.082723
     77          1           0       -0.572605   -3.230980   -0.297261
     78          1           0       -0.148417   -3.446385   -1.936696
     79          1           0        2.749646    4.270693   -3.923374
     80          1           0        3.302114    5.776984   -3.311336
     81          1           0        2.062330    4.884075   -2.390423
     82          1           0        7.518546    6.144239   -0.819166
     83          1           0        6.445154    6.433952    0.569906
     84          1           0        6.665355    7.707834   -0.584207
     85          1           0        8.135556    3.310191    2.705318
     86          1           0        9.689420    0.817053    2.313477
     87          1           0        9.617741    3.277242    0.456377
     88          1           0       10.667975    2.650959    1.690638
     89          1           0        9.778510    4.234579    1.840203
     90          1           0        7.633995    0.391018    4.299424
     91          1           0        8.239040    2.070577    4.532135
     92          1           0       10.463799    0.106894    4.471605
     93          1           0        9.235656   -0.230883    5.694542
     94          1           0        9.968254    1.332298    5.666807
     95          1           0        7.460276   -3.708506    3.644315
     96          1           0        7.998815   -4.438685    2.082320
     97          1           0        6.519137   -5.047929    2.951703
     98          1           0        2.095017   -3.843060    0.537405
     99          1           0        4.249185   -7.173169   -2.628708
    100          1           0        3.942049   -5.731364   -3.760681
    101          1           0        2.656454   -6.578851   -3.152445
    102          1           0       -4.730932   -2.073905    0.070634
    103          1           0       -4.519390   -1.856953   -1.692790
    104          1           0       -3.741095    0.514153   -1.079236
    105          1           0       -4.751497   -1.428245    2.086775
    106          1           0       -6.189319   -0.376779    2.059700
    107          1           0       -4.732765    0.011731    3.035380
    108          1           0       -3.597169    2.322236    0.507349
    109          1           0       -4.622780    2.098522    1.978296
    110          1           0       -6.046887    2.042112   -0.671826
    111          1           0       -4.973828    3.384189   -0.537207
    112          1           0       -6.737258    4.523858    0.742504
    113          1           0       -6.395114    3.231617    1.924777
    114          1           0       -8.145370    2.068513   -0.042245
    115          1           0       -8.813184    4.875366    0.488632
    116          1           0      -10.147977    3.776220    0.728152
    117          1           0       -9.266567    3.756629   -0.778146
    118          1           0       -8.950845    3.051676    2.750965
    119          1           0       -7.907413    1.529310    2.387893
    120          1           0      -10.283134    1.678731    0.724750
    121          1           0      -10.701362    1.992932    2.483390
    122          1           0      -10.772430    0.076756    3.160531
    123          1           0       -9.186672   -0.301468    2.490325
    124          1           0      -11.518520   -0.220258    0.573622
    125          1           0      -10.225894   -1.597685   -0.648161
    126          1           0       -9.886821   -2.779038    0.634284
    127          1           0       -8.948984   -1.335635    0.487037
    128          1           0      -11.908618   -2.048482    2.755131
    129          1           0      -12.198079   -2.572650    1.096615
    130          1           0      -13.163513   -0.016654    2.232302
    131          1           0      -14.152227   -1.464660    2.498227
    132          1           0      -15.179123   -1.251843    0.529431
    133          1           0      -13.600182   -1.494965   -0.279158
    134          1           0      -13.782984    1.323509    0.430400
    135          1           0      -16.363364    0.258612   -0.382478
    136          1           0      -15.828925    1.164579   -1.673215
    137          1           0      -15.787488    1.966053   -0.053327
    138          1           0      -13.728505    1.255035   -2.285746
    139          1           0      -13.184336   -0.363544   -1.961164
    140          1           0      -12.394473    1.110053   -1.256603
 ---------------------------------------------------------------------

 SCF Done:  E(RB-LYP) =  -3007.36410374     A.U. after   21 cycles

 Excitation energies and oscillator strengths:

 Excited State   1:      Singlet-A      1.7793 eV  696.83 nm  f=0.2594  <S**2>=0.000
     244 -> 247        0.26695
     245 -> 248        0.16427
     246 -> 247        0.64247
     246 <- 247       -0.14300
 This state for optimization and/or second-order correction.
 Total Energy, E(TD-HF/TD-DFT) =  -3007.29871695
 Copying the excited state density for this state as the 1-particle RhoCI density.

 Excited State   2:      Singlet-A      1.8421 eV  673.08 nm  f=0.0523  <S**2>=0.000
     244 -> 247        0.65014
     246 -> 247       -0.26220

 Excited State   3:      Singlet-A      1.8983 eV  653.15 nm  f=0.0006  <S**2>=0.000
     243 -> 247        0.70445

 Excited State   4:      Singlet-A      2.0056 eV  618.20 nm  f=0.0757  <S**2>=0.000
     245 -> 247        0.64825
     246 -> 248       -0.23963

 Excited State   5:      Singlet-A      2.2047 eV  562.37 nm  f=0.0003  <S**2>=0.000
     242 -> 247        0.70594

 The electronic state is 1-A.
 Alpha  occ. eigenvalues --  -46.27397 -18.81687 -18.80961 -18.77314 -18.76245
 Alpha  occ. eigenvalues --  -18.75817 -18.75366 -14.04127 -14.03904 -14.01353
 Alpha  occ. eigenvalues --  -14.01219 -10.03645 -10.03614 -10.00441  -9.99268
 Alpha  occ. eigenvalues --   -9.97520  -9.97281  -9.97137  -9.97001  -9.96937
 Alpha  occ. eigenvalues --   -9.96821  -9.96644  -9.95831  -9.95729  -9.94717
 Alpha  occ. eigenvalues --   -9.94419  -9.94234  -9.94215  -9.94125  -9.94081
 Alpha  occ. eigenvalues --   -9.93965  -9.93858  -9.93705  -9.93670  -9.93636
 Alpha  occ. eigenvalues --   -9.93387  -9.93247  -9.93210  -9.93067  -9.93042
 Alpha  occ. eigenvalues --   -9.92908  -9.92696  -9.92572  -9.92471  -9.92422
 Alpha  occ. eigenvalues --   -9.92340  -9.92274  -9.92028  -9.91793  -9.91793
 Alpha  occ. eigenvalues --   -9.91785  -9.91522  -9.91401  -9.91358  -9.91350
 Alpha  occ. eigenvalues --   -9.91239  -9.91142  -9.91123  -9.91100  -9.90972
 Alpha  occ. eigenvalues --   -9.90755  -9.90565  -9.90515  -9.90474  -9.90408
 Alpha  occ. eigenvalues --   -9.90139  -2.92050  -1.72489  -1.71885  -1.71803
 Alpha  occ. eigenvalues --   -0.97725  -0.96236  -0.91988  -0.90784  -0.90303
 Alpha  occ. eigenvalues --   -0.88644  -0.87076  -0.86342  -0.86076  -0.84845
 Alpha  occ. eigenvalues --   -0.75766  -0.73285  -0.73217  -0.72813  -0.72461
 Alpha  occ. eigenvalues --   -0.72014  -0.71906  -0.71054  -0.70678  -0.70065
 Alpha  occ. eigenvalues --   -0.69323  -0.68857  -0.67926  -0.67637  -0.67338
 Alpha  occ. eigenvalues --   -0.66492  -0.66155  -0.65668  -0.64895  -0.64753
 Alpha  occ. eigenvalues --   -0.63926  -0.62750  -0.62227  -0.61822  -0.60856
 Alpha  occ. eigenvalues --   -0.60371  -0.59811  -0.59647  -0.59372  -0.58884
 Alpha  occ. eigenvalues --   -0.57964  -0.57518  -0.56913  -0.55382  -0.55088
 Alpha  occ. eigenvalues --   -0.54662  -0.53573  -0.52984  -0.52473  -0.51963
 Alpha  occ. eigenvalues --   -0.51834  -0.51069  -0.50715  -0.50536  -0.49401
 Alpha  occ. eigenvalues --   -0.49050  -0.49032  -0.48622  -0.48320  -0.46768
 Alpha  occ. eigenvalues --   -0.46512  -0.46042  -0.45470  -0.45379  -0.44677
 Alpha  occ. eigenvalues --   -0.44008  -0.43229  -0.43055  -0.42607  -0.42391
 Alpha  occ. eigenvalues --   -0.42000  -0.41835  -0.41777  -0.41320  -0.41109
 Alpha  occ. eigenvalues --   -0.41004  -0.40703  -0.40629  -0.40228  -0.40218
 Alpha  occ. eigenvalues --   -0.39894  -0.39792  -0.39447  -0.39192  -0.39086
 Alpha  occ. eigenvalues --   -0.38969  -0.38762  -0.38592  -0.38335  -0.38122
 Alpha  occ. eigenvalues --   -0.38015  -0.37744  -0.37655  -0.37356  -0.37297
 Alpha  occ. eigenvalues --   -0.37195  -0.37013  -0.36647  -0.36551  -0.36361
 Alpha  occ. eigenvalues --   -0.36330  -0.36061  -0.35854  -0.35710  -0.35559
 Alpha  occ. eigenvalues --   -0.35354  -0.35295  -0.35044  -0.34995  -0.34731
 Alpha  occ. eigenvalues --   -0.34630  -0.34433  -0.34247  -0.34005  -0.33880
 Alpha  occ. eigenvalues --   -0.33693  -0.33666  -0.33283  -0.33238  -0.33140
 Alpha  occ. eigenvalues --   -0.32925  -0.32737  -0.32650  -0.32237  -0.32199
 Alpha  occ. eigenvalues --   -0.31801  -0.31758  -0.31685  -0.31539  -0.31400
 Alpha  occ. eigenvalues --   -0.31230  -0.31140  -0.30912  -0.30798  -0.30650
 Alpha  occ. eigenvalues --   -0.30594  -0.30410  -0.30362  -0.30327  -0.30067
 Alpha  occ. eigenvalues --   -0.29954  -0.29427  -0.29245  -0.29058  -0.28743
 Alpha  occ. eigenvalues --   -0.28559  -0.28323  -0.27906  -0.27693  -0.27562
 Alpha  occ. eigenvalues --   -0.27414  -0.27225  -0.27115  -0.27016  -0.26569
 Alpha  occ. eigenvalues --   -0.26452  -0.26124  -0.25772  -0.25448  -0.25205
 Alpha  occ. eigenvalues --   -0.25112  -0.24250  -0.24229  -0.24132  -0.23997
 Alpha  occ. eigenvalues --   -0.23832  -0.22902  -0.22205  -0.21101  -0.21071
 Alpha  occ. eigenvalues --   -0.20535  -0.20156  -0.18966  -0.18705  -0.17725
 Alpha  occ. eigenvalues --   -0.16215
 Alpha virt. eigenvalues --   -0.12058  -0.07230  -0.06709  -0.05253  -0.03512
 Alpha virt. eigenvalues --   -0.02841  -0.02612  -0.02219  -0.01816  -0.00257
 Alpha virt. eigenvalues --    0.00562   0.00947   0.01490   0.02196   0.02392

 Mulliken charges:
               1
     1  Mg   0.702976
     2  C   -0.006413
     3  C   -0.061681
     4  C   -0.066987
     5  C   -0.064794
     6  N   -0.275148
     7  C   -0.064542
     8  C    0.019782
     9  C   -0.023086
    10  C    0.077445
    11  C    0.120181
    12  C    0.154628
    13  C    0.158400
    14  C    0.062464
    15  O   -0.212296
    16  O   -0.279195
    17  N   -0.259147
    18  C    0.102860
    19  C   -0.127205
    20  C    0.025488
    21  C    0.096923
    22  C    0.161213
    23  C   -0.077225
    24  O   -0.164548
    25  C    0.151705
    26  N   -0.216088
    27  C    0.091900
    28  C   -0.027151
    29  C    0.076696
    30  C    0.048989
    31  C    0.106625
    32  C    0.094675
    33  C    0.041604
    34  N   -0.246327
    35  C    0.046329
    36  C   -0.185642
    37  C    0.152933
    38  C    0.091447
    39  C    0.159273
    40  C   -0.092250
    41  O   -0.142672
    42  C    0.054764
    43  C    0.086637
    44  O   -0.129685
    45  O   -0.304435
    46  C    0.203447
    47  C    0.364643
    48  C   -0.116270
    49  C   -0.141211
    50  C    0.114987
    51  C    0.103330
    52  C    0.039946
    53  C    0.145037
    54  C   -0.122426
    55  C    0.105321
    56  C    0.112175
    57  C    0.017299
    58  C    0.135971
    59  C   -0.076951
    60  C    0.116841
    61  C    0.068453
    62  C    0.047865
    63  C    0.139221
    64  C   -0.099115
    65  C    0.107553
    66  C    0.093636
    67  H   -0.062956
    68  H   -0.096232
    69  H   -0.057585
    70  H   -0.025510
    71  H   -0.013859
    72  H   -0.002581
    73  H   -0.004395
    74  H   -0.013574
    75  H   -0.011968
    76  H   -0.011583
    77  H   -0.016641
    78  H    0.012208
    79  H   -0.011122
    80  H    0.003175
    81  H    0.011340
    82  H    0.008560
    83  H    0.024790
    84  H   -0.009066
    85  H   -0.015762
    86  H   -0.022715
    87  H   -0.028326
    88  H    0.003394
    89  H   -0.014724
    90  H   -0.010405
    91  H   -0.012519
    92  H   -0.004228
    93  H   -0.007658
    94  H   -0.009419
    95  H    0.001348
    96  H    0.012381
    97  H    0.009249
    98  H   -0.002941
    99  H    0.034481
   100  H    0.008088
   101  H    0.017651
   102  H   -0.033278
   103  H   -0.001560
   104  H   -0.030947
   105  H    0.001807
   106  H    0.022564
   107  H    0.007214
   108  H   -0.013963
   109  H   -0.033753
   110  H   -0.025178
   111  H   -0.034593
   112  H   -0.025026
   113  H   -0.038960
   114  H   -0.028896
   115  H   -0.025110
   116  H   -0.012884
   117  H   -0.025823
   118  H   -0.027059
   119  H   -0.028194
   120  H    0.006688
   121  H   -0.033530
   122  H   -0.045503
   123  H   -0.041448
   124  H   -0.040280
   125  H   -0.020458
   126  H   -0.009743
   127  H   -0.029729
   128  H   -0.043835
   129  H   -0.040999
   130  H   -0.028082
   131  H   -0.032368
   132  H   -0.025861
   133  H   -0.026576
   134  H   -0.027920
   135  H   -0.027916
   136  H   -0.021740
   137  H   -0.005748
   138  H   -0.030275
   139  H   -0.011550
   140  H   -0.009552
 Sum of Mulliken charges =  -0.00000

 Dipole moment (field-independent basis, Debye):
    X=              3.3415    Y=              2.6161    Z=              1.3085  Tot=              4.4409
 Quadrupole moment (field-independent basis, Debye-Ang):
   XX=           -345.4311   YY=           -447.4461   ZZ=           -394.7659
   XY=              5.3604   XZ=              4.2037   YZ=             24.8913

 Normal termination of Gaussian 16 at Wed May  4 03:05:58 2022.
