 Gaussian 16, Revision A.03,
 Gaussian 16:  ES64L-G16RevA.03 25-Dec-2016

 -----------------------------------
 #p cam-b3lyp/Def2SVP td=(nstates=5)
 -----------------------------------

 -------------------------------------------------------
 step_1251_chromophore_5 TDDFT with cam-b3lyp functional
 -------------------------------------------------------
 Symbolic Z-matrix:
 Charge =  0 Multiplicity = 1

                         Standard orientation:
 ---------------------------------------------------------------------
 Center     Atomic      Atomic             Coordinates (Angstroms)
 Number     Number       Type             X           Y           Z
 ---------------------------------------------------------------------
      1         12           0        5.398148    0.237742   -0.493586
      2          6           0        3.713139   -2.705231   -0.460843
      3          6           0        3.111143    1.664769   -2.557966
      4          6           0        6.765625    3.415983    0.194118
      5          6           0        7.665478   -1.066238    1.850285
      6          7           0        3.710803   -0.435209   -1.415534
      7          6           0        3.176685   -1.722901   -1.295387
      8          6           0        1.834181   -1.758852   -2.011875
      9          6           0        1.898133   -0.541972   -2.975387
     10          6           0        3.005238    0.277092   -2.306245
     11          6           0        2.276682   -0.987557   -4.403826
     12          6           0        0.615292   -1.628575   -1.089313
     13          6           0       -0.473323   -2.679624   -1.233049
     14          6           0       -1.879791   -2.184075   -1.581943
     15          8           0       -2.204474   -1.706271   -2.668152
     16          8           0       -2.786016   -2.223689   -0.513563
     17          7           0        5.017063    2.281792   -1.190315
     18          6           0        3.993881    2.619838   -1.984681
     19          6           0        4.052259    4.088799   -2.146291
     20          6           0        5.064790    4.612739   -1.308785
     21          6           0        5.715791    3.425590   -0.742303
     22          6           0        2.968214    4.790635   -2.990600
     23          6           0        5.418888    6.102524   -1.234570
     24          8           0        4.639333    6.932964   -1.683695
     25          6           0        6.596122    6.624143   -0.492129
     26          7           0        6.938066    1.098579    0.767888
     27          6           0        7.365559    2.373681    0.882683
     28          6           0        8.403647    2.550918    1.971175
     29          6           0        8.680740    1.148098    2.559650
     30          6           0        7.756674    0.333312    1.621966
     31          6           0        9.732796    3.188580    1.536090
     32          6           0        8.457658    1.083019    4.124712
     33          6           0        9.619954    0.531040    5.015331
     34          7           0        5.746648   -1.577277    0.471554
     35          6           0        6.659728   -2.039139    1.368799
     36          6           0        6.308115   -3.388123    1.780434
     37          6           0        5.109429   -3.756068    1.070931
     38          6           0        4.867072   -2.601199    0.322426
     39          6           0        7.148765   -4.190378    2.717301
     40          6           0        4.139583   -4.706636    0.906257
     41          8           0        3.981474   -5.800524    1.449358
     42          6           0        3.005540   -4.051321   -0.023433
     43          6           0        2.627808   -4.979364   -1.087894
     44          8           0        1.542142   -5.384419   -1.369731
     45          8           0        3.813425   -5.315534   -1.723800
     46          6           0        3.664965   -6.283042   -2.862950
     47          6           0       -4.104542   -1.640398   -0.708416
     48          6           0       -4.094086   -0.196946   -0.332676
     49          6           0       -4.612939    0.337190    0.819277
     50          6           0       -5.100488   -0.395530    2.093591
     51          6           0       -4.505644    1.880427    0.916819
     52          6           0       -5.594113    2.713680    0.057536
     53          6           0       -6.733905    3.446191    0.911679
     54          6           0       -8.154495    2.826190    0.742033
     55          6           0       -9.148394    3.855261    0.300755
     56          6           0       -8.684370    2.230404    2.084228
     57          6           0      -10.025075    1.519640    1.771207
     58          6           0      -10.190764    0.038139    2.239519
     59          6           0      -10.939493   -0.873496    1.227102
     60          6           0       -9.966410   -1.716001    0.403716
     61          6           0      -12.124823   -1.699287    1.745912
     62          6           0      -13.509764   -0.948878    1.784365
     63          6           0      -14.178921   -0.845385    0.377634
     64          6           0      -14.194787    0.570729   -0.240849
     65          6           0      -15.635836    1.039701   -0.607823
     66          6           0      -13.333322    0.612354   -1.498929
     67          1           0        2.437473    2.078866   -3.311640
     68          1           0        7.014019    4.431084    0.510377
     69          1           0        8.404545   -1.603650    2.448038
     70          1           0        1.825430   -2.635164   -2.660024
     71          1           0        1.000056    0.073853   -3.010321
     72          1           0        1.755684   -1.900246   -4.692606
     73          1           0        3.314958   -1.153093   -4.692765
     74          1           0        1.902820   -0.200860   -5.059770
     75          1           0        0.064663   -0.730342   -1.367916
     76          1           0        1.013735   -1.503843   -0.082723
     77          1           0       -0.572605   -3.230980   -0.297261
     78          1           0       -0.148417   -3.446385   -1.936696
     79          1           0        2.749646    4.270693   -3.923374
     80          1           0        3.302114    5.776984   -3.311336
     81          1           0        2.062330    4.884075   -2.390423
     82          1           0        7.518546    6.144239   -0.819166
     83          1           0        6.445154    6.433952    0.569906
     84          1           0        6.665355    7.707834   -0.584207
     85          1           0        8.135556    3.310191    2.705318
     86          1           0        9.689420    0.817053    2.313477
     87          1           0        9.617741    3.277242    0.456377
     88          1           0       10.667975    2.650959    1.690638
     89          1           0        9.778510    4.234579    1.840203
     90          1           0        7.633995    0.391018    4.299424
     91          1           0        8.239040    2.070577    4.532135
     92          1           0       10.463799    0.106894    4.471605
     93          1           0        9.235656   -0.230883    5.694542
     94          1           0        9.968254    1.332298    5.666807
     95          1           0        7.460276   -3.708506    3.644315
     96          1           0        7.998815   -4.438685    2.082320
     97          1           0        6.519137   -5.047929    2.951703
     98          1           0        2.095017   -3.843060    0.537405
     99          1           0        4.249185   -7.173169   -2.628708
    100          1           0        3.942049   -5.731364   -3.760681
    101          1           0        2.656454   -6.578851   -3.152445
    102          1           0       -4.730932   -2.073905    0.070634
    103          1           0       -4.519390   -1.856953   -1.692790
    104          1           0       -3.741095    0.514153   -1.079236
    105          1           0       -4.751497   -1.428245    2.086775
    106          1           0       -6.189319   -0.376779    2.059700
    107          1           0       -4.732765    0.011731    3.035380
    108          1           0       -3.597169    2.322236    0.507349
    109          1           0       -4.622780    2.098522    1.978296
    110          1           0       -6.046887    2.042112   -0.671826
    111          1           0       -4.973828    3.384189   -0.537207
    112          1           0       -6.737258    4.523858    0.742504
    113          1           0       -6.395114    3.231617    1.924777
    114          1           0       -8.145370    2.068513   -0.042245
    115          1           0       -8.813184    4.875366    0.488632
    116          1           0      -10.147977    3.776220    0.728152
    117          1           0       -9.266567    3.756629   -0.778146
    118          1           0       -8.950845    3.051676    2.750965
    119          1           0       -7.907413    1.529310    2.387893
    120          1           0      -10.283134    1.678731    0.724750
    121          1           0      -10.701362    1.992932    2.483390
    122          1           0      -10.772430    0.076756    3.160531
    123          1           0       -9.186672   -0.301468    2.490325
    124          1           0      -11.518520   -0.220258    0.573622
    125          1           0      -10.225894   -1.597685   -0.648161
    126          1           0       -9.886821   -2.779038    0.634284
    127          1           0       -8.948984   -1.335635    0.487037
    128          1           0      -11.908618   -2.048482    2.755131
    129          1           0      -12.198079   -2.572650    1.096615
    130          1           0      -13.163513   -0.016654    2.232302
    131          1           0      -14.152227   -1.464660    2.498227
    132          1           0      -15.179123   -1.251843    0.529431
    133          1           0      -13.600182   -1.494965   -0.279158
    134          1           0      -13.782984    1.323509    0.430400
    135          1           0      -16.363364    0.258612   -0.382478
    136          1           0      -15.828925    1.164579   -1.673215
    137          1           0      -15.787488    1.966053   -0.053327
    138          1           0      -13.728505    1.255035   -2.285746
    139          1           0      -13.184336   -0.363544   -1.961164
    140          1           0      -12.394473    1.110053   -1.256603
 ---------------------------------------------------------------------

 SCF Done:  E(RCAM-B3LYP) =  -3007.15500348     A.U. after   16 cycles

 Excitation energies and oscillator strengths:

 Excited State   1:      Singlet-A      1.7479 eV  709.34 nm  f=0.3770  <S**2>=0.000
     245 -> 248        0.16112
     246 -> 247        0.68980
 This state for optimization and/or second-order correction.
 Total Energy, E(TD-HF/TD-DFT) =  -3007.09077011
 Copying the excited state density for this state as the 1-particle RhoCI density.

 Excited State   2:      Singlet-A      2.2323 eV  555.42 nm  f=0.1149  <S**2>=0.000
     245 -> 247        0.64101
     246 -> 248       -0.28022

 Excited State   3:      Singlet-A      3.2927 eV  376.54 nm  f=0.0071  <S**2>=0.000
     241 -> 247        0.50231
     242 -> 247       -0.24488
     244 -> 247       -0.37778
     246 -> 248        0.13964

 Excited State   4:      Singlet-A      3.5169 eV  352.54 nm  f=0.1363  <S**2>=0.000
     240 -> 247        0.10941
     241 -> 247        0.15606
     242 -> 247       -0.16725
     244 -> 247        0.49064
     245 -> 247        0.13308
     246 -> 248        0.38754

 Excited State   5:      Singlet-A      3.5501 eV  349.24 nm  f=0.0588  <S**2>=0.000
     241 -> 247        0.20090
     241 -> 249        0.10756
     242 -> 247        0.49176
     242 -> 249        0.29161
     242 -> 250        0.19916
     246 -> 248        0.19878

 The electronic state is 1-A.
 Alpha  occ. eigenvalues --  -46.88959 -19.24417 -19.23728 -19.20338 -19.19525
 Alpha  occ. eigenvalues --  -19.19236 -19.17913 -14.43173 -14.42750 -14.40050
 Alpha  occ. eigenvalues --  -14.39464 -10.38995 -10.38874 -10.36066 -10.34121
 Alpha  occ. eigenvalues --  -10.32103 -10.32018 -10.31932 -10.31390 -10.31370
 Alpha  occ. eigenvalues --  -10.30960 -10.30953 -10.30932 -10.29634 -10.29229
 Alpha  occ. eigenvalues --  -10.28475 -10.28310 -10.28294 -10.28224 -10.28156
 Alpha  occ. eigenvalues --  -10.28051 -10.27990 -10.27955 -10.27840 -10.27735
 Alpha  occ. eigenvalues --  -10.27561 -10.27524 -10.27480 -10.27056 -10.26945
 Alpha  occ. eigenvalues --  -10.26825 -10.26602 -10.26563 -10.26361 -10.26213
 Alpha  occ. eigenvalues --  -10.26101 -10.25921 -10.25784 -10.25529 -10.25468
 Alpha  occ. eigenvalues --  -10.25457 -10.25275 -10.25207 -10.25057 -10.25051
 Alpha  occ. eigenvalues --  -10.24808 -10.24772 -10.24765 -10.24647 -10.24601
 Alpha  occ. eigenvalues --  -10.24426 -10.24185 -10.24123 -10.24040 -10.23974
 Alpha  occ. eigenvalues --  -10.23702  -3.17518  -1.92434  -1.91947  -1.91848
 Alpha  occ. eigenvalues --   -1.16194  -1.14620  -1.10867  -1.08624  -1.08042
 Alpha  occ. eigenvalues --   -1.06443  -1.04735  -1.04061  -1.03512  -1.02778
 Alpha  occ. eigenvalues --   -0.92545  -0.90108  -0.89999  -0.89531  -0.89222
 Alpha  occ. eigenvalues --   -0.88965  -0.88600  -0.87561  -0.87222  -0.86482
 Alpha  occ. eigenvalues --   -0.86092  -0.85484  -0.84221  -0.83659  -0.83558
 Alpha  occ. eigenvalues --   -0.82897  -0.82209  -0.81641  -0.80701  -0.80529
 Alpha  occ. eigenvalues --   -0.79660  -0.78336  -0.77870  -0.77464  -0.76148
 Alpha  occ. eigenvalues --   -0.75704  -0.75134  -0.75086  -0.74651  -0.74117
 Alpha  occ. eigenvalues --   -0.72902  -0.72468  -0.71804  -0.70179  -0.69527
 Alpha  occ. eigenvalues --   -0.69330  -0.68150  -0.67850  -0.66872  -0.66126
 Alpha  occ. eigenvalues --   -0.66022  -0.65240  -0.64895  -0.64408  -0.63351
 Alpha  occ. eigenvalues --   -0.62958  -0.62575  -0.62398  -0.62161  -0.60430
 Alpha  occ. eigenvalues --   -0.60215  -0.59504  -0.59078  -0.58734  -0.58010
 Alpha  occ. eigenvalues --   -0.57417  -0.56639  -0.56503  -0.55671  -0.55529
 Alpha  occ. eigenvalues --   -0.54932  -0.54817  -0.54652  -0.54260  -0.54040
 Alpha  occ. eigenvalues --   -0.53715  -0.53363  -0.53353  -0.53135  -0.52946
 Alpha  occ. eigenvalues --   -0.52727  -0.52574  -0.52316  -0.52038  -0.51514
 Alpha  occ. eigenvalues --   -0.51492  -0.51288  -0.50967  -0.50722  -0.50501
 Alpha  occ. eigenvalues --   -0.50442  -0.50296  -0.49882  -0.49835  -0.49619
 Alpha  occ. eigenvalues --   -0.49495  -0.49308  -0.49145  -0.48861  -0.48700
 Alpha  occ. eigenvalues --   -0.48438  -0.48350  -0.48089  -0.47847  -0.47626
 Alpha  occ. eigenvalues --   -0.47437  -0.47259  -0.47078  -0.47018  -0.46967
 Alpha  occ. eigenvalues --   -0.46763  -0.46523  -0.46327  -0.45869  -0.45602
 Alpha  occ. eigenvalues --   -0.45397  -0.45372  -0.45102  -0.45016  -0.44785
 Alpha  occ. eigenvalues --   -0.44587  -0.44523  -0.44280  -0.44086  -0.43748
 Alpha  occ. eigenvalues --   -0.43499  -0.43251  -0.43194  -0.43127  -0.42913
 Alpha  occ. eigenvalues --   -0.42692  -0.42576  -0.42512  -0.42457  -0.42139
 Alpha  occ. eigenvalues --   -0.41915  -0.41891  -0.41669  -0.41610  -0.41221
 Alpha  occ. eigenvalues --   -0.41165  -0.40633  -0.40386  -0.40345  -0.40196
 Alpha  occ. eigenvalues --   -0.39614  -0.39540  -0.38826  -0.38628  -0.38402
 Alpha  occ. eigenvalues --   -0.38328  -0.38183  -0.37983  -0.37804  -0.37675
 Alpha  occ. eigenvalues --   -0.37392  -0.36839  -0.36735  -0.36376  -0.36067
 Alpha  occ. eigenvalues --   -0.35677  -0.35149  -0.35079  -0.34972  -0.34743
 Alpha  occ. eigenvalues --   -0.34588  -0.33408  -0.33148  -0.31902  -0.31675
 Alpha  occ. eigenvalues --   -0.30570  -0.30276  -0.29709  -0.29501  -0.24658
 Alpha  occ. eigenvalues --   -0.21663
 Alpha virt. eigenvalues --   -0.09154  -0.02021  -0.00179   0.01680   0.02832
 Alpha virt. eigenvalues --    0.03901   0.04186   0.05218   0.05557   0.06414
 Alpha virt. eigenvalues --    0.07333   0.07422   0.08085   0.08315   0.08825

 Mulliken charges:
               1
     1  Mg   0.836343
     2  C   -0.028048
     3  C   -0.080437
     4  C   -0.087747
     5  C   -0.064434
     6  N   -0.352330
     7  C   -0.021396
     8  C   -0.037064
     9  C   -0.078680
    10  C    0.103977
    11  C    0.064799
    12  C    0.100149
    13  C    0.084880
    14  C    0.147578
    15  O   -0.252902
    16  O   -0.345677
    17  N   -0.346540
    18  C    0.118766
    19  C   -0.130797
    20  C   -0.039386
    21  C    0.136649
    22  C    0.107419
    23  C    0.000924
    24  O   -0.201939
    25  C    0.062566
    26  N   -0.285806
    27  C    0.110224
    28  C   -0.081668
    29  C    0.023497
    30  C    0.059680
    31  C    0.049722
    32  C    0.037924
    33  C   -0.018093
    34  N   -0.332811
    35  C    0.043659
    36  C   -0.177982
    37  C    0.065591
    38  C    0.119988
    39  C    0.105512
    40  C    0.006528
    41  O   -0.187241
    42  C   -0.021191
    43  C    0.176185
    44  O   -0.171975
    45  O   -0.366282
    46  C    0.167553
    47  C    0.320823
    48  C   -0.130347
    49  C   -0.164120
    50  C    0.057387
    51  C    0.044275
    52  C   -0.010838
    53  C    0.090901
    54  C   -0.175364
    55  C    0.041177
    56  C    0.065260
    57  C   -0.036119
    58  C    0.084317
    59  C   -0.129740
    60  C    0.060770
    61  C    0.019212
    62  C   -0.002989
    63  C    0.080068
    64  C   -0.160918
    65  C    0.051041
    66  C    0.035006
    67  H   -0.026720
    68  H   -0.059001
    69  H   -0.022932
    70  H    0.008093
    71  H    0.022531
    72  H    0.022946
    73  H    0.022276
    74  H    0.011030
    75  H    0.017315
    76  H    0.020916
    77  H    0.020318
    78  H    0.044797
    79  H    0.016227
    80  H    0.035582
    81  H    0.040825
    82  H    0.037110
    83  H    0.051314
    84  H    0.029699
    85  H    0.019780
    86  H    0.011219
    87  H   -0.001571
    88  H    0.030104
    89  H    0.009485
    90  H    0.020254
    91  H    0.013656
    92  H    0.017613
    93  H    0.016438
    94  H    0.013233
    95  H    0.023074
    96  H    0.035216
    97  H    0.035255
    98  H    0.035015
    99  H    0.055676
   100  H    0.028788
   101  H    0.042753
   102  H   -0.002521
   103  H    0.031499
   104  H    0.000528
   105  H    0.026835
   106  H    0.039618
   107  H    0.032258
   108  H    0.016354
   109  H   -0.006123
   110  H    0.002142
   111  H   -0.005317
   112  H    0.004019
   113  H   -0.010220
   114  H    0.001380
   115  H    0.000424
   116  H    0.012530
   117  H    0.000119
   118  H    0.002474
   119  H   -0.005569
   120  H    0.028352
   121  H   -0.004669
   122  H   -0.015405
   123  H   -0.014066
   124  H   -0.013913
   125  H    0.003284
   126  H    0.014636
   127  H   -0.007441
   128  H   -0.014059
   129  H   -0.011575
   130  H   -0.004252
   131  H   -0.001522
   132  H    0.003762
   133  H   -0.000055
   134  H    0.003212
   135  H   -0.003942
   136  H    0.002563
   137  H    0.017351
   138  H   -0.003261
   139  H    0.011840
   140  H    0.010927
 Sum of Mulliken charges =  -0.00000

 Dipole moment (field-independent basis, Debye):
    X=              3.5427    Y=              4.1736    Z=              0.7371  Tot=              5.5239
 Quadrupole moment (field-independent basis, Debye-Ang):
   XX=           -343.8765   YY=           -444.3940   ZZ=           -393.1200
   XY=             15.1367   XZ=              2.7071   YZ=             25.4345

 Normal termination of Gaussian 16 at Wed May  4 02:07:02 2022.
