 Gaussian 16, Revision A.03,
 Gaussian 16:  ES64L-G16RevA.03 25-Dec-2016

 ---------------------------------
 #p PBE1PBE/Def2SVP td=(nstates=5)
 ---------------------------------

 -----------------------------------------------------
 step_1251_chromophore_5 TDDFT with PBE1PBE functional
 -----------------------------------------------------
 Symbolic Z-matrix:
 Charge =  0 Multiplicity = 1

                         Standard orientation:
 ---------------------------------------------------------------------
 Center     Atomic      Atomic             Coordinates (Angstroms)
 Number     Number       Type             X           Y           Z
 ---------------------------------------------------------------------
      1         12           0        5.398148    0.237742   -0.493586
      2          6           0        3.713139   -2.705231   -0.460843
      3          6           0        3.111143    1.664769   -2.557966
      4          6           0        6.765625    3.415983    0.194118
      5          6           0        7.665478   -1.066238    1.850285
      6          7           0        3.710803   -0.435209   -1.415534
      7          6           0        3.176685   -1.722901   -1.295387
      8          6           0        1.834181   -1.758852   -2.011875
      9          6           0        1.898133   -0.541972   -2.975387
     10          6           0        3.005238    0.277092   -2.306245
     11          6           0        2.276682   -0.987557   -4.403826
     12          6           0        0.615292   -1.628575   -1.089313
     13          6           0       -0.473323   -2.679624   -1.233049
     14          6           0       -1.879791   -2.184075   -1.581943
     15          8           0       -2.204474   -1.706271   -2.668152
     16          8           0       -2.786016   -2.223689   -0.513563
     17          7           0        5.017063    2.281792   -1.190315
     18          6           0        3.993881    2.619838   -1.984681
     19          6           0        4.052259    4.088799   -2.146291
     20          6           0        5.064790    4.612739   -1.308785
     21          6           0        5.715791    3.425590   -0.742303
     22          6           0        2.968214    4.790635   -2.990600
     23          6           0        5.418888    6.102524   -1.234570
     24          8           0        4.639333    6.932964   -1.683695
     25          6           0        6.596122    6.624143   -0.492129
     26          7           0        6.938066    1.098579    0.767888
     27          6           0        7.365559    2.373681    0.882683
     28          6           0        8.403647    2.550918    1.971175
     29          6           0        8.680740    1.148098    2.559650
     30          6           0        7.756674    0.333312    1.621966
     31          6           0        9.732796    3.188580    1.536090
     32          6           0        8.457658    1.083019    4.124712
     33          6           0        9.619954    0.531040    5.015331
     34          7           0        5.746648   -1.577277    0.471554
     35          6           0        6.659728   -2.039139    1.368799
     36          6           0        6.308115   -3.388123    1.780434
     37          6           0        5.109429   -3.756068    1.070931
     38          6           0        4.867072   -2.601199    0.322426
     39          6           0        7.148765   -4.190378    2.717301
     40          6           0        4.139583   -4.706636    0.906257
     41          8           0        3.981474   -5.800524    1.449358
     42          6           0        3.005540   -4.051321   -0.023433
     43          6           0        2.627808   -4.979364   -1.087894
     44          8           0        1.542142   -5.384419   -1.369731
     45          8           0        3.813425   -5.315534   -1.723800
     46          6           0        3.664965   -6.283042   -2.862950
     47          6           0       -4.104542   -1.640398   -0.708416
     48          6           0       -4.094086   -0.196946   -0.332676
     49          6           0       -4.612939    0.337190    0.819277
     50          6           0       -5.100488   -0.395530    2.093591
     51          6           0       -4.505644    1.880427    0.916819
     52          6           0       -5.594113    2.713680    0.057536
     53          6           0       -6.733905    3.446191    0.911679
     54          6           0       -8.154495    2.826190    0.742033
     55          6           0       -9.148394    3.855261    0.300755
     56          6           0       -8.684370    2.230404    2.084228
     57          6           0      -10.025075    1.519640    1.771207
     58          6           0      -10.190764    0.038139    2.239519
     59          6           0      -10.939493   -0.873496    1.227102
     60          6           0       -9.966410   -1.716001    0.403716
     61          6           0      -12.124823   -1.699287    1.745912
     62          6           0      -13.509764   -0.948878    1.784365
     63          6           0      -14.178921   -0.845385    0.377634
     64          6           0      -14.194787    0.570729   -0.240849
     65          6           0      -15.635836    1.039701   -0.607823
     66          6           0      -13.333322    0.612354   -1.498929
     67          1           0        2.437473    2.078866   -3.311640
     68          1           0        7.014019    4.431084    0.510377
     69          1           0        8.404545   -1.603650    2.448038
     70          1           0        1.825430   -2.635164   -2.660024
     71          1           0        1.000056    0.073853   -3.010321
     72          1           0        1.755684   -1.900246   -4.692606
     73          1           0        3.314958   -1.153093   -4.692765
     74          1           0        1.902820   -0.200860   -5.059770
     75          1           0        0.064663   -0.730342   -1.367916
     76          1           0        1.013735   -1.503843   -0.082723
     77          1           0       -0.572605   -3.230980   -0.297261
     78          1           0       -0.148417   -3.446385   -1.936696
     79          1           0        2.749646    4.270693   -3.923374
     80          1           0        3.302114    5.776984   -3.311336
     81          1           0        2.062330    4.884075   -2.390423
     82          1           0        7.518546    6.144239   -0.819166
     83          1           0        6.445154    6.433952    0.569906
     84          1           0        6.665355    7.707834   -0.584207
     85          1           0        8.135556    3.310191    2.705318
     86          1           0        9.689420    0.817053    2.313477
     87          1           0        9.617741    3.277242    0.456377
     88          1           0       10.667975    2.650959    1.690638
     89          1           0        9.778510    4.234579    1.840203
     90          1           0        7.633995    0.391018    4.299424
     91          1           0        8.239040    2.070577    4.532135
     92          1           0       10.463799    0.106894    4.471605
     93          1           0        9.235656   -0.230883    5.694542
     94          1           0        9.968254    1.332298    5.666807
     95          1           0        7.460276   -3.708506    3.644315
     96          1           0        7.998815   -4.438685    2.082320
     97          1           0        6.519137   -5.047929    2.951703
     98          1           0        2.095017   -3.843060    0.537405
     99          1           0        4.249185   -7.173169   -2.628708
    100          1           0        3.942049   -5.731364   -3.760681
    101          1           0        2.656454   -6.578851   -3.152445
    102          1           0       -4.730932   -2.073905    0.070634
    103          1           0       -4.519390   -1.856953   -1.692790
    104          1           0       -3.741095    0.514153   -1.079236
    105          1           0       -4.751497   -1.428245    2.086775
    106          1           0       -6.189319   -0.376779    2.059700
    107          1           0       -4.732765    0.011731    3.035380
    108          1           0       -3.597169    2.322236    0.507349
    109          1           0       -4.622780    2.098522    1.978296
    110          1           0       -6.046887    2.042112   -0.671826
    111          1           0       -4.973828    3.384189   -0.537207
    112          1           0       -6.737258    4.523858    0.742504
    113          1           0       -6.395114    3.231617    1.924777
    114          1           0       -8.145370    2.068513   -0.042245
    115          1           0       -8.813184    4.875366    0.488632
    116          1           0      -10.147977    3.776220    0.728152
    117          1           0       -9.266567    3.756629   -0.778146
    118          1           0       -8.950845    3.051676    2.750965
    119          1           0       -7.907413    1.529310    2.387893
    120          1           0      -10.283134    1.678731    0.724750
    121          1           0      -10.701362    1.992932    2.483390
    122          1           0      -10.772430    0.076756    3.160531
    123          1           0       -9.186672   -0.301468    2.490325
    124          1           0      -11.518520   -0.220258    0.573622
    125          1           0      -10.225894   -1.597685   -0.648161
    126          1           0       -9.886821   -2.779038    0.634284
    127          1           0       -8.948984   -1.335635    0.487037
    128          1           0      -11.908618   -2.048482    2.755131
    129          1           0      -12.198079   -2.572650    1.096615
    130          1           0      -13.163513   -0.016654    2.232302
    131          1           0      -14.152227   -1.464660    2.498227
    132          1           0      -15.179123   -1.251843    0.529431
    133          1           0      -13.600182   -1.494965   -0.279158
    134          1           0      -13.782984    1.323509    0.430400
    135          1           0      -16.363364    0.258612   -0.382478
    136          1           0      -15.828925    1.164579   -1.673215
    137          1           0      -15.787488    1.966053   -0.053327
    138          1           0      -13.728505    1.255035   -2.285746
    139          1           0      -13.184336   -0.363544   -1.961164
    140          1           0      -12.394473    1.110053   -1.256603
 ---------------------------------------------------------------------

 SCF Done:  E(RPBE1PBE) =  -3005.34261705     A.U. after   15 cycles

 Excitation energies and oscillator strengths:

 Excited State   1:      Singlet-A      1.8439 eV  672.41 nm  f=0.3647  <S**2>=0.000
     245 -> 248        0.16316
     246 -> 247        0.69570
     246 <- 247       -0.11085
 This state for optimization and/or second-order correction.
 Total Energy, E(TD-HF/TD-DFT) =  -3005.27485528
 Copying the excited state density for this state as the 1-particle RhoCI density.

 Excited State   2:      Singlet-A      2.2239 eV  557.50 nm  f=0.1089  <S**2>=0.000
     245 -> 247        0.65312
     246 -> 248       -0.25893

 Excited State   3:      Singlet-A      2.9385 eV  421.92 nm  f=0.0005  <S**2>=0.000
     242 -> 247        0.57568
     242 -> 249        0.14691
     243 -> 247        0.34955

 Excited State   4:      Singlet-A      2.9717 eV  417.21 nm  f=0.0002  <S**2>=0.000
     241 -> 247        0.27867
     242 -> 247       -0.35352
     243 -> 247        0.53150

 Excited State   5:      Singlet-A      3.0954 eV  400.55 nm  f=0.0006  <S**2>=0.000
     240 -> 247        0.49222
     240 -> 249       -0.12179
     241 -> 247        0.41726
     243 -> 247       -0.18404

 The electronic state is 1-A.
 Alpha  occ. eigenvalues --  -46.92348 -19.25188 -19.24488 -19.20647 -19.19544
 Alpha  occ. eigenvalues --  -19.19428 -19.18565 -14.42616 -14.42307 -14.39476
 Alpha  occ. eigenvalues --  -14.39344 -10.36084 -10.35955 -10.32906 -10.31579
 Alpha  occ. eigenvalues --  -10.29484 -10.29416 -10.29328 -10.29093 -10.28979
 Alpha  occ. eigenvalues --  -10.28698 -10.28329 -10.28099 -10.27500 -10.26803
 Alpha  occ. eigenvalues --  -10.26533 -10.26214 -10.26195 -10.26189 -10.25857
 Alpha  occ. eigenvalues --  -10.25825 -10.25788 -10.25570 -10.25551 -10.25504
 Alpha  occ. eigenvalues --  -10.25439 -10.25044 -10.24927 -10.24760 -10.24491
 Alpha  occ. eigenvalues --  -10.24136 -10.24025 -10.23985 -10.23735 -10.23626
 Alpha  occ. eigenvalues --  -10.23410 -10.23396 -10.23238 -10.23220 -10.23153
 Alpha  occ. eigenvalues --  -10.23135 -10.22906 -10.22859 -10.22775 -10.22733
 Alpha  occ. eigenvalues --  -10.22659 -10.22383 -10.22354 -10.22330 -10.22224
 Alpha  occ. eigenvalues --  -10.22004 -10.21753 -10.21497 -10.21447 -10.21380
 Alpha  occ. eigenvalues --  -10.21101  -3.14487  -1.87344  -1.86835  -1.86740
 Alpha  occ. eigenvalues --   -1.11041  -1.09457  -1.05297  -1.03688  -1.03024
 Alpha  occ. eigenvalues --   -1.01348  -0.99385  -0.98612  -0.98323  -0.97192
 Alpha  occ. eigenvalues --   -0.87159  -0.84304  -0.84164  -0.83795  -0.83329
 Alpha  occ. eigenvalues --   -0.83116  -0.82752  -0.81947  -0.81352  -0.80833
 Alpha  occ. eigenvalues --   -0.80242  -0.79646  -0.78425  -0.78036  -0.77706
 Alpha  occ. eigenvalues --   -0.76942  -0.76400  -0.75954  -0.75031  -0.74789
 Alpha  occ. eigenvalues --   -0.73843  -0.72701  -0.72084  -0.71698  -0.70497
 Alpha  occ. eigenvalues --   -0.69894  -0.69337  -0.69225  -0.68778  -0.68297
 Alpha  occ. eigenvalues --   -0.67364  -0.66856  -0.66270  -0.64493  -0.64130
 Alpha  occ. eigenvalues --   -0.63720  -0.62390  -0.62060  -0.61110  -0.60526
 Alpha  occ. eigenvalues --   -0.60451  -0.59753  -0.59120  -0.59015  -0.57521
 Alpha  occ. eigenvalues --   -0.57212  -0.57166  -0.56788  -0.56407  -0.54905
 Alpha  occ. eigenvalues --   -0.54729  -0.54109  -0.53567  -0.53133  -0.52782
 Alpha  occ. eigenvalues --   -0.51833  -0.51141  -0.50960  -0.50347  -0.50111
 Alpha  occ. eigenvalues --   -0.49461  -0.49334  -0.49078  -0.48892  -0.48623
 Alpha  occ. eigenvalues --   -0.48174  -0.48082  -0.47809  -0.47594  -0.47242
 Alpha  occ. eigenvalues --   -0.47104  -0.47050  -0.46878  -0.46655  -0.46079
 Alpha  occ. eigenvalues --   -0.45992  -0.45980  -0.45721  -0.45336  -0.45058
 Alpha  occ. eigenvalues --   -0.44883  -0.44806  -0.44446  -0.44302  -0.44202
 Alpha  occ. eigenvalues --   -0.44089  -0.43912  -0.43750  -0.43553  -0.43301
 Alpha  occ. eigenvalues --   -0.43179  -0.42945  -0.42633  -0.42575  -0.42305
 Alpha  occ. eigenvalues --   -0.42172  -0.41816  -0.41667  -0.41624  -0.41540
 Alpha  occ. eigenvalues --   -0.41320  -0.41114  -0.40924  -0.40663  -0.40455
 Alpha  occ. eigenvalues --   -0.40276  -0.39995  -0.39814  -0.39803  -0.39556
 Alpha  occ. eigenvalues --   -0.39355  -0.39168  -0.38986  -0.38757  -0.38461
 Alpha  occ. eigenvalues --   -0.38191  -0.38024  -0.37998  -0.37887  -0.37847
 Alpha  occ. eigenvalues --   -0.37469  -0.37406  -0.37313  -0.37186  -0.37003
 Alpha  occ. eigenvalues --   -0.36860  -0.36805  -0.36431  -0.36348  -0.36107
 Alpha  occ. eigenvalues --   -0.36085  -0.35407  -0.35271  -0.35136  -0.35086
 Alpha  occ. eigenvalues --   -0.34539  -0.34355  -0.33613  -0.33496  -0.33216
 Alpha  occ. eigenvalues --   -0.33190  -0.33142  -0.33023  -0.32660  -0.32608
 Alpha  occ. eigenvalues --   -0.32209  -0.31751  -0.31670  -0.31415  -0.30956
 Alpha  occ. eigenvalues --   -0.30583  -0.30202  -0.30137  -0.29986  -0.29631
 Alpha  occ. eigenvalues --   -0.29482  -0.28986  -0.27989  -0.27307  -0.26315
 Alpha  occ. eigenvalues --   -0.25965  -0.25486  -0.25387  -0.25083  -0.21469
 Alpha  occ. eigenvalues --   -0.19196
 Alpha virt. eigenvalues --   -0.11660  -0.05560  -0.04430  -0.02718  -0.00570
 Alpha virt. eigenvalues --   -0.00104   0.00406   0.00517   0.00922   0.02603
 Alpha virt. eigenvalues --    0.03399   0.03866   0.04247   0.05046   0.05246

 Mulliken charges:
               1
     1  Mg   0.987064
     2  C   -0.033347
     3  C   -0.067479
     4  C   -0.078871
     5  C   -0.064567
     6  N   -0.461177
     7  C    0.059149
     8  C   -0.115281
     9  C   -0.160769
    10  C    0.139522
    11  C    0.013748
    12  C    0.050065
    13  C    0.011693
    14  C    0.213080
    15  O   -0.284145
    16  O   -0.375538
    17  N   -0.457272
    18  C    0.146310
    19  C   -0.161047
    20  C   -0.085440
    21  C    0.160854
    22  C    0.050319
    23  C    0.049972
    24  O   -0.237426
    25  C   -0.016018
    26  N   -0.389058
    27  C    0.137860
    28  C   -0.154704
    29  C   -0.047495
    30  C    0.091856
    31  C   -0.004126
    32  C   -0.022639
    33  C   -0.088443
    34  N   -0.457668
    35  C    0.082646
    36  C   -0.195947
    37  C    0.027162
    38  C    0.155905
    39  C    0.050656
    40  C    0.098733
    41  O   -0.230897
    42  C   -0.137681
    43  C    0.272689
    44  O   -0.213139
    45  O   -0.393447
    46  C    0.112724
    47  C    0.268680
    48  C   -0.135828
    49  C   -0.202167
    50  C   -0.014198
    51  C   -0.018776
    52  C   -0.067757
    53  C    0.036427
    54  C   -0.262137
    55  C   -0.016942
    56  C    0.002667
    57  C   -0.102431
    58  C    0.029431
    59  C   -0.224943
    60  C    0.000222
    61  C   -0.032960
    62  C   -0.070012
    63  C    0.024480
    64  C   -0.254379
    65  C   -0.006207
    66  C   -0.027583
    67  H    0.004866
    68  H   -0.023406
    69  H    0.009311
    70  H    0.046754
    71  H    0.055631
    72  H    0.049242
    73  H    0.048386
    74  H    0.039289
    75  H    0.052304
    76  H    0.052987
    77  H    0.052585
    78  H    0.076801
    79  H    0.040959
    80  H    0.061731
    81  H    0.066980
    82  H    0.063506
    83  H    0.076288
    84  H    0.056827
    85  H    0.055231
    86  H    0.048397
    87  H    0.028250
    88  H    0.054909
    89  H    0.036383
    90  H    0.052906
    91  H    0.046222
    92  H    0.043867
    93  H    0.043559
    94  H    0.041478
    95  H    0.051386
    96  H    0.065462
    97  H    0.064933
    98  H    0.074003
    99  H    0.076880
   100  H    0.051084
   101  H    0.063605
   102  H    0.027211
   103  H    0.058438
   104  H    0.029838
   105  H    0.053372
   106  H    0.070973
   107  H    0.058420
   108  H    0.048838
   109  H    0.025664
   110  H    0.034372
   111  H    0.027199
   112  H    0.035150
   113  H    0.023589
   114  H    0.038808
   115  H    0.028260
   116  H    0.040172
   117  H    0.029065
   118  H    0.035992
   119  H    0.032142
   120  H    0.060783
   121  H    0.029171
   122  H    0.017286
   123  H    0.019742
   124  H    0.039925
   125  H    0.030851
   126  H    0.040915
   127  H    0.021802
   128  H    0.019316
   129  H    0.021839
   130  H    0.030374
   131  H    0.031129
   132  H    0.035545
   133  H    0.031978
   134  H    0.039663
   135  H    0.022995
   136  H    0.029084
   137  H    0.044300
   138  H    0.025098
   139  H    0.038752
   140  H    0.038382
 Sum of Mulliken charges =  -0.00000

 Dipole moment (field-independent basis, Debye):
    X=              3.6089    Y=              3.3454    Z=              1.1288  Tot=              5.0488
 Quadrupole moment (field-independent basis, Debye-Ang):
   XX=           -338.3675   YY=           -442.3114   ZZ=           -389.6059
   XY=             10.3843   XZ=              5.8470   YZ=             25.5345

 Normal termination of Gaussian 16 at Wed May  4 02:22:49 2022.
