 Gaussian 16, Revision A.03,
 Gaussian 16:  ES64L-G16RevA.03 25-Dec-2016

 --------------------------------
 #p wB97XD/Def2SVP td=(nstates=5)
 --------------------------------

 ----------------------------------------------------
 step_1251_chromophore_5 TDDFT with wB97XD functional
 ----------------------------------------------------
 Symbolic Z-matrix:
 Charge =  0 Multiplicity = 1

                         Standard orientation:
 ---------------------------------------------------------------------
 Center     Atomic      Atomic             Coordinates (Angstroms)
 Number     Number       Type             X           Y           Z
 ---------------------------------------------------------------------
      1         12           0        5.398148    0.237742   -0.493586
      2          6           0        3.713139   -2.705231   -0.460843
      3          6           0        3.111143    1.664769   -2.557966
      4          6           0        6.765625    3.415983    0.194118
      5          6           0        7.665478   -1.066238    1.850285
      6          7           0        3.710803   -0.435209   -1.415534
      7          6           0        3.176685   -1.722901   -1.295387
      8          6           0        1.834181   -1.758852   -2.011875
      9          6           0        1.898133   -0.541972   -2.975387
     10          6           0        3.005238    0.277092   -2.306245
     11          6           0        2.276682   -0.987557   -4.403826
     12          6           0        0.615292   -1.628575   -1.089313
     13          6           0       -0.473323   -2.679624   -1.233049
     14          6           0       -1.879791   -2.184075   -1.581943
     15          8           0       -2.204474   -1.706271   -2.668152
     16          8           0       -2.786016   -2.223689   -0.513563
     17          7           0        5.017063    2.281792   -1.190315
     18          6           0        3.993881    2.619838   -1.984681
     19          6           0        4.052259    4.088799   -2.146291
     20          6           0        5.064790    4.612739   -1.308785
     21          6           0        5.715791    3.425590   -0.742303
     22          6           0        2.968214    4.790635   -2.990600
     23          6           0        5.418888    6.102524   -1.234570
     24          8           0        4.639333    6.932964   -1.683695
     25          6           0        6.596122    6.624143   -0.492129
     26          7           0        6.938066    1.098579    0.767888
     27          6           0        7.365559    2.373681    0.882683
     28          6           0        8.403647    2.550918    1.971175
     29          6           0        8.680740    1.148098    2.559650
     30          6           0        7.756674    0.333312    1.621966
     31          6           0        9.732796    3.188580    1.536090
     32          6           0        8.457658    1.083019    4.124712
     33          6           0        9.619954    0.531040    5.015331
     34          7           0        5.746648   -1.577277    0.471554
     35          6           0        6.659728   -2.039139    1.368799
     36          6           0        6.308115   -3.388123    1.780434
     37          6           0        5.109429   -3.756068    1.070931
     38          6           0        4.867072   -2.601199    0.322426
     39          6           0        7.148765   -4.190378    2.717301
     40          6           0        4.139583   -4.706636    0.906257
     41          8           0        3.981474   -5.800524    1.449358
     42          6           0        3.005540   -4.051321   -0.023433
     43          6           0        2.627808   -4.979364   -1.087894
     44          8           0        1.542142   -5.384419   -1.369731
     45          8           0        3.813425   -5.315534   -1.723800
     46          6           0        3.664965   -6.283042   -2.862950
     47          6           0       -4.104542   -1.640398   -0.708416
     48          6           0       -4.094086   -0.196946   -0.332676
     49          6           0       -4.612939    0.337190    0.819277
     50          6           0       -5.100488   -0.395530    2.093591
     51          6           0       -4.505644    1.880427    0.916819
     52          6           0       -5.594113    2.713680    0.057536
     53          6           0       -6.733905    3.446191    0.911679
     54          6           0       -8.154495    2.826190    0.742033
     55          6           0       -9.148394    3.855261    0.300755
     56          6           0       -8.684370    2.230404    2.084228
     57          6           0      -10.025075    1.519640    1.771207
     58          6           0      -10.190764    0.038139    2.239519
     59          6           0      -10.939493   -0.873496    1.227102
     60          6           0       -9.966410   -1.716001    0.403716
     61          6           0      -12.124823   -1.699287    1.745912
     62          6           0      -13.509764   -0.948878    1.784365
     63          6           0      -14.178921   -0.845385    0.377634
     64          6           0      -14.194787    0.570729   -0.240849
     65          6           0      -15.635836    1.039701   -0.607823
     66          6           0      -13.333322    0.612354   -1.498929
     67          1           0        2.437473    2.078866   -3.311640
     68          1           0        7.014019    4.431084    0.510377
     69          1           0        8.404545   -1.603650    2.448038
     70          1           0        1.825430   -2.635164   -2.660024
     71          1           0        1.000056    0.073853   -3.010321
     72          1           0        1.755684   -1.900246   -4.692606
     73          1           0        3.314958   -1.153093   -4.692765
     74          1           0        1.902820   -0.200860   -5.059770
     75          1           0        0.064663   -0.730342   -1.367916
     76          1           0        1.013735   -1.503843   -0.082723
     77          1           0       -0.572605   -3.230980   -0.297261
     78          1           0       -0.148417   -3.446385   -1.936696
     79          1           0        2.749646    4.270693   -3.923374
     80          1           0        3.302114    5.776984   -3.311336
     81          1           0        2.062330    4.884075   -2.390423
     82          1           0        7.518546    6.144239   -0.819166
     83          1           0        6.445154    6.433952    0.569906
     84          1           0        6.665355    7.707834   -0.584207
     85          1           0        8.135556    3.310191    2.705318
     86          1           0        9.689420    0.817053    2.313477
     87          1           0        9.617741    3.277242    0.456377
     88          1           0       10.667975    2.650959    1.690638
     89          1           0        9.778510    4.234579    1.840203
     90          1           0        7.633995    0.391018    4.299424
     91          1           0        8.239040    2.070577    4.532135
     92          1           0       10.463799    0.106894    4.471605
     93          1           0        9.235656   -0.230883    5.694542
     94          1           0        9.968254    1.332298    5.666807
     95          1           0        7.460276   -3.708506    3.644315
     96          1           0        7.998815   -4.438685    2.082320
     97          1           0        6.519137   -5.047929    2.951703
     98          1           0        2.095017   -3.843060    0.537405
     99          1           0        4.249185   -7.173169   -2.628708
    100          1           0        3.942049   -5.731364   -3.760681
    101          1           0        2.656454   -6.578851   -3.152445
    102          1           0       -4.730932   -2.073905    0.070634
    103          1           0       -4.519390   -1.856953   -1.692790
    104          1           0       -3.741095    0.514153   -1.079236
    105          1           0       -4.751497   -1.428245    2.086775
    106          1           0       -6.189319   -0.376779    2.059700
    107          1           0       -4.732765    0.011731    3.035380
    108          1           0       -3.597169    2.322236    0.507349
    109          1           0       -4.622780    2.098522    1.978296
    110          1           0       -6.046887    2.042112   -0.671826
    111          1           0       -4.973828    3.384189   -0.537207
    112          1           0       -6.737258    4.523858    0.742504
    113          1           0       -6.395114    3.231617    1.924777
    114          1           0       -8.145370    2.068513   -0.042245
    115          1           0       -8.813184    4.875366    0.488632
    116          1           0      -10.147977    3.776220    0.728152
    117          1           0       -9.266567    3.756629   -0.778146
    118          1           0       -8.950845    3.051676    2.750965
    119          1           0       -7.907413    1.529310    2.387893
    120          1           0      -10.283134    1.678731    0.724750
    121          1           0      -10.701362    1.992932    2.483390
    122          1           0      -10.772430    0.076756    3.160531
    123          1           0       -9.186672   -0.301468    2.490325
    124          1           0      -11.518520   -0.220258    0.573622
    125          1           0      -10.225894   -1.597685   -0.648161
    126          1           0       -9.886821   -2.779038    0.634284
    127          1           0       -8.948984   -1.335635    0.487037
    128          1           0      -11.908618   -2.048482    2.755131
    129          1           0      -12.198079   -2.572650    1.096615
    130          1           0      -13.163513   -0.016654    2.232302
    131          1           0      -14.152227   -1.464660    2.498227
    132          1           0      -15.179123   -1.251843    0.529431
    133          1           0      -13.600182   -1.494965   -0.279158
    134          1           0      -13.782984    1.323509    0.430400
    135          1           0      -16.363364    0.258612   -0.382478
    136          1           0      -15.828925    1.164579   -1.673215
    137          1           0      -15.787488    1.966053   -0.053327
    138          1           0      -13.728505    1.255035   -2.285746
    139          1           0      -13.184336   -0.363544   -1.961164
    140          1           0      -12.394473    1.110053   -1.256603
 ---------------------------------------------------------------------

 SCF Done:  E(RwB97XD) =  -3007.85359473     A.U. after   18 cycles

 Excitation energies and oscillator strengths:

 Excited State   1:      Singlet-A      1.7227 eV  719.70 nm  f=0.3774  <S**2>=0.000
     245 -> 248        0.16234
     246 -> 247        0.68783
     245 <- 248        0.10584
 This state for optimization and/or second-order correction.
 Total Energy, E(TD-HF/TD-DFT) =  -3007.79028586
 Copying the excited state density for this state as the 1-particle RhoCI density.

 Excited State   2:      Singlet-A      2.1850 eV  567.45 nm  f=0.1120  <S**2>=0.000
     245 -> 247        0.63819
     246 -> 248       -0.28168

 Excited State   3:      Singlet-A      3.3074 eV  374.87 nm  f=0.0118  <S**2>=0.000
     241 -> 247        0.56534
     242 -> 247       -0.15149
     244 -> 247       -0.30792
     246 -> 248        0.16547

 Excited State   4:      Singlet-A      3.5654 eV  347.74 nm  f=0.3124  <S**2>=0.000
     244 -> 247        0.43280
     245 -> 247        0.19758
     246 -> 248        0.49299

 Excited State   5:      Singlet-A      3.5962 eV  344.76 nm  f=0.0152  <S**2>=0.000
     239 -> 247        0.22442
     239 -> 249       -0.15941
     239 -> 250        0.11461
     240 -> 247        0.45742
     240 -> 248       -0.13138
     240 -> 249       -0.29330
     240 -> 250        0.21056
     244 -> 247        0.11432

 The electronic state is 1-A.
 Alpha  occ. eigenvalues --  -46.95299 -19.29591 -19.28996 -19.25212 -19.24614
 Alpha  occ. eigenvalues --  -19.24193 -19.22889 -14.47804 -14.47344 -14.44710
 Alpha  occ. eigenvalues --  -14.44002 -10.42832 -10.42643 -10.40096 -10.38047
 Alpha  occ. eigenvalues --  -10.36210 -10.36136 -10.36120 -10.35355 -10.35124
 Alpha  occ. eigenvalues --  -10.35082 -10.34926 -10.34808 -10.33920 -10.33136
 Alpha  occ. eigenvalues --  -10.32499 -10.32373 -10.32370 -10.32294 -10.32222
 Alpha  occ. eigenvalues --  -10.32117 -10.31965 -10.31956 -10.31867 -10.31763
 Alpha  occ. eigenvalues --  -10.31620 -10.31608 -10.31569 -10.30989 -10.30868
 Alpha  occ. eigenvalues --  -10.30766 -10.30506 -10.30403 -10.30257 -10.30111
 Alpha  occ. eigenvalues --  -10.30097 -10.29738 -10.29733 -10.29487 -10.29401
 Alpha  occ. eigenvalues --  -10.29256 -10.29201 -10.29180 -10.29023 -10.29011
 Alpha  occ. eigenvalues --  -10.28745 -10.28695 -10.28673 -10.28586 -10.28523
 Alpha  occ. eigenvalues --  -10.28361 -10.28106 -10.27930 -10.27854 -10.27796
 Alpha  occ. eigenvalues --  -10.27531  -3.21291  -1.94899  -1.94388  -1.94292
 Alpha  occ. eigenvalues --   -1.18288  -1.16802  -1.13146  -1.10767  -1.10201
 Alpha  occ. eigenvalues --   -1.08661  -1.06732  -1.06081  -1.05528  -1.04864
 Alpha  occ. eigenvalues --   -0.94461  -0.91897  -0.91814  -0.91418  -0.90994
 Alpha  occ. eigenvalues --   -0.90953  -0.90404  -0.89486  -0.88997  -0.88486
 Alpha  occ. eigenvalues --   -0.88016  -0.87384  -0.86126  -0.85519  -0.85387
 Alpha  occ. eigenvalues --   -0.84846  -0.84068  -0.83538  -0.82627  -0.82405
 Alpha  occ. eigenvalues --   -0.81491  -0.80284  -0.79795  -0.79371  -0.78030
 Alpha  occ. eigenvalues --   -0.77553  -0.77072  -0.76915  -0.76461  -0.75953
 Alpha  occ. eigenvalues --   -0.74836  -0.74427  -0.73777  -0.72103  -0.71455
 Alpha  occ. eigenvalues --   -0.71303  -0.70060  -0.69868  -0.68740  -0.68061
 Alpha  occ. eigenvalues --   -0.67953  -0.67257  -0.66757  -0.66411  -0.65161
 Alpha  occ. eigenvalues --   -0.64786  -0.64515  -0.64311  -0.64029  -0.62432
 Alpha  occ. eigenvalues --   -0.62184  -0.61515  -0.61083  -0.60634  -0.59992
 Alpha  occ. eigenvalues --   -0.59293  -0.58673  -0.58415  -0.57631  -0.57436
 Alpha  occ. eigenvalues --   -0.56836  -0.56644  -0.56520  -0.56202  -0.55968
 Alpha  occ. eigenvalues --   -0.55581  -0.55300  -0.55231  -0.55105  -0.54932
 Alpha  occ. eigenvalues --   -0.54585  -0.54472  -0.54252  -0.53978  -0.53394
 Alpha  occ. eigenvalues --   -0.53365  -0.53196  -0.52858  -0.52642  -0.52495
 Alpha  occ. eigenvalues --   -0.52363  -0.52194  -0.51863  -0.51714  -0.51556
 Alpha  occ. eigenvalues --   -0.51383  -0.51224  -0.51045  -0.50755  -0.50573
 Alpha  occ. eigenvalues --   -0.50344  -0.50222  -0.49940  -0.49777  -0.49527
 Alpha  occ. eigenvalues --   -0.49333  -0.49233  -0.48937  -0.48909  -0.48895
 Alpha  occ. eigenvalues --   -0.48693  -0.48442  -0.48257  -0.47767  -0.47542
 Alpha  occ. eigenvalues --   -0.47294  -0.47234  -0.47050  -0.46923  -0.46678
 Alpha  occ. eigenvalues --   -0.46491  -0.46452  -0.46161  -0.46041  -0.45653
 Alpha  occ. eigenvalues --   -0.45442  -0.45156  -0.45111  -0.45028  -0.44825
 Alpha  occ. eigenvalues --   -0.44740  -0.44467  -0.44410  -0.44369  -0.44025
 Alpha  occ. eigenvalues --   -0.43842  -0.43790  -0.43531  -0.43460  -0.43100
 Alpha  occ. eigenvalues --   -0.43026  -0.42524  -0.42292  -0.42236  -0.42083
 Alpha  occ. eigenvalues --   -0.41494  -0.41425  -0.40683  -0.40516  -0.40251
 Alpha  occ. eigenvalues --   -0.40201  -0.40151  -0.39984  -0.39627  -0.39609
 Alpha  occ. eigenvalues --   -0.39228  -0.38693  -0.38675  -0.38409  -0.37911
 Alpha  occ. eigenvalues --   -0.37520  -0.37129  -0.37046  -0.36940  -0.36594
 Alpha  occ. eigenvalues --   -0.36421  -0.35596  -0.35077  -0.34015  -0.33776
 Alpha  occ. eigenvalues --   -0.32805  -0.32207  -0.31743  -0.31611  -0.26612
 Alpha  occ. eigenvalues --   -0.23493
 Alpha virt. eigenvalues --   -0.07463  -0.00089   0.01880   0.03783   0.05910
 Alpha virt. eigenvalues --    0.06213   0.06666   0.07453   0.07818   0.08990
 Alpha virt. eigenvalues --    0.09932   0.10760   0.10864   0.11685   0.11897

 Mulliken charges:
               1
     1  Mg   0.975839
     2  C   -0.037051
     3  C   -0.091192
     4  C   -0.097085
     5  C   -0.070917
     6  N   -0.429425
     7  C    0.020662
     8  C   -0.082554
     9  C   -0.130138
    10  C    0.128239
    11  C    0.018401
    12  C    0.061409
    13  C    0.024444
    14  C    0.204119
    15  O   -0.281807
    16  O   -0.375444
    17  N   -0.426240
    18  C    0.142135
    19  C   -0.150106
    20  C   -0.079582
    21  C    0.164050
    22  C    0.062781
    23  C    0.046544
    24  O   -0.231506
    25  C   -0.003205
    26  N   -0.357965
    27  C    0.133947
    28  C   -0.134050
    29  C   -0.020495
    30  C    0.076270
    31  C    0.005987
    32  C   -0.008264
    33  C   -0.072934
    34  N   -0.419762
    35  C    0.060388
    36  C   -0.192200
    37  C    0.023400
    38  C    0.142392
    39  C    0.059730
    40  C    0.082053
    41  O   -0.224666
    42  C   -0.091400
    43  C    0.244757
    44  O   -0.206570
    45  O   -0.394055
    46  C    0.129266
    47  C    0.286730
    48  C   -0.148462
    49  C   -0.191466
    50  C    0.004569
    51  C   -0.000085
    52  C   -0.053301
    53  C    0.052549
    54  C   -0.229041
    55  C   -0.007736
    56  C    0.027105
    57  C   -0.080407
    58  C    0.043978
    59  C   -0.175512
    60  C    0.013125
    61  C   -0.021592
    62  C   -0.046770
    63  C    0.041237
    64  C   -0.227240
    65  C    0.006198
    66  C   -0.012145
    67  H   -0.000727
    68  H   -0.035319
    69  H    0.003652
    70  H    0.030747
    71  H    0.048377
    72  H    0.044999
    73  H    0.044529
    74  H    0.033575
    75  H    0.040488
    76  H    0.046216
    77  H    0.048366
    78  H    0.069956
    79  H    0.037920
    80  H    0.059408
    81  H    0.064810
    82  H    0.058563
    83  H    0.072213
    84  H    0.057302
    85  H    0.045935
    86  H    0.035368
    87  H    0.019475
    88  H    0.051942
    89  H    0.031465
    90  H    0.044400
    91  H    0.037451
    92  H    0.037953
    93  H    0.038250
    94  H    0.035003
    95  H    0.044561
    96  H    0.057775
    97  H    0.059604
    98  H    0.064821
    99  H    0.073463
   100  H    0.046205
   101  H    0.059074
   102  H    0.020172
   103  H    0.055541
   104  H    0.026789
   105  H    0.048210
   106  H    0.061758
   107  H    0.054283
   108  H    0.041900
   109  H    0.015525
   110  H    0.022819
   111  H    0.020839
   112  H    0.028318
   113  H    0.010807
   114  H    0.024642
   115  H    0.021877
   116  H    0.032736
   117  H    0.023706
   118  H    0.027344
   119  H    0.013894
   120  H    0.045773
   121  H    0.020287
   122  H    0.009541
   123  H    0.008206
   124  H    0.000988
   125  H    0.025197
   126  H    0.035833
   127  H    0.013724
   128  H    0.011648
   129  H    0.011776
   130  H    0.015878
   131  H    0.025364
   132  H    0.028048
   133  H    0.018616
   134  H    0.028392
   135  H    0.016193
   136  H    0.022816
   137  H    0.039329
   138  H    0.018922
   139  H    0.032308
   140  H    0.032241
 Sum of Mulliken charges =  -0.00000

 Dipole moment (field-independent basis, Debye):
    X=              3.5725    Y=              4.4632    Z=              0.6683  Tot=              5.7558
 Quadrupole moment (field-independent basis, Debye-Ang):
   XX=           -339.1546   YY=           -440.3431   ZZ=           -389.2811
   XY=             16.5916   XZ=              3.1834   YZ=             25.2571

 Normal termination of Gaussian 16 at Wed May  4 02:53:41 2022.
