 Gaussian 16, Revision A.03,
 Gaussian 16:  ES64L-G16RevA.03 25-Dec-2016

 --------------------
 #p ZINDO=(nstates=5)
 --------------------

 -----------------------------
 step_1251_chromophore_5 ZINDO
 -----------------------------
 Symbolic Z-matrix:
 Charge =  0 Multiplicity = 1

                         Standard orientation:
 ---------------------------------------------------------------------
 Center     Atomic      Atomic             Coordinates (Angstroms)
 Number     Number       Type             X           Y           Z
 ---------------------------------------------------------------------
      1         12           0        5.398148    0.237742   -0.493586
      2          6           0        3.713139   -2.705231   -0.460843
      3          6           0        3.111143    1.664769   -2.557966
      4          6           0        6.765625    3.415983    0.194118
      5          6           0        7.665478   -1.066238    1.850285
      6          7           0        3.710803   -0.435209   -1.415534
      7          6           0        3.176685   -1.722901   -1.295387
      8          6           0        1.834181   -1.758852   -2.011875
      9          6           0        1.898133   -0.541972   -2.975387
     10          6           0        3.005238    0.277092   -2.306245
     11          6           0        2.276682   -0.987557   -4.403826
     12          6           0        0.615292   -1.628575   -1.089313
     13          6           0       -0.473323   -2.679624   -1.233049
     14          6           0       -1.879791   -2.184075   -1.581943
     15          8           0       -2.204474   -1.706271   -2.668152
     16          8           0       -2.786016   -2.223689   -0.513563
     17          7           0        5.017063    2.281792   -1.190315
     18          6           0        3.993881    2.619838   -1.984681
     19          6           0        4.052259    4.088799   -2.146291
     20          6           0        5.064790    4.612739   -1.308785
     21          6           0        5.715791    3.425590   -0.742303
     22          6           0        2.968214    4.790635   -2.990600
     23          6           0        5.418888    6.102524   -1.234570
     24          8           0        4.639333    6.932964   -1.683695
     25          6           0        6.596122    6.624143   -0.492129
     26          7           0        6.938066    1.098579    0.767888
     27          6           0        7.365559    2.373681    0.882683
     28          6           0        8.403647    2.550918    1.971175
     29          6           0        8.680740    1.148098    2.559650
     30          6           0        7.756674    0.333312    1.621966
     31          6           0        9.732796    3.188580    1.536090
     32          6           0        8.457658    1.083019    4.124712
     33          6           0        9.619954    0.531040    5.015331
     34          7           0        5.746648   -1.577277    0.471554
     35          6           0        6.659728   -2.039139    1.368799
     36          6           0        6.308115   -3.388123    1.780434
     37          6           0        5.109429   -3.756068    1.070931
     38          6           0        4.867072   -2.601199    0.322426
     39          6           0        7.148765   -4.190378    2.717301
     40          6           0        4.139583   -4.706636    0.906257
     41          8           0        3.981474   -5.800524    1.449358
     42          6           0        3.005540   -4.051321   -0.023433
     43          6           0        2.627808   -4.979364   -1.087894
     44          8           0        1.542142   -5.384419   -1.369731
     45          8           0        3.813425   -5.315534   -1.723800
     46          6           0        3.664965   -6.283042   -2.862950
     47          6           0       -4.104542   -1.640398   -0.708416
     48          6           0       -4.094086   -0.196946   -0.332676
     49          6           0       -4.612939    0.337190    0.819277
     50          6           0       -5.100488   -0.395530    2.093591
     51          6           0       -4.505644    1.880427    0.916819
     52          6           0       -5.594113    2.713680    0.057536
     53          6           0       -6.733905    3.446191    0.911679
     54          6           0       -8.154495    2.826190    0.742033
     55          6           0       -9.148394    3.855261    0.300755
     56          6           0       -8.684370    2.230404    2.084228
     57          6           0      -10.025075    1.519640    1.771207
     58          6           0      -10.190764    0.038139    2.239519
     59          6           0      -10.939493   -0.873496    1.227102
     60          6           0       -9.966410   -1.716001    0.403716
     61          6           0      -12.124823   -1.699287    1.745912
     62          6           0      -13.509764   -0.948878    1.784365
     63          6           0      -14.178921   -0.845385    0.377634
     64          6           0      -14.194787    0.570729   -0.240849
     65          6           0      -15.635836    1.039701   -0.607823
     66          6           0      -13.333322    0.612354   -1.498929
     67          1           0        2.437473    2.078866   -3.311640
     68          1           0        7.014019    4.431084    0.510377
     69          1           0        8.404545   -1.603650    2.448038
     70          1           0        1.825430   -2.635164   -2.660024
     71          1           0        1.000056    0.073853   -3.010321
     72          1           0        1.755684   -1.900246   -4.692606
     73          1           0        3.314958   -1.153093   -4.692765
     74          1           0        1.902820   -0.200860   -5.059770
     75          1           0        0.064663   -0.730342   -1.367916
     76          1           0        1.013735   -1.503843   -0.082723
     77          1           0       -0.572605   -3.230980   -0.297261
     78          1           0       -0.148417   -3.446385   -1.936696
     79          1           0        2.749646    4.270693   -3.923374
     80          1           0        3.302114    5.776984   -3.311336
     81          1           0        2.062330    4.884075   -2.390423
     82          1           0        7.518546    6.144239   -0.819166
     83          1           0        6.445154    6.433952    0.569906
     84          1           0        6.665355    7.707834   -0.584207
     85          1           0        8.135556    3.310191    2.705318
     86          1           0        9.689420    0.817053    2.313477
     87          1           0        9.617741    3.277242    0.456377
     88          1           0       10.667975    2.650959    1.690638
     89          1           0        9.778510    4.234579    1.840203
     90          1           0        7.633995    0.391018    4.299424
     91          1           0        8.239040    2.070577    4.532135
     92          1           0       10.463799    0.106894    4.471605
     93          1           0        9.235656   -0.230883    5.694542
     94          1           0        9.968254    1.332298    5.666807
     95          1           0        7.460276   -3.708506    3.644315
     96          1           0        7.998815   -4.438685    2.082320
     97          1           0        6.519137   -5.047929    2.951703
     98          1           0        2.095017   -3.843060    0.537405
     99          1           0        4.249185   -7.173169   -2.628708
    100          1           0        3.942049   -5.731364   -3.760681
    101          1           0        2.656454   -6.578851   -3.152445
    102          1           0       -4.730932   -2.073905    0.070634
    103          1           0       -4.519390   -1.856953   -1.692790
    104          1           0       -3.741095    0.514153   -1.079236
    105          1           0       -4.751497   -1.428245    2.086775
    106          1           0       -6.189319   -0.376779    2.059700
    107          1           0       -4.732765    0.011731    3.035380
    108          1           0       -3.597169    2.322236    0.507349
    109          1           0       -4.622780    2.098522    1.978296
    110          1           0       -6.046887    2.042112   -0.671826
    111          1           0       -4.973828    3.384189   -0.537207
    112          1           0       -6.737258    4.523858    0.742504
    113          1           0       -6.395114    3.231617    1.924777
    114          1           0       -8.145370    2.068513   -0.042245
    115          1           0       -8.813184    4.875366    0.488632
    116          1           0      -10.147977    3.776220    0.728152
    117          1           0       -9.266567    3.756629   -0.778146
    118          1           0       -8.950845    3.051676    2.750965
    119          1           0       -7.907413    1.529310    2.387893
    120          1           0      -10.283134    1.678731    0.724750
    121          1           0      -10.701362    1.992932    2.483390
    122          1           0      -10.772430    0.076756    3.160531
    123          1           0       -9.186672   -0.301468    2.490325
    124          1           0      -11.518520   -0.220258    0.573622
    125          1           0      -10.225894   -1.597685   -0.648161
    126          1           0       -9.886821   -2.779038    0.634284
    127          1           0       -8.948984   -1.335635    0.487037
    128          1           0      -11.908618   -2.048482    2.755131
    129          1           0      -12.198079   -2.572650    1.096615
    130          1           0      -13.163513   -0.016654    2.232302
    131          1           0      -14.152227   -1.464660    2.498227
    132          1           0      -15.179123   -1.251843    0.529431
    133          1           0      -13.600182   -1.494965   -0.279158
    134          1           0      -13.782984    1.323509    0.430400
    135          1           0      -16.363364    0.258612   -0.382478
    136          1           0      -15.828925    1.164579   -1.673215
    137          1           0      -15.787488    1.966053   -0.053327
    138          1           0      -13.728505    1.255035   -2.285746
    139          1           0      -13.184336   -0.363544   -1.961164
    140          1           0      -12.394473    1.110053   -1.256603
 ---------------------------------------------------------------------

 SCF Done:  E(RZINDO/S) =  -474.183274250     A.U. after   19 cycles

 Excitation energies and oscillator strengths:

 Excited State   1:      Singlet-A      1.3833 eV  896.31 nm  f=0.5258  <S**2>=0.000
     175 ->178         0.13531
     176 ->177         0.67768
 This state for optimization and/or second-order correction.
 Total Energy, E(CIS/TDA) =  -474.132440098
 Copying the excited state density for this state as the 1-particle RhoCI density.

 Excited State   2:      Singlet-A      1.9710 eV  629.03 nm  f=0.0369  <S**2>=0.000
     175 ->177         0.53359
     176 ->178        -0.41589

 Excited State   3:      Singlet-A      2.9255 eV  423.81 nm  f=0.0000  <S**2>=0.000
     167 ->179        -0.12188
     168 ->177         0.28683
     168 ->178        -0.19939
     168 ->179        -0.42167
     168 ->180        -0.27314
     168 ->185        -0.21465

 Excited State   4:      Singlet-A      2.9577 eV  419.19 nm  f=0.6238  <S**2>=0.000
     175 ->177        -0.31036
     176 ->178        -0.35908
     176 ->179         0.37177
     176 ->180        -0.25953

 Excited State   5:      Singlet-A      3.0509 eV  406.38 nm  f=0.2219  <S**2>=0.000
     171 ->177         0.22214
     171 ->178        -0.12642
     171 ->179         0.28175
     171 ->180        -0.34175
     171 ->185         0.15681
     171 ->188         0.19027
     175 ->177         0.15831
     176 ->178         0.22852

 The electronic state is 1-A.
 Alpha  occ. eigenvalues --   -1.84886  -1.81126  -1.80342  -1.72599  -1.71642
 Alpha  occ. eigenvalues --   -1.70591  -1.66166  -1.61275  -1.61203  -1.56564
 Alpha  occ. eigenvalues --   -1.53028  -1.51278  -1.48476  -1.46790  -1.46314
 Alpha  occ. eigenvalues --   -1.45409  -1.43019  -1.40237  -1.37978  -1.37685
 Alpha  occ. eigenvalues --   -1.36181  -1.33862  -1.32216  -1.31733  -1.29484
 Alpha  occ. eigenvalues --   -1.27113  -1.26941  -1.23025  -1.20374  -1.18776
 Alpha  occ. eigenvalues --   -1.16720  -1.15387  -1.14953  -1.14019  -1.13137
 Alpha  occ. eigenvalues --   -1.12724  -1.11287  -1.10523  -1.04973  -1.04097
 Alpha  occ. eigenvalues --   -1.02070  -1.01755  -0.98884  -0.97056  -0.96678
 Alpha  occ. eigenvalues --   -0.95803  -0.95066  -0.93742  -0.93197  -0.92014
 Alpha  occ. eigenvalues --   -0.91140  -0.90934  -0.89084  -0.88840  -0.86776
 Alpha  occ. eigenvalues --   -0.85866  -0.83782  -0.82777  -0.82518  -0.81685
 Alpha  occ. eigenvalues --   -0.80818  -0.78523  -0.77514  -0.77057  -0.76589
 Alpha  occ. eigenvalues --   -0.76429  -0.75836  -0.74172  -0.73886  -0.73318
 Alpha  occ. eigenvalues --   -0.72959  -0.71811  -0.71540  -0.71447  -0.70293
 Alpha  occ. eigenvalues --   -0.69950  -0.69343  -0.69089  -0.68570  -0.68230
 Alpha  occ. eigenvalues --   -0.67510  -0.66766  -0.66493  -0.66192  -0.65791
 Alpha  occ. eigenvalues --   -0.65561  -0.64627  -0.64096  -0.64009  -0.63888
 Alpha  occ. eigenvalues --   -0.63416  -0.63235  -0.62725  -0.62640  -0.62563
 Alpha  occ. eigenvalues --   -0.61916  -0.61646  -0.61553  -0.61153  -0.60373
 Alpha  occ. eigenvalues --   -0.60204  -0.60061  -0.59534  -0.58201  -0.57935
 Alpha  occ. eigenvalues --   -0.57478  -0.57245  -0.56557  -0.56416  -0.55967
 Alpha  occ. eigenvalues --   -0.55792  -0.55441  -0.55147  -0.54536  -0.54153
 Alpha  occ. eigenvalues --   -0.53763  -0.53665  -0.53206  -0.52933  -0.52709
 Alpha  occ. eigenvalues --   -0.52569  -0.52139  -0.52022  -0.51763  -0.51507
 Alpha  occ. eigenvalues --   -0.51147  -0.50799  -0.50614  -0.50439  -0.50397
 Alpha  occ. eigenvalues --   -0.49778  -0.49528  -0.49297  -0.48876  -0.48503
 Alpha  occ. eigenvalues --   -0.48363  -0.48294  -0.47942  -0.47455  -0.47439
 Alpha  occ. eigenvalues --   -0.47379  -0.47079  -0.47002  -0.46894  -0.46493
 Alpha  occ. eigenvalues --   -0.46342  -0.46072  -0.45921  -0.45672  -0.45511
 Alpha  occ. eigenvalues --   -0.45339  -0.44644  -0.44579  -0.44289  -0.44127
 Alpha  occ. eigenvalues --   -0.43702  -0.43654  -0.42628  -0.42302  -0.42100
 Alpha  occ. eigenvalues --   -0.42033  -0.41563  -0.40988  -0.39552  -0.38697
 Alpha  occ. eigenvalues --   -0.38269  -0.37979  -0.36787  -0.35365  -0.34392
 Alpha  occ. eigenvalues --   -0.33907  -0.33131  -0.31983  -0.31473  -0.27625
 Alpha  occ. eigenvalues --   -0.22569
 Alpha virt. eigenvalues --   -0.08765  -0.02600  -0.01138   0.00896   0.01844
 Alpha virt. eigenvalues --    0.02056   0.02402   0.03273   0.03923   0.04596
 Alpha virt. eigenvalues --    0.05522   0.05741   0.06274   0.07337   0.07595

 Mulliken charges:
               1
     1  Mg   0.427543
     2  C   -0.039088
     3  C   -0.101963
     4  C   -0.090219
     5  C   -0.055798
     6  N   -0.278540
     7  C    0.080008
     8  C    0.007572
     9  C    0.006102
    10  C    0.194509
    11  C   -0.048488
    12  C   -0.014324
    13  C    0.011657
    14  C    0.468916
    15  O   -0.521703
    16  O   -0.272110
    17  N   -0.343568
    18  C    0.160921
    19  C    0.062402
    20  C   -0.035559
    21  C    0.148473
    22  C   -0.038571
    23  C    0.335151
    24  O   -0.512398
    25  C   -0.021221
    26  N   -0.269433
    27  C    0.192333
    28  C    0.007533
    29  C    0.000152
    30  C    0.061683
    31  C   -0.059403
    32  C   -0.031854
    33  C   -0.060586
    34  N   -0.313676
    35  C    0.039734
    36  C    0.005089
    37  C   -0.061121
    38  C    0.107576
    39  C   -0.044960
    40  C    0.337202
    41  O   -0.547299
    42  C    0.041183
    43  C    0.494807
    44  O   -0.513999
    45  O   -0.276628
    46  C    0.066463
    47  C    0.110086
    48  C   -0.076927
    49  C   -0.017089
    50  C   -0.038500
    51  C   -0.035973
    52  C   -0.047232
    53  C   -0.041789
    54  C   -0.011464
    55  C   -0.054944
    56  C   -0.038820
    57  C   -0.052817
    58  C   -0.035649
    59  C   -0.012240
    60  C   -0.054541
    61  C   -0.036799
    62  C   -0.046328
    63  C   -0.029890
    64  C   -0.007592
    65  C   -0.063136
    66  C   -0.057115
    67  H    0.027374
    68  H    0.022589
    69  H    0.027102
    70  H    0.035909
    71  H    0.041883
    72  H    0.023735
    73  H    0.029762
    74  H    0.011196
    75  H    0.026144
    76  H    0.030964
    77  H    0.029996
    78  H    0.053459
    79  H    0.026605
    80  H    0.039099
    81  H    0.041914
    82  H    0.034141
    83  H    0.041106
    84  H    0.039309
    85  H    0.036033
    86  H    0.033337
    87  H    0.008215
    88  H    0.035640
    89  H    0.016598
    90  H    0.026509
    91  H    0.023043
    92  H    0.024589
    93  H    0.019343
    94  H    0.015689
    95  H    0.028760
    96  H    0.034466
    97  H    0.031468
    98  H    0.051971
    99  H    0.048188
   100  H    0.029857
   101  H    0.047849
   102  H    0.029462
   103  H    0.057374
   104  H    0.035475
   105  H    0.022723
   106  H    0.032377
   107  H    0.029848
   108  H    0.029000
   109  H    0.018257
   110  H    0.021408
   111  H    0.017204
   112  H    0.027546
   113  H    0.017354
   114  H    0.025828
   115  H    0.014321
   116  H    0.018744
   117  H    0.008127
   118  H    0.030026
   119  H    0.024368
   120  H    0.034979
   121  H    0.013401
   122  H    0.013745
   123  H    0.021021
   124  H    0.019872
   125  H    0.013666
   126  H    0.023974
   127  H    0.010305
   128  H    0.010501
   129  H    0.014069
   130  H    0.022516
   131  H    0.017311
   132  H    0.021365
   133  H    0.024726
   134  H    0.024151
   135  H    0.016314
   136  H    0.020050
   137  H    0.021755
   138  H    0.010936
   139  H    0.023633
   140  H    0.012684
 Sum of Mulliken charges =  -0.00000

 Dipole moment (field-independent basis, Debye):
    X=              4.3462    Y=              8.5572    Z=             -0.4246  Tot=              9.6071
 N-N= 4.338605247501D+03 E-N= 0.000000000000D+00  KE=-9.351273321448D+03
 Leave Link  601 at Wed May  4 03:06:04 2022, MaxMem=  6710886400 cpu:               0.8 elap:               0.1
 (Enter /sw/apps/gaussian-16.0/g16/l9999.exe)
 1\1\GINC-BP1-COMPUTE097\SP\RZINDO CIS\STO-3G\C55H74Mg1N4O6\OF15641\04-
 May-2022\0\\#p ZINDO=(nstates=5)\\step_1251_chromophore_5 ZINDO\\0,1\M
 g,0,25.271,-8.317,46.982\C,0,27.093,-5.83,45.569\C,0,22.574,-7.608,45.
 045\C,0,23.795,-11.38,47.922\C,0,28.091,-9.293,48.834\N,0,24.875,-6.9,
 45.573\C,0,25.77,-5.919,45.132\C,0,25.135,-5.173,43.967\C,0,23.618,-5.
 469,44.123\C,0,23.674,-6.72,45.004\C,0,22.894,-4.294,44.814\C,0,25.614
 ,-5.627,42.582\C,0,26.103,-4.545,41.633\C,0,25.38,-4.417,40.289\O,0,24

 Normal termination of Gaussian 16 at Wed May  4 03:06:04 2022.
