 Gaussian 16, Revision A.03,
 Gaussian 16:  ES64L-G16RevA.03 25-Dec-2016

 ------------------------------
 #p blyp/Def2SVP td=(nstates=5)
 ------------------------------

 --------------------------------------------------
 step_651_chromophore_11 TDDFT with blyp functional
 --------------------------------------------------
 Symbolic Z-matrix:
 Charge =  0 Multiplicity = 1

                         Standard orientation:
 ---------------------------------------------------------------------
 Center     Atomic      Atomic             Coordinates (Angstroms)
 Number     Number       Type             X           Y           Z
 ---------------------------------------------------------------------
      1         12           0       -5.064755    1.122106    0.675276
      2          6           0       -4.899027   -2.459810    0.538615
      3          6           0       -2.476717    0.919278    2.905275
      4          6           0       -4.254231    4.411774    0.120814
      5          6           0       -7.066294    1.009428   -2.140843
      6          7           0       -3.905818   -0.637622    1.590861
      7          6           0       -3.964910   -1.959746    1.468799
      8          6           0       -3.088925   -2.779241    2.353821
      9          6           0       -2.635739   -1.571709    3.312587
     10          6           0       -3.012315   -0.333540    2.579068
     11          6           0       -3.219272   -1.584956    4.710128
     12          6           0       -1.985272   -3.598347    1.577988
     13          6           0       -1.304273   -2.825658    0.433629
     14          6           0       -0.241708   -3.581689   -0.221857
     15          8           0       -0.379339   -4.326200   -1.184849
     16          8           0        0.954037   -3.554367    0.549719
     17          7           0       -3.684397    2.544376    1.537114
     18          6           0       -2.749843    2.192763    2.432046
     19          6           0       -2.096795    3.440398    2.855271
     20          6           0       -2.712854    4.522908    2.154968
     21          6           0       -3.626713    3.888083    1.236453
     22          6           0       -1.006743    3.505010    3.936820
     23          6           0       -2.433849    6.042317    2.310134
     24          8           0       -1.500281    6.416271    3.055949
     25          6           0       -3.228658    7.121603    1.500620
     26          7           0       -5.563308    2.503825   -0.780219
     27          6           0       -5.154094    3.820719   -0.742092
     28          6           0       -5.741143    4.675072   -1.980832
     29          6           0       -6.559343    3.521010   -2.691858
     30          6           0       -6.350906    2.266097   -1.870363
     31          6           0       -6.531537    5.970992   -1.741690
     32          6           0       -6.141208    3.351616   -4.210332
     33          6           0       -7.324202    3.524053   -5.120697
     34          7           0       -5.893232   -0.357749   -0.582038
     35          6           0       -6.765648   -0.266374   -1.552339
     36          6           0       -7.350867   -1.587029   -1.856144
     37          6           0       -6.659898   -2.464267   -1.083247
     38          6           0       -5.789879   -1.712731   -0.308251
     39          6           0       -8.402365   -1.897845   -2.852909
     40          6           0       -6.581899   -3.832176   -0.607788
     41          8           0       -7.279240   -4.796976   -0.893799
     42          6           0       -5.312190   -3.865825    0.306058
     43          6           0       -4.398006   -4.626160   -0.536681
     44          8           0       -3.952527   -4.302997   -1.613385
     45          8           0       -4.088504   -5.847250    0.039367
     46          6           0       -3.239882   -6.636986   -0.804837
     47          6           0        2.092012   -4.260159   -0.032116
     48          6           0        3.197459   -3.210034   -0.209680
     49          6           0        4.235077   -2.955748    0.613057
     50          6           0        4.254693   -3.602529    2.057999
     51          6           0        5.388019   -2.054593    0.325684
     52          6           0        5.131972   -0.545524    0.232459
     53          6           0        5.610843    0.133031   -1.116953
     54          6           0        6.700538    1.301095   -0.945535
     55          6           0        6.271248    2.571335   -1.788245
     56          6           0        8.049943    0.686543   -1.390464
     57          6           0        8.602367   -0.076973   -0.161098
     58          6           0        9.357730    0.779601    0.842411
     59          6           0       10.827137    0.415262    1.069046
     60          6           0       11.314207    0.929583    2.412997
     61          6           0       11.659951    1.025485   -0.023085
     62          6           0       12.486905   -0.099733   -0.669059
     63          6           0       13.310857    0.462801   -1.957682
     64          6           0       14.942059    0.463001   -1.713826
     65          6           0       15.371102    1.962757   -1.379042
     66          6           0       15.599519   -0.085403   -2.941452
     67          1           0       -1.763027    0.814022    3.725690
     68          1           0       -4.068058    5.468354   -0.082179
     69          1           0       -7.813285    1.072541   -2.935782
     70          1           0       -3.677279   -3.474216    2.952071
     71          1           0       -1.552666   -1.571404    3.436554
     72          1           0       -2.411024   -1.551355    5.441075
     73          1           0       -3.703635   -2.549485    4.862275
     74          1           0       -3.934119   -0.796487    4.944481
     75          1           0       -2.510881   -4.516111    1.310384
     76          1           0       -1.141078   -3.848205    2.221248
     77          1           0       -1.015050   -1.891684    0.915139
     78          1           0       -2.066696   -2.543714   -0.293230
     79          1           0       -0.070067    3.175796    3.485660
     80          1           0       -1.171079    2.808699    4.758162
     81          1           0       -0.861695    4.506354    4.341599
     82          1           0       -3.022047    6.996404    0.437151
     83          1           0       -2.748295    8.034722    1.850127
     84          1           0       -4.252149    6.877771    1.784130
     85          1           0       -4.834745    4.795915   -2.574294
     86          1           0       -7.622135    3.742933   -2.592959
     87          1           0       -7.428830    5.863893   -1.131882
     88          1           0       -6.656052    6.575546   -2.639800
     89          1           0       -5.962135    6.616645   -1.073728
     90          1           0       -5.574665    2.445238   -4.428418
     91          1           0       -5.464521    4.162286   -4.480148
     92          1           0       -7.564082    4.563061   -5.350624
     93          1           0       -8.223607    3.064364   -4.710672
     94          1           0       -7.066700    3.185336   -6.123826
     95          1           0       -8.101167   -2.310881   -3.816235
     96          1           0       -8.913986   -0.947522   -3.006784
     97          1           0       -9.076114   -2.595206   -2.355154
     98          1           0       -5.456504   -4.445783    1.217729
     99          1           0       -3.210882   -7.585143   -0.267350
    100          1           0       -2.231012   -6.229323   -0.867414
    101          1           0       -3.749249   -6.748120   -1.762181
    102          1           0        1.921563   -4.873442   -0.916425
    103          1           0        2.399060   -4.928038    0.773578
    104          1           0        3.360448   -2.906779   -1.244067
    105          1           0        3.281260   -3.321801    2.459610
    106          1           0        5.026500   -3.141956    2.675177
    107          1           0        4.333659   -4.681429    2.189456
    108          1           0        5.854107   -2.358967   -0.612000
    109          1           0        6.213953   -2.334845    0.978365
    110          1           0        5.666631   -0.216187    1.123038
    111          1           0        4.093331   -0.230096    0.321382
    112          1           0        4.730497    0.473513   -1.662109
    113          1           0        5.883515   -0.665606   -1.805376
    114          1           0        6.676577    1.555698    0.114041
    115          1           0        7.168718    3.119635   -2.075689
    116          1           0        5.821029    3.270105   -1.082988
    117          1           0        5.676907    2.453878   -2.694409
    118          1           0        8.760106    1.499601   -1.533988
    119          1           0        7.858095    0.034823   -2.241974
    120          1           0        9.302537   -0.773015   -0.621605
    121          1           0        7.827009   -0.663540    0.332642
    122          1           0        8.835500    0.692779    1.795566
    123          1           0        9.164336    1.840697    0.682664
    124          1           0       10.851967   -0.674145    1.097562
    125          1           0       11.374775   -0.010551    2.961760
    126          1           0       10.530864    1.598679    2.771317
    127          1           0       12.302917    1.386930    2.368142
    128          1           0       12.200047    1.937056    0.231072
    129          1           0       11.096248    1.405473   -0.875658
    130          1           0       11.896050   -0.963094   -0.972736
    131          1           0       13.244951   -0.303733    0.087322
    132          1           0       12.961870    1.470288   -2.184142
    133          1           0       13.062256   -0.085045   -2.866632
    134          1           0       15.186797   -0.150018   -0.846505
    135          1           0       14.526949    2.339521   -0.801610
    136          1           0       15.507270    2.603936   -2.249740
    137          1           0       16.332435    1.897276   -0.868886
    138          1           0       15.449050   -1.121930   -3.243948
    139          1           0       16.681027   -0.011513   -2.825018
    140          1           0       15.350275    0.494703   -3.829855
 ---------------------------------------------------------------------

 SCF Done:  E(RB-LYP) =  -3007.36259857     A.U. after   22 cycles

 Excitation energies and oscillator strengths:

 Excited State   1:      Singlet-A      1.8047 eV  687.02 nm  f=0.2865  <S**2>=0.000
     245 -> 248       -0.19259
     246 -> 247        0.68591
     246 <- 247       -0.14582
 This state for optimization and/or second-order correction.
 Total Energy, E(TD-HF/TD-DFT) =  -3007.29627784
 Copying the excited state density for this state as the 1-particle RhoCI density.

 Excited State   2:      Singlet-A      1.9651 eV  630.92 nm  f=0.0070  <S**2>=0.000
     244 -> 247        0.64537
     245 -> 247       -0.26339

 Excited State   3:      Singlet-A      2.0009 eV  619.63 nm  f=0.0503  <S**2>=0.000
     243 -> 247       -0.13270
     244 -> 247        0.28333
     245 -> 247        0.57939
     246 -> 248        0.22602

 Excited State   4:      Singlet-A      2.2433 eV  552.70 nm  f=0.0043  <S**2>=0.000
     243 -> 247        0.68498
     246 -> 248        0.12379

 Excited State   5:      Singlet-A      2.3710 eV  522.93 nm  f=0.0001  <S**2>=0.000
     241 -> 247       -0.41969
     242 -> 247        0.56905

 The electronic state is 1-A.
 Alpha  occ. eigenvalues --  -46.28455 -18.81288 -18.81282 -18.77035 -18.76412
 Alpha  occ. eigenvalues --  -18.76300 -18.75817 -14.03673 -14.03470 -14.00961
 Alpha  occ. eigenvalues --  -14.00874 -10.03911 -10.03089 -10.00536 -10.00263
 Alpha  occ. eigenvalues --   -9.97303  -9.97278  -9.96736  -9.96564  -9.96220
 Alpha  occ. eigenvalues --   -9.95997  -9.95597  -9.95503  -9.95321  -9.94971
 Alpha  occ. eigenvalues --   -9.94628  -9.94594  -9.94011  -9.93991  -9.93796
 Alpha  occ. eigenvalues --   -9.93683  -9.93575  -9.93550  -9.93424  -9.93358
 Alpha  occ. eigenvalues --   -9.93264  -9.93171  -9.93120  -9.92878  -9.92853
 Alpha  occ. eigenvalues --   -9.92810  -9.92732  -9.92612  -9.92468  -9.92450
 Alpha  occ. eigenvalues --   -9.92366  -9.91991  -9.91942  -9.91846  -9.91798
 Alpha  occ. eigenvalues --   -9.91772  -9.91470  -9.91391  -9.91319  -9.91192
 Alpha  occ. eigenvalues --   -9.91173  -9.91126  -9.91075  -9.90989  -9.90882
 Alpha  occ. eigenvalues --   -9.90742  -9.90693  -9.90665  -9.90520  -9.90473
 Alpha  occ. eigenvalues --   -9.90413  -2.92969  -1.73361  -1.72850  -1.72696
 Alpha  occ. eigenvalues --   -0.98016  -0.96424  -0.91843  -0.90114  -0.89824
 Alpha  occ. eigenvalues --   -0.89345  -0.87767  -0.86979  -0.85900  -0.85028
 Alpha  occ. eigenvalues --   -0.76635  -0.73832  -0.73439  -0.72855  -0.72583
 Alpha  occ. eigenvalues --   -0.72150  -0.71518  -0.71273  -0.70380  -0.70081
 Alpha  occ. eigenvalues --   -0.69603  -0.68598  -0.68157  -0.67796  -0.67480
 Alpha  occ. eigenvalues --   -0.66283  -0.65930  -0.65270  -0.64794  -0.64609
 Alpha  occ. eigenvalues --   -0.63858  -0.62621  -0.62256  -0.61789  -0.60583
 Alpha  occ. eigenvalues --   -0.60006  -0.59982  -0.59724  -0.59335  -0.58395
 Alpha  occ. eigenvalues --   -0.58299  -0.57497  -0.57143  -0.56139  -0.54518
 Alpha  occ. eigenvalues --   -0.54149  -0.53481  -0.52577  -0.52150  -0.51867
 Alpha  occ. eigenvalues --   -0.51501  -0.51291  -0.50855  -0.50769  -0.50230
 Alpha  occ. eigenvalues --   -0.49544  -0.49298  -0.48905  -0.47565  -0.46609
 Alpha  occ. eigenvalues --   -0.46104  -0.45839  -0.45720  -0.45365  -0.45122
 Alpha  occ. eigenvalues --   -0.44825  -0.44033  -0.43129  -0.42856  -0.42236
 Alpha  occ. eigenvalues --   -0.42066  -0.41681  -0.41562  -0.41356  -0.40919
 Alpha  occ. eigenvalues --   -0.40812  -0.40432  -0.40330  -0.40134  -0.40065
 Alpha  occ. eigenvalues --   -0.39803  -0.39660  -0.39503  -0.39167  -0.39078
 Alpha  occ. eigenvalues --   -0.38894  -0.38657  -0.38349  -0.38323  -0.38274
 Alpha  occ. eigenvalues --   -0.37729  -0.37595  -0.37434  -0.37262  -0.37014
 Alpha  occ. eigenvalues --   -0.36826  -0.36574  -0.36363  -0.36301  -0.36179
 Alpha  occ. eigenvalues --   -0.36103  -0.35955  -0.35851  -0.35513  -0.35396
 Alpha  occ. eigenvalues --   -0.35350  -0.35118  -0.35045  -0.34755  -0.34679
 Alpha  occ. eigenvalues --   -0.34633  -0.34450  -0.34328  -0.34076  -0.34048
 Alpha  occ. eigenvalues --   -0.33896  -0.33773  -0.33595  -0.33499  -0.33326
 Alpha  occ. eigenvalues --   -0.33186  -0.32959  -0.32740  -0.32456  -0.32343
 Alpha  occ. eigenvalues --   -0.32323  -0.31992  -0.31877  -0.31612  -0.31459
 Alpha  occ. eigenvalues --   -0.31237  -0.31068  -0.30967  -0.30910  -0.30850
 Alpha  occ. eigenvalues --   -0.30562  -0.30218  -0.30101  -0.30029  -0.29807
 Alpha  occ. eigenvalues --   -0.29535  -0.29498  -0.29377  -0.29225  -0.29093
 Alpha  occ. eigenvalues --   -0.28892  -0.28801  -0.28374  -0.28041  -0.27923
 Alpha  occ. eigenvalues --   -0.27414  -0.27228  -0.27130  -0.26935  -0.26813
 Alpha  occ. eigenvalues --   -0.26152  -0.25926  -0.25861  -0.25492  -0.25023
 Alpha  occ. eigenvalues --   -0.24663  -0.24284  -0.24087  -0.23694  -0.23596
 Alpha  occ. eigenvalues --   -0.22765  -0.22551  -0.22299  -0.21563  -0.20976
 Alpha  occ. eigenvalues --   -0.20134  -0.20117  -0.19469  -0.18570  -0.17272
 Alpha  occ. eigenvalues --   -0.15717
 Alpha virt. eigenvalues --   -0.11411  -0.07267  -0.06417  -0.05053  -0.04526
 Alpha virt. eigenvalues --   -0.03708  -0.02962  -0.01848  -0.01623  -0.00052
 Alpha virt. eigenvalues --    0.01211   0.01729   0.02319   0.02564   0.03389

 Mulliken charges:
               1
     1  Mg   0.707525
     2  C    0.080146
     3  C   -0.078239
     4  C   -0.026254
     5  C   -0.088558
     6  N   -0.162155
     7  C   -0.163329
     8  C    0.074952
     9  C   -0.012680
    10  C   -0.004630
    11  C    0.145473
    12  C    0.064479
    13  C    0.153718
    14  C    0.108589
    15  O   -0.176967
    16  O   -0.307586
    17  N   -0.266335
    18  C    0.171098
    19  C   -0.151364
    20  C    0.045304
    21  C    0.106954
    22  C    0.175306
    23  C   -0.089901
    24  O   -0.184249
    25  C    0.132408
    26  N   -0.249258
    27  C   -0.018828
    28  C    0.034871
    29  C    0.005929
    30  C    0.027711
    31  C    0.153588
    32  C    0.117969
    33  C    0.054638
    34  N   -0.211642
    35  C    0.093035
    36  C   -0.196601
    37  C    0.135793
    38  C    0.028471
    39  C    0.163853
    40  C   -0.045706
    41  O   -0.124151
    42  C    0.081530
    43  C    0.064595
    44  O   -0.163531
    45  O   -0.272186
    46  C    0.223911
    47  C    0.332488
    48  C   -0.074367
    49  C   -0.153978
    50  C    0.094499
    51  C    0.127622
    52  C    0.084987
    53  C    0.075272
    54  C   -0.085639
    55  C    0.116316
    56  C    0.129586
    57  C    0.078440
    58  C    0.091950
    59  C   -0.067531
    60  C    0.146801
    61  C    0.086866
    62  C    0.051506
    63  C    0.073399
    64  C   -0.070534
    65  C    0.082415
    66  C    0.105607
    67  H   -0.070450
    68  H   -0.102269
    69  H   -0.057983
    70  H   -0.025652
    71  H   -0.028418
    72  H   -0.008029
    73  H   -0.019608
    74  H    0.001271
    75  H    0.004284
    76  H   -0.015981
    77  H   -0.013581
    78  H    0.022692
    79  H   -0.008745
    80  H   -0.014787
    81  H    0.009473
    82  H    0.037534
    83  H    0.000054
    84  H    0.018077
    85  H   -0.020087
    86  H   -0.020796
    87  H   -0.009383
    88  H    0.000881
    89  H   -0.027580
    90  H   -0.008361
    91  H   -0.031129
    92  H   -0.017647
    93  H   -0.000807
    94  H   -0.018327
    95  H    0.020940
    96  H   -0.022200
    97  H    0.007090
    98  H   -0.029360
    99  H   -0.005894
   100  H    0.022123
   101  H    0.017843
   102  H    0.007179
   103  H   -0.031851
   104  H   -0.043598
   105  H    0.007954
   106  H   -0.019463
   107  H    0.011127
   108  H   -0.029882
   109  H   -0.030151
   110  H   -0.018607
   111  H   -0.013417
   112  H   -0.039774
   113  H   -0.039432
   114  H   -0.027002
   115  H   -0.036167
   116  H   -0.022176
   117  H   -0.001216
   118  H   -0.027819
   119  H   -0.028079
   120  H   -0.040848
   121  H   -0.036786
   122  H   -0.063671
   123  H   -0.042095
   124  H   -0.035251
   125  H   -0.021184
   126  H   -0.015208
   127  H   -0.015524
   128  H   -0.032496
   129  H   -0.040574
   130  H   -0.010511
   131  H   -0.027575
   132  H   -0.038298
   133  H   -0.041104
   134  H   -0.024673
   135  H   -0.006833
   136  H   -0.012809
   137  H   -0.009590
   138  H   -0.017033
   139  H   -0.033172
   140  H   -0.020980
 Sum of Mulliken charges =  -0.00000

 Dipole moment (field-independent basis, Debye):
    X=              0.0135    Y=              2.2832    Z=              1.4455  Tot=              2.7023
 Quadrupole moment (field-independent basis, Debye-Ang):
   XX=           -387.4409   YY=           -422.0697   ZZ=           -400.5172
   XY=            -47.6304   XZ=             -1.9360   YZ=            -36.8813

 Normal termination of Gaussian 16 at Thu May  5 05:29:36 2022.
