 Gaussian 16, Revision A.03,
 Gaussian 16:  ES64L-G16RevA.03 25-Dec-2016

 -----------------------------------
 #p cam-b3lyp/Def2SVP td=(nstates=5)
 -----------------------------------

 -------------------------------------------------------
 step_651_chromophore_11 TDDFT with cam-b3lyp functional
 -------------------------------------------------------
 Symbolic Z-matrix:
 Charge =  0 Multiplicity = 1

                         Standard orientation:
 ---------------------------------------------------------------------
 Center     Atomic      Atomic             Coordinates (Angstroms)
 Number     Number       Type             X           Y           Z
 ---------------------------------------------------------------------
      1         12           0       -5.064755    1.122106    0.675276
      2          6           0       -4.899027   -2.459810    0.538615
      3          6           0       -2.476717    0.919278    2.905275
      4          6           0       -4.254231    4.411774    0.120814
      5          6           0       -7.066294    1.009428   -2.140843
      6          7           0       -3.905818   -0.637622    1.590861
      7          6           0       -3.964910   -1.959746    1.468799
      8          6           0       -3.088925   -2.779241    2.353821
      9          6           0       -2.635739   -1.571709    3.312587
     10          6           0       -3.012315   -0.333540    2.579068
     11          6           0       -3.219272   -1.584956    4.710128
     12          6           0       -1.985272   -3.598347    1.577988
     13          6           0       -1.304273   -2.825658    0.433629
     14          6           0       -0.241708   -3.581689   -0.221857
     15          8           0       -0.379339   -4.326200   -1.184849
     16          8           0        0.954037   -3.554367    0.549719
     17          7           0       -3.684397    2.544376    1.537114
     18          6           0       -2.749843    2.192763    2.432046
     19          6           0       -2.096795    3.440398    2.855271
     20          6           0       -2.712854    4.522908    2.154968
     21          6           0       -3.626713    3.888083    1.236453
     22          6           0       -1.006743    3.505010    3.936820
     23          6           0       -2.433849    6.042317    2.310134
     24          8           0       -1.500281    6.416271    3.055949
     25          6           0       -3.228658    7.121603    1.500620
     26          7           0       -5.563308    2.503825   -0.780219
     27          6           0       -5.154094    3.820719   -0.742092
     28          6           0       -5.741143    4.675072   -1.980832
     29          6           0       -6.559343    3.521010   -2.691858
     30          6           0       -6.350906    2.266097   -1.870363
     31          6           0       -6.531537    5.970992   -1.741690
     32          6           0       -6.141208    3.351616   -4.210332
     33          6           0       -7.324202    3.524053   -5.120697
     34          7           0       -5.893232   -0.357749   -0.582038
     35          6           0       -6.765648   -0.266374   -1.552339
     36          6           0       -7.350867   -1.587029   -1.856144
     37          6           0       -6.659898   -2.464267   -1.083247
     38          6           0       -5.789879   -1.712731   -0.308251
     39          6           0       -8.402365   -1.897845   -2.852909
     40          6           0       -6.581899   -3.832176   -0.607788
     41          8           0       -7.279240   -4.796976   -0.893799
     42          6           0       -5.312190   -3.865825    0.306058
     43          6           0       -4.398006   -4.626160   -0.536681
     44          8           0       -3.952527   -4.302997   -1.613385
     45          8           0       -4.088504   -5.847250    0.039367
     46          6           0       -3.239882   -6.636986   -0.804837
     47          6           0        2.092012   -4.260159   -0.032116
     48          6           0        3.197459   -3.210034   -0.209680
     49          6           0        4.235077   -2.955748    0.613057
     50          6           0        4.254693   -3.602529    2.057999
     51          6           0        5.388019   -2.054593    0.325684
     52          6           0        5.131972   -0.545524    0.232459
     53          6           0        5.610843    0.133031   -1.116953
     54          6           0        6.700538    1.301095   -0.945535
     55          6           0        6.271248    2.571335   -1.788245
     56          6           0        8.049943    0.686543   -1.390464
     57          6           0        8.602367   -0.076973   -0.161098
     58          6           0        9.357730    0.779601    0.842411
     59          6           0       10.827137    0.415262    1.069046
     60          6           0       11.314207    0.929583    2.412997
     61          6           0       11.659951    1.025485   -0.023085
     62          6           0       12.486905   -0.099733   -0.669059
     63          6           0       13.310857    0.462801   -1.957682
     64          6           0       14.942059    0.463001   -1.713826
     65          6           0       15.371102    1.962757   -1.379042
     66          6           0       15.599519   -0.085403   -2.941452
     67          1           0       -1.763027    0.814022    3.725690
     68          1           0       -4.068058    5.468354   -0.082179
     69          1           0       -7.813285    1.072541   -2.935782
     70          1           0       -3.677279   -3.474216    2.952071
     71          1           0       -1.552666   -1.571404    3.436554
     72          1           0       -2.411024   -1.551355    5.441075
     73          1           0       -3.703635   -2.549485    4.862275
     74          1           0       -3.934119   -0.796487    4.944481
     75          1           0       -2.510881   -4.516111    1.310384
     76          1           0       -1.141078   -3.848205    2.221248
     77          1           0       -1.015050   -1.891684    0.915139
     78          1           0       -2.066696   -2.543714   -0.293230
     79          1           0       -0.070067    3.175796    3.485660
     80          1           0       -1.171079    2.808699    4.758162
     81          1           0       -0.861695    4.506354    4.341599
     82          1           0       -3.022047    6.996404    0.437151
     83          1           0       -2.748295    8.034722    1.850127
     84          1           0       -4.252149    6.877771    1.784130
     85          1           0       -4.834745    4.795915   -2.574294
     86          1           0       -7.622135    3.742933   -2.592959
     87          1           0       -7.428830    5.863893   -1.131882
     88          1           0       -6.656052    6.575546   -2.639800
     89          1           0       -5.962135    6.616645   -1.073728
     90          1           0       -5.574665    2.445238   -4.428418
     91          1           0       -5.464521    4.162286   -4.480148
     92          1           0       -7.564082    4.563061   -5.350624
     93          1           0       -8.223607    3.064364   -4.710672
     94          1           0       -7.066700    3.185336   -6.123826
     95          1           0       -8.101167   -2.310881   -3.816235
     96          1           0       -8.913986   -0.947522   -3.006784
     97          1           0       -9.076114   -2.595206   -2.355154
     98          1           0       -5.456504   -4.445783    1.217729
     99          1           0       -3.210882   -7.585143   -0.267350
    100          1           0       -2.231012   -6.229323   -0.867414
    101          1           0       -3.749249   -6.748120   -1.762181
    102          1           0        1.921563   -4.873442   -0.916425
    103          1           0        2.399060   -4.928038    0.773578
    104          1           0        3.360448   -2.906779   -1.244067
    105          1           0        3.281260   -3.321801    2.459610
    106          1           0        5.026500   -3.141956    2.675177
    107          1           0        4.333659   -4.681429    2.189456
    108          1           0        5.854107   -2.358967   -0.612000
    109          1           0        6.213953   -2.334845    0.978365
    110          1           0        5.666631   -0.216187    1.123038
    111          1           0        4.093331   -0.230096    0.321382
    112          1           0        4.730497    0.473513   -1.662109
    113          1           0        5.883515   -0.665606   -1.805376
    114          1           0        6.676577    1.555698    0.114041
    115          1           0        7.168718    3.119635   -2.075689
    116          1           0        5.821029    3.270105   -1.082988
    117          1           0        5.676907    2.453878   -2.694409
    118          1           0        8.760106    1.499601   -1.533988
    119          1           0        7.858095    0.034823   -2.241974
    120          1           0        9.302537   -0.773015   -0.621605
    121          1           0        7.827009   -0.663540    0.332642
    122          1           0        8.835500    0.692779    1.795566
    123          1           0        9.164336    1.840697    0.682664
    124          1           0       10.851967   -0.674145    1.097562
    125          1           0       11.374775   -0.010551    2.961760
    126          1           0       10.530864    1.598679    2.771317
    127          1           0       12.302917    1.386930    2.368142
    128          1           0       12.200047    1.937056    0.231072
    129          1           0       11.096248    1.405473   -0.875658
    130          1           0       11.896050   -0.963094   -0.972736
    131          1           0       13.244951   -0.303733    0.087322
    132          1           0       12.961870    1.470288   -2.184142
    133          1           0       13.062256   -0.085045   -2.866632
    134          1           0       15.186797   -0.150018   -0.846505
    135          1           0       14.526949    2.339521   -0.801610
    136          1           0       15.507270    2.603936   -2.249740
    137          1           0       16.332435    1.897276   -0.868886
    138          1           0       15.449050   -1.121930   -3.243948
    139          1           0       16.681027   -0.011513   -2.825018
    140          1           0       15.350275    0.494703   -3.829855
 ---------------------------------------------------------------------

 SCF Done:  E(RCAM-B3LYP) =  -3007.15737662     A.U. after   17 cycles

 Excitation energies and oscillator strengths:

 Excited State   1:      Singlet-A      1.7164 eV  722.34 nm  f=0.3638  <S**2>=0.000
     245 -> 248       -0.18601
     246 -> 247        0.68297
     245 <- 248       -0.10732
 This state for optimization and/or second-order correction.
 Total Energy, E(TD-HF/TD-DFT) =  -3007.09429923
 Copying the excited state density for this state as the 1-particle RhoCI density.

 Excited State   2:      Singlet-A      2.2498 eV  551.10 nm  f=0.0663  <S**2>=0.000
     245 -> 247        0.61663
     246 -> 248        0.33506

 Excited State   3:      Singlet-A      3.3591 eV  369.10 nm  f=0.2850  <S**2>=0.000
     244 -> 247       -0.37437
     245 -> 247       -0.21950
     246 -> 248        0.47104
     246 -> 249        0.14709
     246 -> 250        0.22091

 Excited State   4:      Singlet-A      3.4056 eV  364.06 nm  f=0.1561  <S**2>=0.000
     240 -> 247        0.10756
     244 -> 247        0.56442
     245 -> 247       -0.15849
     246 -> 248        0.26065
     246 -> 249        0.10540
     246 -> 250        0.18011

 Excited State   5:      Singlet-A      3.5367 eV  350.56 nm  f=0.1750  <S**2>=0.000
     240 -> 247       -0.14956
     245 -> 247        0.15140
     246 -> 248       -0.23593
     246 -> 249        0.37725
     246 -> 250        0.46896

 The electronic state is 1-A.
 Alpha  occ. eigenvalues --  -46.90140 -19.24260 -19.24086 -19.20069 -19.19790
 Alpha  occ. eigenvalues --  -19.19525 -19.18981 -14.42487 -14.42466 -14.39370
 Alpha  occ. eigenvalues --  -14.39355 -10.39319 -10.38562 -10.35770 -10.35745
 Alpha  occ. eigenvalues --  -10.31907 -10.31313 -10.31230 -10.31084 -10.30566
 Alpha  occ. eigenvalues --  -10.29978 -10.29900 -10.29823 -10.29442 -10.29094
 Alpha  occ. eigenvalues --  -10.29014 -10.28671 -10.28187 -10.28006 -10.27980
 Alpha  occ. eigenvalues --  -10.27977 -10.27953 -10.27752 -10.27684 -10.27493
 Alpha  occ. eigenvalues --  -10.27484 -10.27035 -10.26995 -10.26992 -10.26991
 Alpha  occ. eigenvalues --  -10.26854 -10.26464 -10.26451 -10.26442 -10.26252
 Alpha  occ. eigenvalues --  -10.26133 -10.25754 -10.25587 -10.25475 -10.25399
 Alpha  occ. eigenvalues --  -10.25384 -10.25204 -10.25093 -10.25031 -10.25006
 Alpha  occ. eigenvalues --  -10.24893 -10.24868 -10.24789 -10.24747 -10.24636
 Alpha  occ. eigenvalues --  -10.24511 -10.24324 -10.24307 -10.24079 -10.24049
 Alpha  occ. eigenvalues --  -10.23975  -3.18545  -1.93415  -1.92994  -1.92846
 Alpha  occ. eigenvalues --   -1.16681  -1.14850  -1.10404  -1.08393  -1.07848
 Alpha  occ. eigenvalues --   -1.07150  -1.05632  -1.04714  -1.03489  -1.02529
 Alpha  occ. eigenvalues --   -0.93984  -0.90676  -0.90256  -0.89605  -0.89333
 Alpha  occ. eigenvalues --   -0.88788  -0.88165  -0.87900  -0.86974  -0.86627
 Alpha  occ. eigenvalues --   -0.86027  -0.85081  -0.84428  -0.84031  -0.83635
 Alpha  occ. eigenvalues --   -0.82319  -0.82010  -0.81342  -0.80623  -0.80471
 Alpha  occ. eigenvalues --   -0.79611  -0.78231  -0.77809  -0.77338  -0.75978
 Alpha  occ. eigenvalues --   -0.75324  -0.75296  -0.75006  -0.74573  -0.73569
 Alpha  occ. eigenvalues --   -0.73397  -0.72528  -0.72060  -0.70987  -0.69175
 Alpha  occ. eigenvalues --   -0.68735  -0.67962  -0.66981  -0.66491  -0.65915
 Alpha  occ. eigenvalues --   -0.65765  -0.65513  -0.64950  -0.64807  -0.64288
 Alpha  occ. eigenvalues --   -0.63331  -0.63255  -0.62783  -0.61401  -0.60299
 Alpha  occ. eigenvalues --   -0.59771  -0.59352  -0.59183  -0.58852  -0.58605
 Alpha  occ. eigenvalues --   -0.58469  -0.57492  -0.56328  -0.56049  -0.55528
 Alpha  occ. eigenvalues --   -0.55072  -0.54779  -0.54396  -0.54230  -0.53834
 Alpha  occ. eigenvalues --   -0.53533  -0.53291  -0.53109  -0.52913  -0.52748
 Alpha  occ. eigenvalues --   -0.52461  -0.52285  -0.52205  -0.51900  -0.51604
 Alpha  occ. eigenvalues --   -0.51553  -0.51447  -0.51054  -0.50778  -0.50636
 Alpha  occ. eigenvalues --   -0.49996  -0.49956  -0.49838  -0.49794  -0.49467
 Alpha  occ. eigenvalues --   -0.49043  -0.48818  -0.48664  -0.48516  -0.48364
 Alpha  occ. eigenvalues --   -0.48277  -0.48128  -0.47897  -0.47813  -0.47461
 Alpha  occ. eigenvalues --   -0.47332  -0.47199  -0.47118  -0.46826  -0.46708
 Alpha  occ. eigenvalues --   -0.46533  -0.46360  -0.46167  -0.45914  -0.45863
 Alpha  occ. eigenvalues --   -0.45616  -0.45531  -0.45347  -0.45175  -0.45151
 Alpha  occ. eigenvalues --   -0.44968  -0.44612  -0.44289  -0.44130  -0.43962
 Alpha  occ. eigenvalues --   -0.43935  -0.43703  -0.43431  -0.43333  -0.42952
 Alpha  occ. eigenvalues --   -0.42781  -0.42610  -0.42442  -0.42348  -0.42149
 Alpha  occ. eigenvalues --   -0.42055  -0.41744  -0.41670  -0.41459  -0.41255
 Alpha  occ. eigenvalues --   -0.41162  -0.40704  -0.40664  -0.40407  -0.40242
 Alpha  occ. eigenvalues --   -0.39935  -0.39834  -0.39285  -0.39002  -0.38868
 Alpha  occ. eigenvalues --   -0.38243  -0.38217  -0.38022  -0.37728  -0.37625
 Alpha  occ. eigenvalues --   -0.37245  -0.36711  -0.36586  -0.36286  -0.36152
 Alpha  occ. eigenvalues --   -0.35570  -0.34780  -0.34687  -0.34524  -0.34443
 Alpha  occ. eigenvalues --   -0.34300  -0.33632  -0.33022  -0.31885  -0.31100
 Alpha  occ. eigenvalues --   -0.30927  -0.30361  -0.29786  -0.29236  -0.24126
 Alpha  occ. eigenvalues --   -0.20962
 Alpha virt. eigenvalues --   -0.08396  -0.02179   0.00039   0.00557   0.01989
 Alpha virt. eigenvalues --    0.03929   0.04589   0.05531   0.05958   0.06595
 Alpha virt. eigenvalues --    0.08083   0.08371   0.08850   0.08944   0.09302

 Mulliken charges:
               1
     1  Mg   0.836397
     2  C    0.052288
     3  C   -0.084138
     4  C   -0.048779
     5  C   -0.096326
     6  N   -0.226338
     7  C   -0.124322
     8  C    0.027365
     9  C   -0.069422
    10  C    0.005141
    11  C    0.086730
    12  C    0.017368
    13  C    0.078488
    14  C    0.192515
    15  O   -0.218065
    16  O   -0.371729
    17  N   -0.353360
    18  C    0.174057
    19  C   -0.153882
    20  C   -0.025758
    21  C    0.133289
    22  C    0.118900
    23  C   -0.010456
    24  O   -0.226329
    25  C    0.052197
    26  N   -0.326867
    27  C    0.008924
    28  C   -0.021662
    29  C   -0.056816
    30  C    0.057422
    31  C    0.095191
    32  C    0.058810
    33  C   -0.004341
    34  N   -0.299277
    35  C    0.098977
    36  C   -0.197932
    37  C    0.072606
    38  C    0.061884
    39  C    0.117366
    40  C    0.044441
    41  O   -0.160850
    42  C   -0.005231
    43  C    0.157684
    44  O   -0.196574
    45  O   -0.334357
    46  C    0.181573
    47  C    0.286392
    48  C   -0.090823
    49  C   -0.169015
    50  C    0.031437
    51  C    0.064645
    52  C    0.027347
    53  C    0.025946
    54  C   -0.143108
    55  C    0.059392
    56  C    0.076134
    57  C    0.027063
    58  C    0.037930
    59  C   -0.125721
    60  C    0.085628
    61  C    0.035823
    62  C    0.001196
    63  C    0.017861
    64  C   -0.128387
    65  C    0.029766
    66  C    0.044107
    67  H   -0.033173
    68  H   -0.067676
    69  H   -0.025130
    70  H    0.011317
    71  H    0.007390
    72  H    0.016674
    73  H    0.004916
    74  H    0.027522
    75  H    0.030826
    76  H    0.017456
    77  H    0.021159
    78  H    0.054267
    79  H    0.018261
    80  H    0.009320
    81  H    0.040759
    82  H    0.061937
    83  H    0.035928
    84  H    0.044177
    85  H    0.015269
    86  H    0.014228
    87  H    0.016075
    88  H    0.025536
    89  H   -0.004534
    90  H    0.022257
    91  H   -0.001974
    92  H    0.005681
    93  H    0.018265
    94  H    0.008050
    95  H    0.047437
    96  H    0.001419
    97  H    0.033494
    98  H    0.019394
    99  H    0.019233
   100  H    0.043039
   101  H    0.042172
   102  H    0.042055
   103  H   -0.001000
   104  H   -0.012555
   105  H    0.032591
   106  H    0.006156
   107  H    0.034041
   108  H    0.000277
   109  H   -0.000200
   110  H    0.006940
   111  H    0.017351
   112  H   -0.009232
   113  H   -0.012322
   114  H    0.003595
   115  H   -0.011539
   116  H    0.002934
   117  H    0.021629
   118  H   -0.002007
   119  H    0.001760
   120  H   -0.012669
   121  H   -0.013385
   122  H   -0.031481
   123  H   -0.013163
   124  H   -0.001892
   125  H    0.003304
   126  H    0.009408
   127  H    0.009152
   128  H   -0.004338
   129  H   -0.014766
   130  H    0.015652
   131  H   -0.002103
   132  H   -0.010159
   133  H   -0.010511
   134  H    0.005326
   135  H    0.012562
   136  H    0.010474
   137  H    0.013873
   138  H    0.008622
   139  H   -0.007765
   140  H    0.002000
 Sum of Mulliken charges =  -0.00000

 Dipole moment (field-independent basis, Debye):
    X=             -0.1624    Y=              2.4492    Z=              1.4803  Tot=              2.8664
 Quadrupole moment (field-independent basis, Debye-Ang):
   XX=           -385.7473   YY=           -418.7037   ZZ=           -399.0613
   XY=            -49.2030   XZ=             -2.0506   YZ=            -38.2256

 Normal termination of Gaussian 16 at Thu May  5 04:24:50 2022.
