 Gaussian 16, Revision A.03,
 Gaussian 16:  ES64L-G16RevA.03 25-Dec-2016

 ---------------------------------
 #p PBE1PBE/Def2SVP td=(nstates=5)
 ---------------------------------

 -----------------------------------------------------
 step_651_chromophore_11 TDDFT with PBE1PBE functional
 -----------------------------------------------------
 Symbolic Z-matrix:
 Charge =  0 Multiplicity = 1

                         Standard orientation:
 ---------------------------------------------------------------------
 Center     Atomic      Atomic             Coordinates (Angstroms)
 Number     Number       Type             X           Y           Z
 ---------------------------------------------------------------------
      1         12           0       -5.064755    1.122106    0.675276
      2          6           0       -4.899027   -2.459810    0.538615
      3          6           0       -2.476717    0.919278    2.905275
      4          6           0       -4.254231    4.411774    0.120814
      5          6           0       -7.066294    1.009428   -2.140843
      6          7           0       -3.905818   -0.637622    1.590861
      7          6           0       -3.964910   -1.959746    1.468799
      8          6           0       -3.088925   -2.779241    2.353821
      9          6           0       -2.635739   -1.571709    3.312587
     10          6           0       -3.012315   -0.333540    2.579068
     11          6           0       -3.219272   -1.584956    4.710128
     12          6           0       -1.985272   -3.598347    1.577988
     13          6           0       -1.304273   -2.825658    0.433629
     14          6           0       -0.241708   -3.581689   -0.221857
     15          8           0       -0.379339   -4.326200   -1.184849
     16          8           0        0.954037   -3.554367    0.549719
     17          7           0       -3.684397    2.544376    1.537114
     18          6           0       -2.749843    2.192763    2.432046
     19          6           0       -2.096795    3.440398    2.855271
     20          6           0       -2.712854    4.522908    2.154968
     21          6           0       -3.626713    3.888083    1.236453
     22          6           0       -1.006743    3.505010    3.936820
     23          6           0       -2.433849    6.042317    2.310134
     24          8           0       -1.500281    6.416271    3.055949
     25          6           0       -3.228658    7.121603    1.500620
     26          7           0       -5.563308    2.503825   -0.780219
     27          6           0       -5.154094    3.820719   -0.742092
     28          6           0       -5.741143    4.675072   -1.980832
     29          6           0       -6.559343    3.521010   -2.691858
     30          6           0       -6.350906    2.266097   -1.870363
     31          6           0       -6.531537    5.970992   -1.741690
     32          6           0       -6.141208    3.351616   -4.210332
     33          6           0       -7.324202    3.524053   -5.120697
     34          7           0       -5.893232   -0.357749   -0.582038
     35          6           0       -6.765648   -0.266374   -1.552339
     36          6           0       -7.350867   -1.587029   -1.856144
     37          6           0       -6.659898   -2.464267   -1.083247
     38          6           0       -5.789879   -1.712731   -0.308251
     39          6           0       -8.402365   -1.897845   -2.852909
     40          6           0       -6.581899   -3.832176   -0.607788
     41          8           0       -7.279240   -4.796976   -0.893799
     42          6           0       -5.312190   -3.865825    0.306058
     43          6           0       -4.398006   -4.626160   -0.536681
     44          8           0       -3.952527   -4.302997   -1.613385
     45          8           0       -4.088504   -5.847250    0.039367
     46          6           0       -3.239882   -6.636986   -0.804837
     47          6           0        2.092012   -4.260159   -0.032116
     48          6           0        3.197459   -3.210034   -0.209680
     49          6           0        4.235077   -2.955748    0.613057
     50          6           0        4.254693   -3.602529    2.057999
     51          6           0        5.388019   -2.054593    0.325684
     52          6           0        5.131972   -0.545524    0.232459
     53          6           0        5.610843    0.133031   -1.116953
     54          6           0        6.700538    1.301095   -0.945535
     55          6           0        6.271248    2.571335   -1.788245
     56          6           0        8.049943    0.686543   -1.390464
     57          6           0        8.602367   -0.076973   -0.161098
     58          6           0        9.357730    0.779601    0.842411
     59          6           0       10.827137    0.415262    1.069046
     60          6           0       11.314207    0.929583    2.412997
     61          6           0       11.659951    1.025485   -0.023085
     62          6           0       12.486905   -0.099733   -0.669059
     63          6           0       13.310857    0.462801   -1.957682
     64          6           0       14.942059    0.463001   -1.713826
     65          6           0       15.371102    1.962757   -1.379042
     66          6           0       15.599519   -0.085403   -2.941452
     67          1           0       -1.763027    0.814022    3.725690
     68          1           0       -4.068058    5.468354   -0.082179
     69          1           0       -7.813285    1.072541   -2.935782
     70          1           0       -3.677279   -3.474216    2.952071
     71          1           0       -1.552666   -1.571404    3.436554
     72          1           0       -2.411024   -1.551355    5.441075
     73          1           0       -3.703635   -2.549485    4.862275
     74          1           0       -3.934119   -0.796487    4.944481
     75          1           0       -2.510881   -4.516111    1.310384
     76          1           0       -1.141078   -3.848205    2.221248
     77          1           0       -1.015050   -1.891684    0.915139
     78          1           0       -2.066696   -2.543714   -0.293230
     79          1           0       -0.070067    3.175796    3.485660
     80          1           0       -1.171079    2.808699    4.758162
     81          1           0       -0.861695    4.506354    4.341599
     82          1           0       -3.022047    6.996404    0.437151
     83          1           0       -2.748295    8.034722    1.850127
     84          1           0       -4.252149    6.877771    1.784130
     85          1           0       -4.834745    4.795915   -2.574294
     86          1           0       -7.622135    3.742933   -2.592959
     87          1           0       -7.428830    5.863893   -1.131882
     88          1           0       -6.656052    6.575546   -2.639800
     89          1           0       -5.962135    6.616645   -1.073728
     90          1           0       -5.574665    2.445238   -4.428418
     91          1           0       -5.464521    4.162286   -4.480148
     92          1           0       -7.564082    4.563061   -5.350624
     93          1           0       -8.223607    3.064364   -4.710672
     94          1           0       -7.066700    3.185336   -6.123826
     95          1           0       -8.101167   -2.310881   -3.816235
     96          1           0       -8.913986   -0.947522   -3.006784
     97          1           0       -9.076114   -2.595206   -2.355154
     98          1           0       -5.456504   -4.445783    1.217729
     99          1           0       -3.210882   -7.585143   -0.267350
    100          1           0       -2.231012   -6.229323   -0.867414
    101          1           0       -3.749249   -6.748120   -1.762181
    102          1           0        1.921563   -4.873442   -0.916425
    103          1           0        2.399060   -4.928038    0.773578
    104          1           0        3.360448   -2.906779   -1.244067
    105          1           0        3.281260   -3.321801    2.459610
    106          1           0        5.026500   -3.141956    2.675177
    107          1           0        4.333659   -4.681429    2.189456
    108          1           0        5.854107   -2.358967   -0.612000
    109          1           0        6.213953   -2.334845    0.978365
    110          1           0        5.666631   -0.216187    1.123038
    111          1           0        4.093331   -0.230096    0.321382
    112          1           0        4.730497    0.473513   -1.662109
    113          1           0        5.883515   -0.665606   -1.805376
    114          1           0        6.676577    1.555698    0.114041
    115          1           0        7.168718    3.119635   -2.075689
    116          1           0        5.821029    3.270105   -1.082988
    117          1           0        5.676907    2.453878   -2.694409
    118          1           0        8.760106    1.499601   -1.533988
    119          1           0        7.858095    0.034823   -2.241974
    120          1           0        9.302537   -0.773015   -0.621605
    121          1           0        7.827009   -0.663540    0.332642
    122          1           0        8.835500    0.692779    1.795566
    123          1           0        9.164336    1.840697    0.682664
    124          1           0       10.851967   -0.674145    1.097562
    125          1           0       11.374775   -0.010551    2.961760
    126          1           0       10.530864    1.598679    2.771317
    127          1           0       12.302917    1.386930    2.368142
    128          1           0       12.200047    1.937056    0.231072
    129          1           0       11.096248    1.405473   -0.875658
    130          1           0       11.896050   -0.963094   -0.972736
    131          1           0       13.244951   -0.303733    0.087322
    132          1           0       12.961870    1.470288   -2.184142
    133          1           0       13.062256   -0.085045   -2.866632
    134          1           0       15.186797   -0.150018   -0.846505
    135          1           0       14.526949    2.339521   -0.801610
    136          1           0       15.507270    2.603936   -2.249740
    137          1           0       16.332435    1.897276   -0.868886
    138          1           0       15.449050   -1.121930   -3.243948
    139          1           0       16.681027   -0.011513   -2.825018
    140          1           0       15.350275    0.494703   -3.829855
 ---------------------------------------------------------------------

 SCF Done:  E(RPBE1PBE) =  -3005.34655880     A.U. after   15 cycles

 Excitation energies and oscillator strengths:

 Excited State   1:      Singlet-A      1.8662 eV  664.36 nm  f=0.3541  <S**2>=0.000
     245 -> 248        0.17860
     246 -> 247        0.69015
     246 <- 247       -0.10433
 This state for optimization and/or second-order correction.
 Total Energy, E(TD-HF/TD-DFT) =  -3005.27797607
 Copying the excited state density for this state as the 1-particle RhoCI density.

 Excited State   2:      Singlet-A      2.2491 eV  551.25 nm  f=0.0713  <S**2>=0.000
     245 -> 247        0.63457
     246 -> 248       -0.29969

 Excited State   3:      Singlet-A      2.9834 eV  415.58 nm  f=0.0015  <S**2>=0.000
     244 -> 247        0.68771

 Excited State   4:      Singlet-A      3.1736 eV  390.67 nm  f=0.1970  <S**2>=0.000
     240 -> 247       -0.40592
     240 -> 249        0.11758
     241 -> 247       -0.18044
     245 -> 247        0.19058
     246 -> 248        0.45105

 Excited State   5:      Singlet-A      3.2198 eV  385.06 nm  f=0.0002  <S**2>=0.000
     241 -> 247        0.21266
     242 -> 247        0.62141
     242 -> 249        0.11718

 The electronic state is 1-A.
 Alpha  occ. eigenvalues --  -46.93525 -19.24855 -19.24766 -19.20267 -19.19930
 Alpha  occ. eigenvalues --  -19.19647 -19.19261 -14.42051 -14.41885 -14.39028
 Alpha  occ. eigenvalues --  -14.38948 -10.36259 -10.35509 -10.33024 -10.32841
 Alpha  occ. eigenvalues --  -10.29617 -10.29004 -10.28759 -10.28693 -10.28331
 Alpha  occ. eigenvalues --  -10.27587 -10.27515 -10.27197 -10.27088 -10.26907
 Alpha  occ. eigenvalues --  -10.26684 -10.26516 -10.25949 -10.25764 -10.25709
 Alpha  occ. eigenvalues --  -10.25597 -10.25595 -10.25530 -10.25286 -10.25234
 Alpha  occ. eigenvalues --  -10.25154 -10.24653 -10.24600 -10.24465 -10.24416
 Alpha  occ. eigenvalues --  -10.24353 -10.24119 -10.24071 -10.23962 -10.23932
 Alpha  occ. eigenvalues --  -10.23875 -10.23127 -10.23038 -10.23005 -10.22993
 Alpha  occ. eigenvalues --  -10.22795 -10.22691 -10.22650 -10.22644 -10.22597
 Alpha  occ. eigenvalues --  -10.22487 -10.22481 -10.22479 -10.22203 -10.22139
 Alpha  occ. eigenvalues --  -10.22053 -10.21877 -10.21734 -10.21635 -10.21449
 Alpha  occ. eigenvalues --  -10.21324  -3.15511  -1.88318  -1.87878  -1.87732
 Alpha  occ. eigenvalues --   -1.11366  -1.09578  -1.05066  -1.03160  -1.02593
 Alpha  occ. eigenvalues --   -1.01968  -1.00221  -0.99358  -0.98164  -0.97199
 Alpha  occ. eigenvalues --   -0.88285  -0.84768  -0.84445  -0.83764  -0.83652
 Alpha  occ. eigenvalues --   -0.83055  -0.82480  -0.82017  -0.81247  -0.80700
 Alpha  occ. eigenvalues --   -0.80296  -0.79429  -0.78705  -0.78268  -0.77830
 Alpha  occ. eigenvalues --   -0.76551  -0.76186  -0.75549  -0.74972  -0.74624
 Alpha  occ. eigenvalues --   -0.73830  -0.72462  -0.72128  -0.71665  -0.70279
 Alpha  occ. eigenvalues --   -0.69453  -0.69397  -0.69375  -0.68735  -0.67769
 Alpha  occ. eigenvalues --   -0.67668  -0.66911  -0.66462  -0.65313  -0.63603
 Alpha  occ. eigenvalues --   -0.63073  -0.62207  -0.61418  -0.60694  -0.60348
 Alpha  occ. eigenvalues --   -0.60260  -0.59693  -0.59485  -0.59378  -0.58420
 Alpha  occ. eigenvalues --   -0.57774  -0.57426  -0.56954  -0.55904  -0.54816
 Alpha  occ. eigenvalues --   -0.54298  -0.53864  -0.53634  -0.53344  -0.53039
 Alpha  occ. eigenvalues --   -0.52845  -0.52084  -0.50863  -0.50491  -0.50049
 Alpha  occ. eigenvalues --   -0.49578  -0.49286  -0.48874  -0.48690  -0.48401
 Alpha  occ. eigenvalues --   -0.48005  -0.47905  -0.47540  -0.47454  -0.47287
 Alpha  occ. eigenvalues --   -0.46967  -0.46777  -0.46701  -0.46449  -0.46165
 Alpha  occ. eigenvalues --   -0.46126  -0.45995  -0.45548  -0.45315  -0.45109
 Alpha  occ. eigenvalues --   -0.44553  -0.44516  -0.44435  -0.44375  -0.44063
 Alpha  occ. eigenvalues --   -0.43635  -0.43425  -0.43253  -0.43165  -0.42978
 Alpha  occ. eigenvalues --   -0.42864  -0.42751  -0.42547  -0.42407  -0.42121
 Alpha  occ. eigenvalues --   -0.41989  -0.41787  -0.41742  -0.41496  -0.41371
 Alpha  occ. eigenvalues --   -0.41208  -0.41054  -0.40892  -0.40692  -0.40523
 Alpha  occ. eigenvalues --   -0.40323  -0.40247  -0.40011  -0.39862  -0.39737
 Alpha  occ. eigenvalues --   -0.39708  -0.39426  -0.38942  -0.38901  -0.38758
 Alpha  occ. eigenvalues --   -0.38632  -0.38504  -0.38127  -0.38109  -0.37672
 Alpha  occ. eigenvalues --   -0.37633  -0.37422  -0.37288  -0.37120  -0.37012
 Alpha  occ. eigenvalues --   -0.36733  -0.36538  -0.36427  -0.36279  -0.36032
 Alpha  occ. eigenvalues --   -0.35971  -0.35600  -0.35451  -0.35258  -0.35099
 Alpha  occ. eigenvalues --   -0.34683  -0.34598  -0.34072  -0.33906  -0.33645
 Alpha  occ. eigenvalues --   -0.33210  -0.33010  -0.32792  -0.32664  -0.32510
 Alpha  occ. eigenvalues --   -0.32289  -0.31781  -0.31459  -0.31132  -0.30957
 Alpha  occ. eigenvalues --   -0.30530  -0.29936  -0.29696  -0.29385  -0.29352
 Alpha  occ. eigenvalues --   -0.29184  -0.28961  -0.28016  -0.27112  -0.26377
 Alpha  occ. eigenvalues --   -0.25993  -0.25719  -0.25071  -0.24786  -0.21015
 Alpha  occ. eigenvalues --   -0.18619
 Alpha virt. eigenvalues --   -0.10932  -0.05620  -0.04132  -0.02463  -0.02259
 Alpha virt. eigenvalues --   -0.00587   0.00113   0.01067   0.01395   0.02852
 Alpha virt. eigenvalues --    0.04274   0.04505   0.05119   0.05514   0.06127

 Mulliken charges:
               1
     1  Mg   0.972070
     2  C    0.040778
     3  C   -0.069165
     4  C   -0.053111
     5  C   -0.083776
     6  N   -0.331573
     7  C   -0.050341
     8  C   -0.036308
     9  C   -0.149977
    10  C    0.040635
    11  C    0.034270
    12  C   -0.034377
    13  C   -0.002391
    14  C    0.257193
    15  O   -0.252683
    16  O   -0.398297
    17  N   -0.469950
    18  C    0.200073
    19  C   -0.181866
    20  C   -0.065977
    21  C    0.159935
    22  C    0.060889
    23  C    0.042274
    24  O   -0.259475
    25  C   -0.027910
    26  N   -0.433975
    27  C    0.052717
    28  C   -0.101226
    29  C   -0.134621
    30  C    0.100819
    31  C    0.033098
    32  C   -0.000143
    33  C   -0.077122
    34  N   -0.422357
    35  C    0.120783
    36  C   -0.222108
    37  C    0.039904
    38  C    0.110646
    39  C    0.065377
    40  C    0.126652
    41  O   -0.207721
    42  C   -0.123747
    43  C    0.256305
    44  O   -0.230460
    45  O   -0.367607
    46  C    0.122581
    47  C    0.234703
    48  C   -0.099706
    49  C   -0.203381
    50  C   -0.033297
    51  C   -0.000515
    52  C   -0.035425
    53  C   -0.017546
    54  C   -0.230416
    55  C   -0.000228
    56  C    0.010584
    57  C   -0.041674
    58  C   -0.012943
    59  C   -0.219433
    60  C    0.026644
    61  C   -0.013828
    62  C   -0.066977
    63  C   -0.032589
    64  C   -0.220793
    65  C   -0.034285
    66  C   -0.016611
    67  H   -0.001669
    68  H   -0.029574
    69  H    0.008250
    70  H    0.047807
    71  H    0.043434
    72  H    0.043749
    73  H    0.033094
    74  H    0.054707
    75  H    0.067850
    76  H    0.050875
    77  H    0.056610
    78  H    0.088849
    79  H    0.047816
    80  H    0.036581
    81  H    0.068316
    82  H    0.086708
    83  H    0.063835
    84  H    0.072632
    85  H    0.053504
    86  H    0.051451
    87  H    0.043427
    88  H    0.053462
    89  H    0.023884
    90  H    0.053382
    91  H    0.031237
    92  H    0.034053
    93  H    0.045072
    94  H    0.036658
    95  H    0.073654
    96  H    0.029553
    97  H    0.061324
    98  H    0.055260
    99  H    0.042086
   100  H    0.068466
   101  H    0.064802
   102  H    0.067909
   103  H    0.027928
   104  H    0.018606
   105  H    0.060790
   106  H    0.033567
   107  H    0.060232
   108  H    0.033021
   109  H    0.029457
   110  H    0.038060
   111  H    0.049689
   112  H    0.023012
   113  H    0.017873
   114  H    0.041479
   115  H    0.016626
   116  H    0.031368
   117  H    0.047461
   118  H    0.032003
   119  H    0.034020
   120  H    0.022665
   121  H    0.029622
   122  H    0.002285
   123  H    0.019094
   124  H    0.034885
   125  H    0.031434
   126  H    0.036669
   127  H    0.036219
   128  H    0.026870
   129  H    0.021297
   130  H    0.046753
   131  H    0.033246
   132  H    0.021186
   133  H    0.021825
   134  H    0.041265
   135  H    0.042779
   136  H    0.037502
   137  H    0.041628
   138  H    0.036570
   139  H    0.021209
   140  H    0.029732
 Sum of Mulliken charges =  -0.00000

 Dipole moment (field-independent basis, Debye):
    X=             -0.1247    Y=              2.6007    Z=              1.4999  Tot=              3.0048
 Quadrupole moment (field-independent basis, Debye-Ang):
   XX=           -382.6356   YY=           -415.5202   ZZ=           -394.9491
   XY=            -50.0001   XZ=             -1.0372   YZ=            -39.1388

 Normal termination of Gaussian 16 at Thu May  5 04:46:01 2022.
