 Gaussian 16, Revision A.03,
 Gaussian 16:  ES64L-G16RevA.03 25-Dec-2016

 --------------------------------
 #p wB97XD/Def2SVP td=(nstates=5)
 --------------------------------

 ----------------------------------------------------
 step_651_chromophore_11 TDDFT with wB97XD functional
 ----------------------------------------------------
 Symbolic Z-matrix:
 Charge =  0 Multiplicity = 1

                         Standard orientation:
 ---------------------------------------------------------------------
 Center     Atomic      Atomic             Coordinates (Angstroms)
 Number     Number       Type             X           Y           Z
 ---------------------------------------------------------------------
      1         12           0       -5.064755    1.122106    0.675276
      2          6           0       -4.899027   -2.459810    0.538615
      3          6           0       -2.476717    0.919278    2.905275
      4          6           0       -4.254231    4.411774    0.120814
      5          6           0       -7.066294    1.009428   -2.140843
      6          7           0       -3.905818   -0.637622    1.590861
      7          6           0       -3.964910   -1.959746    1.468799
      8          6           0       -3.088925   -2.779241    2.353821
      9          6           0       -2.635739   -1.571709    3.312587
     10          6           0       -3.012315   -0.333540    2.579068
     11          6           0       -3.219272   -1.584956    4.710128
     12          6           0       -1.985272   -3.598347    1.577988
     13          6           0       -1.304273   -2.825658    0.433629
     14          6           0       -0.241708   -3.581689   -0.221857
     15          8           0       -0.379339   -4.326200   -1.184849
     16          8           0        0.954037   -3.554367    0.549719
     17          7           0       -3.684397    2.544376    1.537114
     18          6           0       -2.749843    2.192763    2.432046
     19          6           0       -2.096795    3.440398    2.855271
     20          6           0       -2.712854    4.522908    2.154968
     21          6           0       -3.626713    3.888083    1.236453
     22          6           0       -1.006743    3.505010    3.936820
     23          6           0       -2.433849    6.042317    2.310134
     24          8           0       -1.500281    6.416271    3.055949
     25          6           0       -3.228658    7.121603    1.500620
     26          7           0       -5.563308    2.503825   -0.780219
     27          6           0       -5.154094    3.820719   -0.742092
     28          6           0       -5.741143    4.675072   -1.980832
     29          6           0       -6.559343    3.521010   -2.691858
     30          6           0       -6.350906    2.266097   -1.870363
     31          6           0       -6.531537    5.970992   -1.741690
     32          6           0       -6.141208    3.351616   -4.210332
     33          6           0       -7.324202    3.524053   -5.120697
     34          7           0       -5.893232   -0.357749   -0.582038
     35          6           0       -6.765648   -0.266374   -1.552339
     36          6           0       -7.350867   -1.587029   -1.856144
     37          6           0       -6.659898   -2.464267   -1.083247
     38          6           0       -5.789879   -1.712731   -0.308251
     39          6           0       -8.402365   -1.897845   -2.852909
     40          6           0       -6.581899   -3.832176   -0.607788
     41          8           0       -7.279240   -4.796976   -0.893799
     42          6           0       -5.312190   -3.865825    0.306058
     43          6           0       -4.398006   -4.626160   -0.536681
     44          8           0       -3.952527   -4.302997   -1.613385
     45          8           0       -4.088504   -5.847250    0.039367
     46          6           0       -3.239882   -6.636986   -0.804837
     47          6           0        2.092012   -4.260159   -0.032116
     48          6           0        3.197459   -3.210034   -0.209680
     49          6           0        4.235077   -2.955748    0.613057
     50          6           0        4.254693   -3.602529    2.057999
     51          6           0        5.388019   -2.054593    0.325684
     52          6           0        5.131972   -0.545524    0.232459
     53          6           0        5.610843    0.133031   -1.116953
     54          6           0        6.700538    1.301095   -0.945535
     55          6           0        6.271248    2.571335   -1.788245
     56          6           0        8.049943    0.686543   -1.390464
     57          6           0        8.602367   -0.076973   -0.161098
     58          6           0        9.357730    0.779601    0.842411
     59          6           0       10.827137    0.415262    1.069046
     60          6           0       11.314207    0.929583    2.412997
     61          6           0       11.659951    1.025485   -0.023085
     62          6           0       12.486905   -0.099733   -0.669059
     63          6           0       13.310857    0.462801   -1.957682
     64          6           0       14.942059    0.463001   -1.713826
     65          6           0       15.371102    1.962757   -1.379042
     66          6           0       15.599519   -0.085403   -2.941452
     67          1           0       -1.763027    0.814022    3.725690
     68          1           0       -4.068058    5.468354   -0.082179
     69          1           0       -7.813285    1.072541   -2.935782
     70          1           0       -3.677279   -3.474216    2.952071
     71          1           0       -1.552666   -1.571404    3.436554
     72          1           0       -2.411024   -1.551355    5.441075
     73          1           0       -3.703635   -2.549485    4.862275
     74          1           0       -3.934119   -0.796487    4.944481
     75          1           0       -2.510881   -4.516111    1.310384
     76          1           0       -1.141078   -3.848205    2.221248
     77          1           0       -1.015050   -1.891684    0.915139
     78          1           0       -2.066696   -2.543714   -0.293230
     79          1           0       -0.070067    3.175796    3.485660
     80          1           0       -1.171079    2.808699    4.758162
     81          1           0       -0.861695    4.506354    4.341599
     82          1           0       -3.022047    6.996404    0.437151
     83          1           0       -2.748295    8.034722    1.850127
     84          1           0       -4.252149    6.877771    1.784130
     85          1           0       -4.834745    4.795915   -2.574294
     86          1           0       -7.622135    3.742933   -2.592959
     87          1           0       -7.428830    5.863893   -1.131882
     88          1           0       -6.656052    6.575546   -2.639800
     89          1           0       -5.962135    6.616645   -1.073728
     90          1           0       -5.574665    2.445238   -4.428418
     91          1           0       -5.464521    4.162286   -4.480148
     92          1           0       -7.564082    4.563061   -5.350624
     93          1           0       -8.223607    3.064364   -4.710672
     94          1           0       -7.066700    3.185336   -6.123826
     95          1           0       -8.101167   -2.310881   -3.816235
     96          1           0       -8.913986   -0.947522   -3.006784
     97          1           0       -9.076114   -2.595206   -2.355154
     98          1           0       -5.456504   -4.445783    1.217729
     99          1           0       -3.210882   -7.585143   -0.267350
    100          1           0       -2.231012   -6.229323   -0.867414
    101          1           0       -3.749249   -6.748120   -1.762181
    102          1           0        1.921563   -4.873442   -0.916425
    103          1           0        2.399060   -4.928038    0.773578
    104          1           0        3.360448   -2.906779   -1.244067
    105          1           0        3.281260   -3.321801    2.459610
    106          1           0        5.026500   -3.141956    2.675177
    107          1           0        4.333659   -4.681429    2.189456
    108          1           0        5.854107   -2.358967   -0.612000
    109          1           0        6.213953   -2.334845    0.978365
    110          1           0        5.666631   -0.216187    1.123038
    111          1           0        4.093331   -0.230096    0.321382
    112          1           0        4.730497    0.473513   -1.662109
    113          1           0        5.883515   -0.665606   -1.805376
    114          1           0        6.676577    1.555698    0.114041
    115          1           0        7.168718    3.119635   -2.075689
    116          1           0        5.821029    3.270105   -1.082988
    117          1           0        5.676907    2.453878   -2.694409
    118          1           0        8.760106    1.499601   -1.533988
    119          1           0        7.858095    0.034823   -2.241974
    120          1           0        9.302537   -0.773015   -0.621605
    121          1           0        7.827009   -0.663540    0.332642
    122          1           0        8.835500    0.692779    1.795566
    123          1           0        9.164336    1.840697    0.682664
    124          1           0       10.851967   -0.674145    1.097562
    125          1           0       11.374775   -0.010551    2.961760
    126          1           0       10.530864    1.598679    2.771317
    127          1           0       12.302917    1.386930    2.368142
    128          1           0       12.200047    1.937056    0.231072
    129          1           0       11.096248    1.405473   -0.875658
    130          1           0       11.896050   -0.963094   -0.972736
    131          1           0       13.244951   -0.303733    0.087322
    132          1           0       12.961870    1.470288   -2.184142
    133          1           0       13.062256   -0.085045   -2.866632
    134          1           0       15.186797   -0.150018   -0.846505
    135          1           0       14.526949    2.339521   -0.801610
    136          1           0       15.507270    2.603936   -2.249740
    137          1           0       16.332435    1.897276   -0.868886
    138          1           0       15.449050   -1.121930   -3.243948
    139          1           0       16.681027   -0.011513   -2.825018
    140          1           0       15.350275    0.494703   -3.829855
 ---------------------------------------------------------------------

 SCF Done:  E(RwB97XD) =  -3007.85927860     A.U. after   18 cycles

 Excitation energies and oscillator strengths:

 Excited State   1:      Singlet-A      1.6587 eV  747.47 nm  f=0.3617  <S**2>=0.000
     245 -> 248       -0.19271
     246 -> 247        0.68068
     245 <- 248       -0.11753
 This state for optimization and/or second-order correction.
 Total Energy, E(TD-HF/TD-DFT) =  -3007.79832152
 Copying the excited state density for this state as the 1-particle RhoCI density.

 Excited State   2:      Singlet-A      2.1946 eV  564.96 nm  f=0.0653  <S**2>=0.000
     245 -> 247        0.61588
     246 -> 248        0.33637

 Excited State   3:      Singlet-A      3.4041 eV  364.22 nm  f=0.2937  <S**2>=0.000
     244 -> 247        0.46720
     245 -> 247        0.21173
     246 -> 248       -0.45001

 Excited State   4:      Singlet-A      3.4464 eV  359.75 nm  f=0.3313  <S**2>=0.000
     240 -> 247        0.16038
     242 -> 247        0.15690
     244 -> 247        0.47042
     245 -> 247       -0.22465
     246 -> 248        0.37960

 Excited State   5:      Singlet-A      3.6529 eV  339.41 nm  f=0.0002  <S**2>=0.000
     239 -> 247       -0.26673
     239 -> 249       -0.21051
     239 -> 251        0.11840
     240 -> 247       -0.26537
     240 -> 249       -0.17466
     240 -> 251        0.11717
     241 -> 249       -0.13708
     242 -> 247        0.41808

 The electronic state is 1-A.
 Alpha  occ. eigenvalues --  -46.96488 -19.29491 -19.29317 -19.24977 -19.24877
 Alpha  occ. eigenvalues --  -19.24446 -19.23984 -14.47079 -14.47036 -14.43946
 Alpha  occ. eigenvalues --  -14.43936 -10.43108 -10.42405 -10.39802 -10.39744
 Alpha  occ. eigenvalues --  -10.35945 -10.35256 -10.35194 -10.35104 -10.34558
 Alpha  occ. eigenvalues --  -10.34015 -10.33817 -10.33640 -10.33420 -10.33179
 Alpha  occ. eigenvalues --  -10.33057 -10.32717 -10.32316 -10.32143 -10.32048
 Alpha  occ. eigenvalues --  -10.31992 -10.31980 -10.31818 -10.31792 -10.31555
 Alpha  occ. eigenvalues --  -10.31483 -10.31087 -10.30919 -10.30877 -10.30862
 Alpha  occ. eigenvalues --  -10.30850 -10.30435 -10.30368 -10.30325 -10.30203
 Alpha  occ. eigenvalues --  -10.30129 -10.29637 -10.29433 -10.29403 -10.29331
 Alpha  occ. eigenvalues --  -10.29185 -10.29106 -10.29013 -10.28954 -10.28952
 Alpha  occ. eigenvalues --  -10.28946 -10.28812 -10.28750 -10.28566 -10.28560
 Alpha  occ. eigenvalues --  -10.28423 -10.28233 -10.28143 -10.27996 -10.27861
 Alpha  occ. eigenvalues --  -10.27771  -3.22365  -1.95915  -1.95475  -1.95327
 Alpha  occ. eigenvalues --   -1.18836  -1.16988  -1.12671  -1.10578  -1.10043
 Alpha  occ. eigenvalues --   -1.09338  -1.07646  -1.06765  -1.05486  -1.04537
 Alpha  occ. eigenvalues --   -0.95994  -0.92422  -0.92100  -0.91409  -0.91246
 Alpha  occ. eigenvalues --   -0.90630  -0.90080  -0.89680  -0.88910  -0.88380
 Alpha  occ. eigenvalues --   -0.87924  -0.87017  -0.86350  -0.85911  -0.85469
 Alpha  occ. eigenvalues --   -0.84189  -0.83861  -0.83243  -0.82588  -0.82292
 Alpha  occ. eigenvalues --   -0.81494  -0.80126  -0.79726  -0.79258  -0.77926
 Alpha  occ. eigenvalues --   -0.77120  -0.77102  -0.76948  -0.76395  -0.75405
 Alpha  occ. eigenvalues --   -0.75305  -0.74505  -0.74013  -0.72922  -0.71161
 Alpha  occ. eigenvalues --   -0.70638  -0.69826  -0.68950  -0.68336  -0.67823
 Alpha  occ. eigenvalues --   -0.67751  -0.67343  -0.66950  -0.66807  -0.66091
 Alpha  occ. eigenvalues --   -0.65286  -0.65076  -0.64597  -0.63399  -0.62281
 Alpha  occ. eigenvalues --   -0.61760  -0.61266  -0.61143  -0.60787  -0.60586
 Alpha  occ. eigenvalues --   -0.60360  -0.59496  -0.58277  -0.57973  -0.57477
 Alpha  occ. eigenvalues --   -0.57002  -0.56712  -0.56299  -0.56111  -0.55772
 Alpha  occ. eigenvalues --   -0.55410  -0.55234  -0.54963  -0.54836  -0.54665
 Alpha  occ. eigenvalues --   -0.54362  -0.54165  -0.54096  -0.53802  -0.53554
 Alpha  occ. eigenvalues --   -0.53434  -0.53354  -0.53019  -0.52666  -0.52490
 Alpha  occ. eigenvalues --   -0.51914  -0.51891  -0.51747  -0.51721  -0.51354
 Alpha  occ. eigenvalues --   -0.50927  -0.50702  -0.50575  -0.50452  -0.50258
 Alpha  occ. eigenvalues --   -0.50151  -0.50008  -0.49833  -0.49670  -0.49357
 Alpha  occ. eigenvalues --   -0.49223  -0.49071  -0.49037  -0.48744  -0.48605
 Alpha  occ. eigenvalues --   -0.48427  -0.48276  -0.48089  -0.47836  -0.47775
 Alpha  occ. eigenvalues --   -0.47501  -0.47448  -0.47195  -0.47113  -0.46976
 Alpha  occ. eigenvalues --   -0.46878  -0.46566  -0.46141  -0.46055  -0.45862
 Alpha  occ. eigenvalues --   -0.45822  -0.45657  -0.45296  -0.45259  -0.44841
 Alpha  occ. eigenvalues --   -0.44723  -0.44544  -0.44321  -0.44256  -0.44063
 Alpha  occ. eigenvalues --   -0.43911  -0.43695  -0.43629  -0.43339  -0.43126
 Alpha  occ. eigenvalues --   -0.43064  -0.42566  -0.42533  -0.42273  -0.42135
 Alpha  occ. eigenvalues --   -0.41759  -0.41687  -0.41139  -0.40898  -0.40688
 Alpha  occ. eigenvalues --   -0.40115  -0.40070  -0.39843  -0.39668  -0.39561
 Alpha  occ. eigenvalues --   -0.39283  -0.38646  -0.38441  -0.38253  -0.37998
 Alpha  occ. eigenvalues --   -0.37463  -0.36727  -0.36641  -0.36450  -0.36293
 Alpha  occ. eigenvalues --   -0.36235  -0.35837  -0.34850  -0.33966  -0.33241
 Alpha  occ. eigenvalues --   -0.32885  -0.32538  -0.31808  -0.31379  -0.26043
 Alpha  occ. eigenvalues --   -0.22765
 Alpha virt. eigenvalues --   -0.06735  -0.00250   0.02167   0.03715   0.04096
 Alpha virt. eigenvalues --    0.06133   0.06874   0.07803   0.08151   0.09370
 Alpha virt. eigenvalues --    0.10820   0.11363   0.11757   0.12208   0.12676

 Mulliken charges:
               1
     1  Mg   0.965561
     2  C    0.037846
     3  C   -0.086608
     4  C   -0.057849
     5  C   -0.104811
     6  N   -0.293587
     7  C   -0.085014
     8  C   -0.012811
     9  C   -0.124079
    10  C    0.025022
    11  C    0.040429
    12  C   -0.020395
    13  C    0.019638
    14  C    0.248927
    15  O   -0.249316
    16  O   -0.398626
    17  N   -0.434084
    18  C    0.188310
    19  C   -0.173291
    20  C   -0.063832
    21  C    0.154819
    22  C    0.073524
    23  C    0.034466
    24  O   -0.256030
    25  C   -0.010087
    26  N   -0.402675
    27  C    0.035742
    28  C   -0.072172
    29  C   -0.109377
    30  C    0.088745
    31  C    0.044968
    32  C    0.011462
    33  C   -0.059405
    34  N   -0.385529
    35  C    0.114870
    36  C   -0.218560
    37  C    0.040621
    38  C    0.093299
    39  C    0.077500
    40  C    0.113702
    41  O   -0.197046
    42  C   -0.080155
    43  C    0.227150
    44  O   -0.223586
    45  O   -0.364920
    46  C    0.140568
    47  C    0.250489
    48  C   -0.110911
    49  C   -0.190997
    50  C   -0.020581
    51  C    0.019163
    52  C   -0.020922
    53  C   -0.006311
    54  C   -0.200028
    55  C    0.011704
    56  C    0.034543
    57  C   -0.015590
    58  C    0.001929
    59  C   -0.184926
    60  C    0.036263
    61  C    0.000297
    62  C   -0.044318
    63  C   -0.020630
    64  C   -0.192234
    65  C   -0.018163
    66  C   -0.005418
    67  H   -0.007612
    68  H   -0.048554
    69  H    0.000985
    70  H    0.038028
    71  H    0.034092
    72  H    0.038960
    73  H    0.026468
    74  H    0.049163
    75  H    0.052601
    76  H    0.044239
    77  H    0.047410
    78  H    0.079286
    79  H    0.042162
    80  H    0.030422
    81  H    0.064553
    82  H    0.082962
    83  H    0.062353
    84  H    0.065224
    85  H    0.042104
    86  H    0.039234
    87  H    0.038238
    88  H    0.048356
    89  H    0.016475
    90  H    0.047126
    91  H    0.022490
    92  H    0.027379
    93  H    0.037396
    94  H    0.031485
    95  H    0.070510
    96  H    0.022624
    97  H    0.057016
    98  H    0.051190
    99  H    0.039081
   100  H    0.060892
   101  H    0.060352
   102  H    0.065571
   103  H    0.021671
   104  H    0.014706
   105  H    0.054377
   106  H    0.028733
   107  H    0.055364
   108  H    0.022902
   109  H    0.022778
   110  H    0.028821
   111  H    0.042995
   112  H    0.015596
   113  H    0.006240
   114  H    0.027303
   115  H    0.009939
   116  H    0.025724
   117  H    0.042593
   118  H    0.017560
   119  H    0.026398
   120  H    0.011527
   121  H    0.008349
   122  H   -0.007312
   123  H    0.008239
   124  H    0.022216
   125  H    0.026236
   126  H    0.030687
   127  H    0.030915
   128  H    0.018034
   129  H    0.005541
   130  H    0.039318
   131  H    0.019731
   132  H    0.011112
   133  H    0.014807
   134  H    0.031106
   135  H    0.032249
   136  H    0.031767
   137  H    0.036218
   138  H    0.031357
   139  H    0.014952
   140  H    0.022308
 Sum of Mulliken charges =  -0.00000

 Dipole moment (field-independent basis, Debye):
    X=             -0.2136    Y=              2.4529    Z=              1.5152  Tot=              2.8911
 Quadrupole moment (field-independent basis, Debye-Ang):
   XX=           -381.1891   YY=           -414.5842   ZZ=           -394.9806
   XY=            -49.1476   XZ=             -1.4356   YZ=            -38.7697

 Normal termination of Gaussian 16 at Thu May  5 05:16:34 2022.
