 Gaussian 16, Revision A.03,
 Gaussian 16:  ES64L-G16RevA.03 25-Dec-2016

 --------------------
 #p ZINDO=(nstates=5)
 --------------------

 -----------------------------
 step_651_chromophore_11 ZINDO
 -----------------------------
 Symbolic Z-matrix:
 Charge =  0 Multiplicity = 1

                         Standard orientation:
 ---------------------------------------------------------------------
 Center     Atomic      Atomic             Coordinates (Angstroms)
 Number     Number       Type             X           Y           Z
 ---------------------------------------------------------------------
      1         12           0       -5.064755    1.122106    0.675276
      2          6           0       -4.899027   -2.459810    0.538615
      3          6           0       -2.476717    0.919278    2.905275
      4          6           0       -4.254231    4.411774    0.120814
      5          6           0       -7.066294    1.009428   -2.140843
      6          7           0       -3.905818   -0.637622    1.590861
      7          6           0       -3.964910   -1.959746    1.468799
      8          6           0       -3.088925   -2.779241    2.353821
      9          6           0       -2.635739   -1.571709    3.312587
     10          6           0       -3.012315   -0.333540    2.579068
     11          6           0       -3.219272   -1.584956    4.710128
     12          6           0       -1.985272   -3.598347    1.577988
     13          6           0       -1.304273   -2.825658    0.433629
     14          6           0       -0.241708   -3.581689   -0.221857
     15          8           0       -0.379339   -4.326200   -1.184849
     16          8           0        0.954037   -3.554367    0.549719
     17          7           0       -3.684397    2.544376    1.537114
     18          6           0       -2.749843    2.192763    2.432046
     19          6           0       -2.096795    3.440398    2.855271
     20          6           0       -2.712854    4.522908    2.154968
     21          6           0       -3.626713    3.888083    1.236453
     22          6           0       -1.006743    3.505010    3.936820
     23          6           0       -2.433849    6.042317    2.310134
     24          8           0       -1.500281    6.416271    3.055949
     25          6           0       -3.228658    7.121603    1.500620
     26          7           0       -5.563308    2.503825   -0.780219
     27          6           0       -5.154094    3.820719   -0.742092
     28          6           0       -5.741143    4.675072   -1.980832
     29          6           0       -6.559343    3.521010   -2.691858
     30          6           0       -6.350906    2.266097   -1.870363
     31          6           0       -6.531537    5.970992   -1.741690
     32          6           0       -6.141208    3.351616   -4.210332
     33          6           0       -7.324202    3.524053   -5.120697
     34          7           0       -5.893232   -0.357749   -0.582038
     35          6           0       -6.765648   -0.266374   -1.552339
     36          6           0       -7.350867   -1.587029   -1.856144
     37          6           0       -6.659898   -2.464267   -1.083247
     38          6           0       -5.789879   -1.712731   -0.308251
     39          6           0       -8.402365   -1.897845   -2.852909
     40          6           0       -6.581899   -3.832176   -0.607788
     41          8           0       -7.279240   -4.796976   -0.893799
     42          6           0       -5.312190   -3.865825    0.306058
     43          6           0       -4.398006   -4.626160   -0.536681
     44          8           0       -3.952527   -4.302997   -1.613385
     45          8           0       -4.088504   -5.847250    0.039367
     46          6           0       -3.239882   -6.636986   -0.804837
     47          6           0        2.092012   -4.260159   -0.032116
     48          6           0        3.197459   -3.210034   -0.209680
     49          6           0        4.235077   -2.955748    0.613057
     50          6           0        4.254693   -3.602529    2.057999
     51          6           0        5.388019   -2.054593    0.325684
     52          6           0        5.131972   -0.545524    0.232459
     53          6           0        5.610843    0.133031   -1.116953
     54          6           0        6.700538    1.301095   -0.945535
     55          6           0        6.271248    2.571335   -1.788245
     56          6           0        8.049943    0.686543   -1.390464
     57          6           0        8.602367   -0.076973   -0.161098
     58          6           0        9.357730    0.779601    0.842411
     59          6           0       10.827137    0.415262    1.069046
     60          6           0       11.314207    0.929583    2.412997
     61          6           0       11.659951    1.025485   -0.023085
     62          6           0       12.486905   -0.099733   -0.669059
     63          6           0       13.310857    0.462801   -1.957682
     64          6           0       14.942059    0.463001   -1.713826
     65          6           0       15.371102    1.962757   -1.379042
     66          6           0       15.599519   -0.085403   -2.941452
     67          1           0       -1.763027    0.814022    3.725690
     68          1           0       -4.068058    5.468354   -0.082179
     69          1           0       -7.813285    1.072541   -2.935782
     70          1           0       -3.677279   -3.474216    2.952071
     71          1           0       -1.552666   -1.571404    3.436554
     72          1           0       -2.411024   -1.551355    5.441075
     73          1           0       -3.703635   -2.549485    4.862275
     74          1           0       -3.934119   -0.796487    4.944481
     75          1           0       -2.510881   -4.516111    1.310384
     76          1           0       -1.141078   -3.848205    2.221248
     77          1           0       -1.015050   -1.891684    0.915139
     78          1           0       -2.066696   -2.543714   -0.293230
     79          1           0       -0.070067    3.175796    3.485660
     80          1           0       -1.171079    2.808699    4.758162
     81          1           0       -0.861695    4.506354    4.341599
     82          1           0       -3.022047    6.996404    0.437151
     83          1           0       -2.748295    8.034722    1.850127
     84          1           0       -4.252149    6.877771    1.784130
     85          1           0       -4.834745    4.795915   -2.574294
     86          1           0       -7.622135    3.742933   -2.592959
     87          1           0       -7.428830    5.863893   -1.131882
     88          1           0       -6.656052    6.575546   -2.639800
     89          1           0       -5.962135    6.616645   -1.073728
     90          1           0       -5.574665    2.445238   -4.428418
     91          1           0       -5.464521    4.162286   -4.480148
     92          1           0       -7.564082    4.563061   -5.350624
     93          1           0       -8.223607    3.064364   -4.710672
     94          1           0       -7.066700    3.185336   -6.123826
     95          1           0       -8.101167   -2.310881   -3.816235
     96          1           0       -8.913986   -0.947522   -3.006784
     97          1           0       -9.076114   -2.595206   -2.355154
     98          1           0       -5.456504   -4.445783    1.217729
     99          1           0       -3.210882   -7.585143   -0.267350
    100          1           0       -2.231012   -6.229323   -0.867414
    101          1           0       -3.749249   -6.748120   -1.762181
    102          1           0        1.921563   -4.873442   -0.916425
    103          1           0        2.399060   -4.928038    0.773578
    104          1           0        3.360448   -2.906779   -1.244067
    105          1           0        3.281260   -3.321801    2.459610
    106          1           0        5.026500   -3.141956    2.675177
    107          1           0        4.333659   -4.681429    2.189456
    108          1           0        5.854107   -2.358967   -0.612000
    109          1           0        6.213953   -2.334845    0.978365
    110          1           0        5.666631   -0.216187    1.123038
    111          1           0        4.093331   -0.230096    0.321382
    112          1           0        4.730497    0.473513   -1.662109
    113          1           0        5.883515   -0.665606   -1.805376
    114          1           0        6.676577    1.555698    0.114041
    115          1           0        7.168718    3.119635   -2.075689
    116          1           0        5.821029    3.270105   -1.082988
    117          1           0        5.676907    2.453878   -2.694409
    118          1           0        8.760106    1.499601   -1.533988
    119          1           0        7.858095    0.034823   -2.241974
    120          1           0        9.302537   -0.773015   -0.621605
    121          1           0        7.827009   -0.663540    0.332642
    122          1           0        8.835500    0.692779    1.795566
    123          1           0        9.164336    1.840697    0.682664
    124          1           0       10.851967   -0.674145    1.097562
    125          1           0       11.374775   -0.010551    2.961760
    126          1           0       10.530864    1.598679    2.771317
    127          1           0       12.302917    1.386930    2.368142
    128          1           0       12.200047    1.937056    0.231072
    129          1           0       11.096248    1.405473   -0.875658
    130          1           0       11.896050   -0.963094   -0.972736
    131          1           0       13.244951   -0.303733    0.087322
    132          1           0       12.961870    1.470288   -2.184142
    133          1           0       13.062256   -0.085045   -2.866632
    134          1           0       15.186797   -0.150018   -0.846505
    135          1           0       14.526949    2.339521   -0.801610
    136          1           0       15.507270    2.603936   -2.249740
    137          1           0       16.332435    1.897276   -0.868886
    138          1           0       15.449050   -1.121930   -3.243948
    139          1           0       16.681027   -0.011513   -2.825018
    140          1           0       15.350275    0.494703   -3.829855
 ---------------------------------------------------------------------

 SCF Done:  E(RZINDO/S) =  -474.338680837     A.U. after   20 cycles

 Excitation energies and oscillator strengths:

 Excited State   1:      Singlet-A      1.2567 eV  986.60 nm  f=0.5764  <S**2>=0.000
     175 ->178        -0.20089
     176 ->177         0.65996
 This state for optimization and/or second-order correction.
 Total Energy, E(CIS/TDA) =  -474.292498451
 Copying the excited state density for this state as the 1-particle RhoCI density.

 Excited State   2:      Singlet-A      1.8871 eV  657.00 nm  f=0.0052  <S**2>=0.000
     175 ->177         0.50227
     176 ->178         0.47667

 Excited State   3:      Singlet-A      2.6849 eV  461.78 nm  f=0.0194  <S**2>=0.000
     176 ->178        -0.10276
     176 ->179         0.13099
     176 ->180         0.67934

 Excited State   4:      Singlet-A      2.9325 eV  422.79 nm  f=0.3714  <S**2>=0.000
     168 ->177        -0.17913
     168 ->179        -0.24027
     168 ->181         0.11134
     175 ->177        -0.25620
     176 ->178         0.29207
     176 ->179         0.40133

 Excited State   5:      Singlet-A      2.9990 eV  413.42 nm  f=0.2402  <S**2>=0.000
     168 ->177         0.13464
     168 ->179         0.16890
     168 ->181        -0.10235
     175 ->177         0.18144
     176 ->178        -0.18293
     176 ->179         0.51203
     176 ->180        -0.15677
     176 ->181         0.13294

 The electronic state is 1-A.
 Alpha  occ. eigenvalues --   -1.87187  -1.81982  -1.80026  -1.76097  -1.72258
 Alpha  occ. eigenvalues --   -1.70574  -1.67642  -1.60807  -1.59504  -1.55882
 Alpha  occ. eigenvalues --   -1.53244  -1.51088  -1.49345  -1.48137  -1.46608
 Alpha  occ. eigenvalues --   -1.44151  -1.43779  -1.40359  -1.39600  -1.36086
 Alpha  occ. eigenvalues --   -1.35701  -1.35036  -1.32517  -1.31179  -1.29201
 Alpha  occ. eigenvalues --   -1.27860  -1.27188  -1.23083  -1.20356  -1.18386
 Alpha  occ. eigenvalues --   -1.17129  -1.15138  -1.14979  -1.13298  -1.13255
 Alpha  occ. eigenvalues --   -1.11162  -1.10058  -1.09693  -1.04716  -1.03688
 Alpha  occ. eigenvalues --   -1.02265  -1.00755  -1.00136  -0.97382  -0.97102
 Alpha  occ. eigenvalues --   -0.96930  -0.94379  -0.93453  -0.93308  -0.91885
 Alpha  occ. eigenvalues --   -0.90929  -0.90793  -0.88626  -0.88586  -0.88235
 Alpha  occ. eigenvalues --   -0.86261  -0.85429  -0.83194  -0.81012  -0.80064
 Alpha  occ. eigenvalues --   -0.79539  -0.78886  -0.78679  -0.76664  -0.76615
 Alpha  occ. eigenvalues --   -0.76212  -0.75190  -0.74989  -0.74073  -0.73353
 Alpha  occ. eigenvalues --   -0.73132  -0.72517  -0.71602  -0.71266  -0.70860
 Alpha  occ. eigenvalues --   -0.70306  -0.68685  -0.68515  -0.68314  -0.68035
 Alpha  occ. eigenvalues --   -0.67255  -0.66728  -0.66070  -0.65678  -0.65458
 Alpha  occ. eigenvalues --   -0.64961  -0.64660  -0.64373  -0.63976  -0.63761
 Alpha  occ. eigenvalues --   -0.63051  -0.62809  -0.62395  -0.62172  -0.61910
 Alpha  occ. eigenvalues --   -0.61242  -0.60978  -0.60893  -0.60422  -0.60033
 Alpha  occ. eigenvalues --   -0.59521  -0.59016  -0.58714  -0.58118  -0.57851
 Alpha  occ. eigenvalues --   -0.57769  -0.57728  -0.57312  -0.56659  -0.56392
 Alpha  occ. eigenvalues --   -0.55983  -0.55784  -0.55496  -0.55312  -0.55028
 Alpha  occ. eigenvalues --   -0.54409  -0.53895  -0.53719  -0.53037  -0.52939
 Alpha  occ. eigenvalues --   -0.52663  -0.52127  -0.52042  -0.51763  -0.51601
 Alpha  occ. eigenvalues --   -0.51391  -0.50976  -0.50858  -0.50275  -0.49909
 Alpha  occ. eigenvalues --   -0.49851  -0.49783  -0.49408  -0.49335  -0.49078
 Alpha  occ. eigenvalues --   -0.48774  -0.48766  -0.47954  -0.47871  -0.47628
 Alpha  occ. eigenvalues --   -0.47580  -0.47156  -0.47076  -0.46927  -0.46730
 Alpha  occ. eigenvalues --   -0.46099  -0.45959  -0.45899  -0.45633  -0.44904
 Alpha  occ. eigenvalues --   -0.44862  -0.44795  -0.44385  -0.44205  -0.43585
 Alpha  occ. eigenvalues --   -0.43360  -0.43095  -0.42569  -0.42214  -0.41863
 Alpha  occ. eigenvalues --   -0.41514  -0.40920  -0.40502  -0.39126  -0.38735
 Alpha  occ. eigenvalues --   -0.38205  -0.37465  -0.35720  -0.35461  -0.35312
 Alpha  occ. eigenvalues --   -0.33361  -0.32665  -0.32354  -0.32103  -0.26766
 Alpha  occ. eigenvalues --   -0.21536
 Alpha virt. eigenvalues --   -0.08196  -0.02579  -0.00789  -0.00008   0.01043
 Alpha virt. eigenvalues --    0.01637   0.02598   0.03408   0.04525   0.04905
 Alpha virt. eigenvalues --    0.06138   0.07142   0.07423   0.07957   0.08218

 Mulliken charges:
               1
     1  Mg   0.437109
     2  C   -0.054645
     3  C   -0.068903
     4  C   -0.072656
     5  C   -0.102580
     6  N   -0.281586
     7  C    0.140538
     8  C   -0.002317
     9  C    0.007660
    10  C    0.113408
    11  C   -0.044078
    12  C   -0.014476
    13  C    0.016599
    14  C    0.472830
    15  O   -0.502078
    16  O   -0.284151
    17  N   -0.323412
    18  C    0.105867
    19  C    0.024493
    20  C   -0.054090
    21  C    0.116878
    22  C   -0.041894
    23  C    0.311177
    24  O   -0.530165
    25  C   -0.034716
    26  N   -0.266453
    27  C    0.103640
    28  C   -0.009580
    29  C    0.003088
    30  C    0.139282
    31  C   -0.046721
    32  C   -0.025100
    33  C   -0.055169
    34  N   -0.315937
    35  C    0.132364
    36  C    0.040890
    37  C   -0.026869
    38  C    0.093838
    39  C   -0.038339
    40  C    0.346331
    41  O   -0.514520
    42  C    0.062935
    43  C    0.494754
    44  O   -0.517752
    45  O   -0.282105
    46  C    0.076764
    47  C    0.105044
    48  C   -0.095018
    49  C    0.011518
    50  C   -0.056290
    51  C   -0.013717
    52  C   -0.029874
    53  C   -0.048595
    54  C   -0.013090
    55  C   -0.065983
    56  C   -0.034532
    57  C   -0.039185
    58  C   -0.031764
    59  C   -0.003227
    60  C   -0.064361
    61  C   -0.030849
    62  C   -0.044268
    63  C   -0.060941
    64  C   -0.012279
    65  C   -0.061422
    66  C   -0.049608
    67  H    0.022563
    68  H    0.024665
    69  H    0.028753
    70  H    0.032167
    71  H    0.022341
    72  H    0.018335
    73  H    0.014899
    74  H    0.030080
    75  H    0.038868
    76  H    0.024406
    77  H    0.036374
    78  H    0.043419
    79  H    0.027979
    80  H    0.020693
    81  H    0.043508
    82  H    0.044172
    83  H    0.048121
    84  H    0.046830
    85  H    0.034872
    86  H    0.033289
    87  H    0.029426
    88  H    0.028973
    89  H    0.007942
    90  H    0.031859
    91  H    0.015172
    92  H    0.014579
    93  H    0.022681
    94  H    0.014672
    95  H    0.046330
    96  H    0.016802
    97  H    0.034987
    98  H    0.046971
    99  H    0.018383
   100  H    0.054149
   101  H    0.052834
   102  H    0.063187
   103  H    0.026793
   104  H    0.023921
   105  H    0.022939
   106  H    0.015949
   107  H    0.034731
   108  H    0.016948
   109  H    0.018028
   110  H    0.020216
   111  H    0.025619
   112  H    0.012676
   113  H    0.020571
   114  H    0.030872
   115  H    0.008326
   116  H    0.014801
   117  H    0.032431
   118  H    0.022286
   119  H    0.031269
   120  H    0.005584
   121  H    0.024559
   122  H   -0.001580
   123  H    0.019449
   124  H    0.024654
   125  H    0.016177
   126  H    0.027612
   127  H    0.023631
   128  H    0.027272
   129  H    0.005349
   130  H    0.034032
   131  H    0.019909
   132  H    0.019347
   133  H    0.016628
   134  H    0.026777
   135  H    0.024407
   136  H    0.023313
   137  H    0.019816
   138  H    0.018160
   139  H    0.004337
   140  H    0.015192
 Sum of Mulliken charges =  -0.00000

 Dipole moment (field-independent basis, Debye):
    X=             -1.4559    Y=              2.5740    Z=              2.4618  Tot=              3.8478
 N-N= 4.396708349096D+03 E-N= 0.000000000000D+00  KE=-9.467847431807D+03
 Leave Link  601 at Thu May  5 05:29:45 2022, MaxMem=  6710886400 cpu:               0.8 elap:               0.0
 (Enter /sw/apps/gaussian-16.0/g16/l9999.exe)
 1\1\GINC-BP1-COMPUTE100\SP\RZINDO CIS\STO-3G\C55H74Mg1N4O6\OF15641\05-
 May-2022\0\\#p ZINDO=(nstates=5)\\step_651_chromophore_11 ZINDO\\0,1\M
 g,0,52.249,23.793,45.265\C,0,49.423,25.695,44.137\C,0,50.625,21.067,43
 .983\C,0,55.185,22.016,45.173\C,0,53.926,26.784,45.702\N,0,50.221,23.5
 11,44.223\C,0,49.227,24.323,43.878\C,0,47.994,23.709,43.308\C,0,48.382
 ,22.189,43.657\C,0,49.835,22.224,43.974\C,0,47.588,21.546,44.775\C,0,4
 7.72,24.105,41.805\C,0,48.974,24.125,40.912\C,0,48.683,24.427,39.514\O

 Normal termination of Gaussian 16 at Thu May  5 05:29:45 2022.
