 Gaussian 16, Revision A.03,
 Gaussian 16:  ES64L-G16RevA.03 25-Dec-2016

 ------------------------------
 #p blyp/Def2SVP td=(nstates=5)
 ------------------------------

 --------------------------------------------------
 step_501_chromophore_16 TDDFT with blyp functional
 --------------------------------------------------
 Symbolic Z-matrix:
 Charge =  0 Multiplicity = 1

                         Standard orientation:
 ---------------------------------------------------------------------
 Center     Atomic      Atomic             Coordinates (Angstroms)
 Number     Number       Type             X           Y           Z
 ---------------------------------------------------------------------
      1         12           0        5.852241    0.704775    0.372601
      2          6           0        4.018212   -2.307338    0.164280
      3          6           0        3.411725    2.326033   -1.140623
      4          6           0        8.058320    3.258628   -0.160197
      5          6           0        8.799128   -1.422863    1.053929
      6          7           0        3.953472    0.017706   -0.441647
      7          6           0        3.325908   -1.152323   -0.203987
      8          6           0        1.835900   -1.009881   -0.571626
      9          6           0        1.647426    0.424618   -0.948497
     10          6           0        3.098755    0.990002   -0.888130
     11          6           0        0.816889    0.608133   -2.284091
     12          6           0        0.763610   -1.535689    0.440343
     13          6           0       -0.636951   -0.815454    0.649382
     14          6           0       -1.902536   -1.682401    0.720902
     15          8           0       -2.277520   -2.460609    1.636505
     16          8           0       -2.634342   -1.576541   -0.465507
     17          7           0        5.652226    2.626445   -0.311671
     18          6           0        4.515935    3.116988   -0.914393
     19          6           0        4.744407    4.502429   -1.211793
     20          6           0        6.134548    4.838345   -0.976951
     21          6           0        6.685503    3.545362   -0.514608
     22          6           0        3.645701    5.270222   -1.827492
     23          6           0        6.882060    6.190123   -1.088130
     24          8           0        8.050781    6.244539   -0.889060
     25          6           0        6.117756    7.469302   -1.196284
     26          7           0        8.132053    0.841681    0.392979
     27          6           0        8.683676    2.068499    0.257170
     28          6           0       10.230945    2.043317    0.471189
     29          6           0       10.484868    0.565513    0.899120
     30          6           0        9.083786   -0.082457    0.772988
     31          6           0       11.060273    2.442205   -0.720423
     32          6           0       11.097361    0.300974    2.318931
     33          6           0       10.219028    0.396722    3.520365
     34          7           0        6.425043   -1.394183    0.603520
     35          6           0        7.589233   -2.035302    0.916743
     36          6           0        7.321489   -3.437959    1.121503
     37          6           0        5.942870   -3.632168    0.843309
     38          6           0        5.455943   -2.358134    0.486996
     39          6           0        8.304222   -4.526435    1.373748
     40          6           0        4.877777   -4.587854    0.735394
     41          8           0        4.802827   -5.792640    0.947861
     42          6           0        3.568413   -3.768987    0.338678
     43          6           0        2.820954   -4.377349   -0.835935
     44          8           0        3.266471   -4.445893   -1.952339
     45          8           0        1.563464   -4.781040   -0.416149
     46          6           0        0.777029   -5.415406   -1.474665
     47          6           0       -3.548218   -2.608054   -0.839733
     48          6           0       -4.942497   -2.112782   -0.750282
     49          6           0       -6.071425   -2.817105   -0.638570
     50          6           0       -6.171309   -4.264721   -0.389102
     51          6           0       -7.450357   -2.111149   -0.562610
     52          6           0       -7.732713   -0.905282   -1.512640
     53          6           0       -8.929956   -1.093248   -2.486484
     54          6           0      -10.022527   -0.148956   -2.166283
     55          6           0       -9.719650    1.331983   -2.600979
     56          6           0      -10.525700   -0.410544   -0.738571
     57          6           0      -11.976035   -0.920856   -0.799156
     58          6           0      -12.952274    0.139809   -1.259519
     59          6           0      -13.952158    0.677004   -0.104851
     60          6           0      -15.376834   -0.102073   -0.082908
     61          6           0      -14.060083    2.284641   -0.117444
     62          6           0      -12.866091    2.841631    0.740344
     63          6           0      -13.288609    3.563588    2.054000
     64          6           0      -12.716122    2.909144    3.424489
     65          6           0      -12.352588    4.037499    4.460906
     66          6           0      -13.695005    1.862963    4.033789
     67          1           0        2.593018    2.981179   -1.446780
     68          1           0        8.689478    4.137187   -0.307478
     69          1           0        9.646806   -2.039639    1.359370
     70          1           0        1.818215   -1.702211   -1.413343
     71          1           0        1.009975    0.879886   -0.190048
     72          1           0        0.421643   -0.357361   -2.599425
     73          1           0        1.447107    1.147052   -2.991491
     74          1           0       -0.099266    1.171381   -2.105610
     75          1           0        1.241616   -1.544728    1.420207
     76          1           0        0.513666   -2.581531    0.259980
     77          1           0       -0.708829   -0.121596   -0.188410
     78          1           0       -0.592911   -0.213619    1.557182
     79          1           0        4.124799    5.950736   -2.531026
     80          1           0        3.196913    5.871923   -1.038033
     81          1           0        2.819885    4.782834   -2.346005
     82          1           0        6.047179    7.604012   -2.274832
     83          1           0        6.628694    8.238790   -0.616746
     84          1           0        5.079744    7.417373   -0.867011
     85          1           0       10.529483    2.623992    1.344227
     86          1           0       11.059226   -0.092816    0.248094
     87          1           0       10.444425    2.882387   -1.505763
     88          1           0       11.553567    1.587736   -1.184476
     89          1           0       11.778047    3.170881   -0.344502
     90          1           0       11.930649    0.982457    2.490481
     91          1           0       11.629560   -0.649521    2.274924
     92          1           0        9.357645    1.026471    3.296960
     93          1           0       10.577583    0.846750    4.446384
     94          1           0        9.983930   -0.636696    3.777047
     95          1           0        9.060343   -4.649656    0.598914
     96          1           0        7.755517   -5.452629    1.201083
     97          1           0        8.746122   -4.451550    2.367721
     98          1           0        2.939962   -3.771484    1.229492
     99          1           0        0.092336   -4.567866   -1.478323
    100          1           0        0.376461   -6.304484   -0.988220
    101          1           0        1.346016   -5.588459   -2.388378
    102          1           0       -3.340909   -3.509366   -0.262238
    103          1           0       -3.418097   -2.758401   -1.911365
    104          1           0       -5.104329   -1.049871   -0.928331
    105          1           0       -5.187105   -4.724674   -0.303862
    106          1           0       -6.733178   -4.756397   -1.183898
    107          1           0       -6.661947   -4.544870    0.542578
    108          1           0       -7.709989   -1.752785    0.432770
    109          1           0       -8.249664   -2.822830   -0.768018
    110          1           0       -6.943122   -0.673171   -2.226840
    111          1           0       -7.890925    0.037202   -0.988999
    112          1           0       -9.305299   -2.116187   -2.488152
    113          1           0       -8.639613   -0.744136   -3.477730
    114          1           0      -10.739825   -0.498645   -2.909346
    115          1           0      -10.553645    1.838857   -3.085911
    116          1           0       -8.889717    1.438593   -3.299296
    117          1           0       -9.461937    1.846584   -1.674834
    118          1           0      -10.462125    0.518269   -0.171975
    119          1           0       -9.981224   -1.080754   -0.072875
    120          1           0      -12.273914   -1.291736    0.181584
    121          1           0      -12.192168   -1.771175   -1.446753
    122          1           0      -13.473009   -0.252723   -2.132944
    123          1           0      -12.418846    0.996623   -1.671712
    124          1           0      -13.503017    0.426384    0.856184
    125          1           0      -15.288331   -0.933792   -0.781951
    126          1           0      -16.183406    0.575576   -0.359682
    127          1           0      -15.471696   -0.576643    0.893667
    128          1           0      -14.977661    2.533713    0.416029
    129          1           0      -14.137151    2.644305   -1.144005
    130          1           0      -12.404579    3.555410    0.057599
    131          1           0      -12.156737    2.076568    1.055610
    132          1           0      -14.370403    3.571856    2.183922
    133          1           0      -13.003087    4.599788    1.872176
    134          1           0      -11.820702    2.308212    3.264716
    135          1           0      -12.734361    3.787519    5.450544
    136          1           0      -12.714986    5.040330    4.232998
    137          1           0      -11.267026    4.057769    4.563168
    138          1           0      -14.423238    1.506233    3.306115
    139          1           0      -14.187251    2.174679    4.955339
    140          1           0      -13.084362    0.967707    4.146304
 ---------------------------------------------------------------------

 SCF Done:  E(RB-LYP) =  -3007.34954338     A.U. after   21 cycles

 Excitation energies and oscillator strengths:

 Excited State   1:      Singlet-A      1.8163 eV  682.61 nm  f=0.2926  <S**2>=0.000
     245 -> 248        0.19664
     246 -> 247        0.68763
     246 <- 247       -0.14979
 This state for optimization and/or second-order correction.
 Total Energy, E(TD-HF/TD-DFT) =  -3007.28279445
 Copying the excited state density for this state as the 1-particle RhoCI density.

 Excited State   2:      Singlet-A      1.9357 eV  640.52 nm  f=0.0415  <S**2>=0.000
     244 -> 247        0.49155
     245 -> 247        0.47683
     246 -> 248       -0.15323

 Excited State   3:      Singlet-A      2.0052 eV  618.31 nm  f=0.0398  <S**2>=0.000
     244 -> 247        0.50481
     245 -> 247       -0.44816
     246 -> 248        0.18050

 Excited State   4:      Singlet-A      2.2069 eV  561.79 nm  f=0.0001  <S**2>=0.000
     243 -> 247        0.70660

 Excited State   5:      Singlet-A      2.3201 eV  534.40 nm  f=0.0001  <S**2>=0.000
     242 -> 247        0.70700

 The electronic state is 1-A.
 Alpha  occ. eigenvalues --  -46.28511 -18.82014 -18.81906 -18.77344 -18.77065
 Alpha  occ. eigenvalues --  -18.76328 -18.75606 -14.03580 -14.03004 -14.01145
 Alpha  occ. eigenvalues --  -14.00620 -10.05221 -10.03800 -10.00560  -9.99588
 Alpha  occ. eigenvalues --   -9.98030  -9.97463  -9.97211  -9.96912  -9.96455
 Alpha  occ. eigenvalues --   -9.96356  -9.96168  -9.95210  -9.94833  -9.94790
 Alpha  occ. eigenvalues --   -9.94689  -9.94331  -9.94171  -9.94112  -9.94106
 Alpha  occ. eigenvalues --   -9.93910  -9.93610  -9.93577  -9.93495  -9.93463
 Alpha  occ. eigenvalues --   -9.93298  -9.93191  -9.92935  -9.92795  -9.92651
 Alpha  occ. eigenvalues --   -9.92547  -9.92535  -9.92480  -9.92317  -9.92313
 Alpha  occ. eigenvalues --   -9.92248  -9.91990  -9.91820  -9.91772  -9.91594
 Alpha  occ. eigenvalues --   -9.91516  -9.91372  -9.91308  -9.91258  -9.91250
 Alpha  occ. eigenvalues --   -9.91244  -9.91175  -9.91119  -9.91013  -9.91007
 Alpha  occ. eigenvalues --   -9.90910  -9.90846  -9.90834  -9.90812  -9.90663
 Alpha  occ. eigenvalues --   -9.90547  -2.92930  -1.73322  -1.72837  -1.72638
 Alpha  occ. eigenvalues --   -0.97892  -0.97227  -0.94353  -0.91009  -0.90684
 Alpha  occ. eigenvalues --   -0.88898  -0.86702  -0.85674  -0.85039  -0.84459
 Alpha  occ. eigenvalues --   -0.74705  -0.74030  -0.73455  -0.72720  -0.72319
 Alpha  occ. eigenvalues --   -0.71703  -0.71203  -0.70948  -0.70614  -0.69847
 Alpha  occ. eigenvalues --   -0.69735  -0.69187  -0.67912  -0.67602  -0.67215
 Alpha  occ. eigenvalues --   -0.66373  -0.66268  -0.65486  -0.64945  -0.64721
 Alpha  occ. eigenvalues --   -0.63826  -0.62802  -0.62633  -0.61732  -0.60661
 Alpha  occ. eigenvalues --   -0.60326  -0.59962  -0.59539  -0.59406  -0.58879
 Alpha  occ. eigenvalues --   -0.58617  -0.57481  -0.56940  -0.56137  -0.54921
 Alpha  occ. eigenvalues --   -0.54354  -0.53922  -0.52668  -0.52580  -0.51717
 Alpha  occ. eigenvalues --   -0.51136  -0.50814  -0.50515  -0.50252  -0.49555
 Alpha  occ. eigenvalues --   -0.49415  -0.48865  -0.48089  -0.47026  -0.46631
 Alpha  occ. eigenvalues --   -0.46400  -0.46308  -0.45553  -0.45191  -0.44634
 Alpha  occ. eigenvalues --   -0.44327  -0.43919  -0.42917  -0.42751  -0.42442
 Alpha  occ. eigenvalues --   -0.42214  -0.41900  -0.41683  -0.41489  -0.41251
 Alpha  occ. eigenvalues --   -0.40983  -0.40891  -0.40766  -0.40455  -0.40100
 Alpha  occ. eigenvalues --   -0.40084  -0.39754  -0.39715  -0.39307  -0.39139
 Alpha  occ. eigenvalues --   -0.38943  -0.38821  -0.38654  -0.38566  -0.38449
 Alpha  occ. eigenvalues --   -0.38101  -0.38004  -0.37497  -0.37402  -0.37325
 Alpha  occ. eigenvalues --   -0.37169  -0.37116  -0.36947  -0.36821  -0.36613
 Alpha  occ. eigenvalues --   -0.36403  -0.36176  -0.36019  -0.35821  -0.35548
 Alpha  occ. eigenvalues --   -0.35358  -0.35212  -0.35020  -0.34957  -0.34790
 Alpha  occ. eigenvalues --   -0.34660  -0.34335  -0.34072  -0.33998  -0.33895
 Alpha  occ. eigenvalues --   -0.33813  -0.33637  -0.33611  -0.33313  -0.33096
 Alpha  occ. eigenvalues --   -0.32956  -0.32889  -0.32518  -0.32457  -0.32347
 Alpha  occ. eigenvalues --   -0.32156  -0.32025  -0.31979  -0.31824  -0.31443
 Alpha  occ. eigenvalues --   -0.31282  -0.31098  -0.30955  -0.30874  -0.30697
 Alpha  occ. eigenvalues --   -0.30576  -0.30361  -0.30153  -0.29986  -0.29600
 Alpha  occ. eigenvalues --   -0.29392  -0.29325  -0.29134  -0.29096  -0.28884
 Alpha  occ. eigenvalues --   -0.28554  -0.28341  -0.28180  -0.27878  -0.27546
 Alpha  occ. eigenvalues --   -0.27335  -0.27189  -0.27043  -0.26637  -0.26468
 Alpha  occ. eigenvalues --   -0.26231  -0.26195  -0.25735  -0.25291  -0.24960
 Alpha  occ. eigenvalues --   -0.24628  -0.24560  -0.23953  -0.23716  -0.23189
 Alpha  occ. eigenvalues --   -0.22893  -0.22665  -0.22073  -0.21663  -0.20523
 Alpha  occ. eigenvalues --   -0.20259  -0.20152  -0.19655  -0.18759  -0.17230
 Alpha  occ. eigenvalues --   -0.15913
 Alpha virt. eigenvalues --   -0.11626  -0.06896  -0.06211  -0.04706  -0.04571
 Alpha virt. eigenvalues --   -0.04040  -0.02336  -0.01647  -0.01492   0.00177
 Alpha virt. eigenvalues --    0.01244   0.01752   0.02063   0.02427   0.02566

 Mulliken charges:
               1
     1  Mg   0.692051
     2  C    0.017439
     3  C   -0.025925
     4  C   -0.035126
     5  C   -0.092066
     6  N   -0.223023
     7  C   -0.104818
     8  C    0.056808
     9  C   -0.028673
    10  C    0.046469
    11  C    0.126926
    12  C    0.085248
    13  C    0.121195
    14  C    0.097913
    15  O   -0.209589
    16  O   -0.275244
    17  N   -0.342021
    18  C    0.110903
    19  C   -0.113346
    20  C    0.021314
    21  C    0.065038
    22  C    0.147194
    23  C   -0.075077
    24  O   -0.125210
    25  C    0.127145
    26  N   -0.175629
    27  C    0.030062
    28  C    0.042436
    29  C    0.048405
    30  C   -0.039494
    31  C    0.146644
    32  C    0.054716
    33  C    0.087270
    34  N   -0.223300
    35  C    0.158460
    36  C   -0.195537
    37  C    0.110761
    38  C    0.033308
    39  C    0.167812
    40  C   -0.047106
    41  O   -0.132305
    42  C    0.072089
    43  C    0.105451
    44  O   -0.159181
    45  O   -0.284862
    46  C    0.197430
    47  C    0.340076
    48  C   -0.102516
    49  C   -0.124603
    50  C    0.145928
    51  C    0.140442
    52  C    0.049160
    53  C    0.086614
    54  C   -0.080223
    55  C    0.105681
    56  C    0.130983
    57  C    0.069403
    58  C    0.097154
    59  C   -0.107554
    60  C    0.104142
    61  C    0.093623
    62  C    0.051810
    63  C    0.089250
    64  C   -0.105345
    65  C    0.096655
    66  C    0.098046
    67  H   -0.074670
    68  H   -0.040471
    69  H   -0.068317
    70  H   -0.010096
    71  H   -0.009329
    72  H   -0.003031
    73  H    0.002662
    74  H   -0.009679
    75  H   -0.019083
    76  H   -0.002960
    77  H   -0.019365
    78  H    0.003300
    79  H   -0.010996
    80  H    0.005032
    81  H    0.007287
    82  H    0.015851
    83  H    0.016433
    84  H   -0.014726
    85  H   -0.021896
    86  H   -0.027758
    87  H   -0.002950
    88  H   -0.012845
    89  H   -0.004958
    90  H   -0.030851
    91  H   -0.030727
    92  H   -0.004086
    93  H   -0.016960
    94  H   -0.005921
    95  H   -0.004042
    96  H   -0.001145
    97  H    0.005637
    98  H    0.000685
    99  H    0.011312
   100  H    0.030264
   101  H    0.043159
   102  H    0.007577
   103  H   -0.005404
   104  H   -0.036296
   105  H   -0.032136
   106  H   -0.004991
   107  H   -0.000939
   108  H   -0.004930
   109  H   -0.041286
   110  H   -0.032986
   111  H   -0.036238
   112  H   -0.029879
   113  H   -0.047745
   114  H   -0.039113
   115  H   -0.001653
   116  H   -0.024403
   117  H   -0.012832
   118  H   -0.045449
   119  H   -0.036769
   120  H   -0.045857
   121  H   -0.038065
   122  H   -0.041192
   123  H   -0.041394
   124  H   -0.033355
   125  H   -0.025575
   126  H   -0.002890
   127  H   -0.013523
   128  H   -0.038152
   129  H   -0.020457
   130  H   -0.029934
   131  H   -0.002433
   132  H   -0.028692
   133  H   -0.030011
   134  H   -0.027130
   135  H   -0.026977
   136  H   -0.006880
   137  H   -0.015716
   138  H   -0.018208
   139  H   -0.002030
   140  H   -0.022500
 Sum of Mulliken charges =  -0.00000

 Dipole moment (field-independent basis, Debye):
    X=             -1.9183    Y=              4.3244    Z=             -0.4749  Tot=              4.7545
 Quadrupole moment (field-independent basis, Debye-Ang):
   XX=           -392.3819   YY=           -425.5086   ZZ=           -406.8349
   XY=             10.8393   XZ=             24.0197   YZ=              5.6730

 Normal termination of Gaussian 16 at Thu May  5 01:20:27 2022.
