 Gaussian 16, Revision A.03,
 Gaussian 16:  ES64L-G16RevA.03 25-Dec-2016

 -----------------------------------
 #p cam-b3lyp/Def2SVP td=(nstates=5)
 -----------------------------------

 -------------------------------------------------------
 step_501_chromophore_16 TDDFT with cam-b3lyp functional
 -------------------------------------------------------
 Symbolic Z-matrix:
 Charge =  0 Multiplicity = 1

                         Standard orientation:
 ---------------------------------------------------------------------
 Center     Atomic      Atomic             Coordinates (Angstroms)
 Number     Number       Type             X           Y           Z
 ---------------------------------------------------------------------
      1         12           0        5.852241    0.704775    0.372601
      2          6           0        4.018212   -2.307338    0.164280
      3          6           0        3.411725    2.326033   -1.140623
      4          6           0        8.058320    3.258628   -0.160197
      5          6           0        8.799128   -1.422863    1.053929
      6          7           0        3.953472    0.017706   -0.441647
      7          6           0        3.325908   -1.152323   -0.203987
      8          6           0        1.835900   -1.009881   -0.571626
      9          6           0        1.647426    0.424618   -0.948497
     10          6           0        3.098755    0.990002   -0.888130
     11          6           0        0.816889    0.608133   -2.284091
     12          6           0        0.763610   -1.535689    0.440343
     13          6           0       -0.636951   -0.815454    0.649382
     14          6           0       -1.902536   -1.682401    0.720902
     15          8           0       -2.277520   -2.460609    1.636505
     16          8           0       -2.634342   -1.576541   -0.465507
     17          7           0        5.652226    2.626445   -0.311671
     18          6           0        4.515935    3.116988   -0.914393
     19          6           0        4.744407    4.502429   -1.211793
     20          6           0        6.134548    4.838345   -0.976951
     21          6           0        6.685503    3.545362   -0.514608
     22          6           0        3.645701    5.270222   -1.827492
     23          6           0        6.882060    6.190123   -1.088130
     24          8           0        8.050781    6.244539   -0.889060
     25          6           0        6.117756    7.469302   -1.196284
     26          7           0        8.132053    0.841681    0.392979
     27          6           0        8.683676    2.068499    0.257170
     28          6           0       10.230945    2.043317    0.471189
     29          6           0       10.484868    0.565513    0.899120
     30          6           0        9.083786   -0.082457    0.772988
     31          6           0       11.060273    2.442205   -0.720423
     32          6           0       11.097361    0.300974    2.318931
     33          6           0       10.219028    0.396722    3.520365
     34          7           0        6.425043   -1.394183    0.603520
     35          6           0        7.589233   -2.035302    0.916743
     36          6           0        7.321489   -3.437959    1.121503
     37          6           0        5.942870   -3.632168    0.843309
     38          6           0        5.455943   -2.358134    0.486996
     39          6           0        8.304222   -4.526435    1.373748
     40          6           0        4.877777   -4.587854    0.735394
     41          8           0        4.802827   -5.792640    0.947861
     42          6           0        3.568413   -3.768987    0.338678
     43          6           0        2.820954   -4.377349   -0.835935
     44          8           0        3.266471   -4.445893   -1.952339
     45          8           0        1.563464   -4.781040   -0.416149
     46          6           0        0.777029   -5.415406   -1.474665
     47          6           0       -3.548218   -2.608054   -0.839733
     48          6           0       -4.942497   -2.112782   -0.750282
     49          6           0       -6.071425   -2.817105   -0.638570
     50          6           0       -6.171309   -4.264721   -0.389102
     51          6           0       -7.450357   -2.111149   -0.562610
     52          6           0       -7.732713   -0.905282   -1.512640
     53          6           0       -8.929956   -1.093248   -2.486484
     54          6           0      -10.022527   -0.148956   -2.166283
     55          6           0       -9.719650    1.331983   -2.600979
     56          6           0      -10.525700   -0.410544   -0.738571
     57          6           0      -11.976035   -0.920856   -0.799156
     58          6           0      -12.952274    0.139809   -1.259519
     59          6           0      -13.952158    0.677004   -0.104851
     60          6           0      -15.376834   -0.102073   -0.082908
     61          6           0      -14.060083    2.284641   -0.117444
     62          6           0      -12.866091    2.841631    0.740344
     63          6           0      -13.288609    3.563588    2.054000
     64          6           0      -12.716122    2.909144    3.424489
     65          6           0      -12.352588    4.037499    4.460906
     66          6           0      -13.695005    1.862963    4.033789
     67          1           0        2.593018    2.981179   -1.446780
     68          1           0        8.689478    4.137187   -0.307478
     69          1           0        9.646806   -2.039639    1.359370
     70          1           0        1.818215   -1.702211   -1.413343
     71          1           0        1.009975    0.879886   -0.190048
     72          1           0        0.421643   -0.357361   -2.599425
     73          1           0        1.447107    1.147052   -2.991491
     74          1           0       -0.099266    1.171381   -2.105610
     75          1           0        1.241616   -1.544728    1.420207
     76          1           0        0.513666   -2.581531    0.259980
     77          1           0       -0.708829   -0.121596   -0.188410
     78          1           0       -0.592911   -0.213619    1.557182
     79          1           0        4.124799    5.950736   -2.531026
     80          1           0        3.196913    5.871923   -1.038033
     81          1           0        2.819885    4.782834   -2.346005
     82          1           0        6.047179    7.604012   -2.274832
     83          1           0        6.628694    8.238790   -0.616746
     84          1           0        5.079744    7.417373   -0.867011
     85          1           0       10.529483    2.623992    1.344227
     86          1           0       11.059226   -0.092816    0.248094
     87          1           0       10.444425    2.882387   -1.505763
     88          1           0       11.553567    1.587736   -1.184476
     89          1           0       11.778047    3.170881   -0.344502
     90          1           0       11.930649    0.982457    2.490481
     91          1           0       11.629560   -0.649521    2.274924
     92          1           0        9.357645    1.026471    3.296960
     93          1           0       10.577583    0.846750    4.446384
     94          1           0        9.983930   -0.636696    3.777047
     95          1           0        9.060343   -4.649656    0.598914
     96          1           0        7.755517   -5.452629    1.201083
     97          1           0        8.746122   -4.451550    2.367721
     98          1           0        2.939962   -3.771484    1.229492
     99          1           0        0.092336   -4.567866   -1.478323
    100          1           0        0.376461   -6.304484   -0.988220
    101          1           0        1.346016   -5.588459   -2.388378
    102          1           0       -3.340909   -3.509366   -0.262238
    103          1           0       -3.418097   -2.758401   -1.911365
    104          1           0       -5.104329   -1.049871   -0.928331
    105          1           0       -5.187105   -4.724674   -0.303862
    106          1           0       -6.733178   -4.756397   -1.183898
    107          1           0       -6.661947   -4.544870    0.542578
    108          1           0       -7.709989   -1.752785    0.432770
    109          1           0       -8.249664   -2.822830   -0.768018
    110          1           0       -6.943122   -0.673171   -2.226840
    111          1           0       -7.890925    0.037202   -0.988999
    112          1           0       -9.305299   -2.116187   -2.488152
    113          1           0       -8.639613   -0.744136   -3.477730
    114          1           0      -10.739825   -0.498645   -2.909346
    115          1           0      -10.553645    1.838857   -3.085911
    116          1           0       -8.889717    1.438593   -3.299296
    117          1           0       -9.461937    1.846584   -1.674834
    118          1           0      -10.462125    0.518269   -0.171975
    119          1           0       -9.981224   -1.080754   -0.072875
    120          1           0      -12.273914   -1.291736    0.181584
    121          1           0      -12.192168   -1.771175   -1.446753
    122          1           0      -13.473009   -0.252723   -2.132944
    123          1           0      -12.418846    0.996623   -1.671712
    124          1           0      -13.503017    0.426384    0.856184
    125          1           0      -15.288331   -0.933792   -0.781951
    126          1           0      -16.183406    0.575576   -0.359682
    127          1           0      -15.471696   -0.576643    0.893667
    128          1           0      -14.977661    2.533713    0.416029
    129          1           0      -14.137151    2.644305   -1.144005
    130          1           0      -12.404579    3.555410    0.057599
    131          1           0      -12.156737    2.076568    1.055610
    132          1           0      -14.370403    3.571856    2.183922
    133          1           0      -13.003087    4.599788    1.872176
    134          1           0      -11.820702    2.308212    3.264716
    135          1           0      -12.734361    3.787519    5.450544
    136          1           0      -12.714986    5.040330    4.232998
    137          1           0      -11.267026    4.057769    4.563168
    138          1           0      -14.423238    1.506233    3.306115
    139          1           0      -14.187251    2.174679    4.955339
    140          1           0      -13.084362    0.967707    4.146304
 ---------------------------------------------------------------------

 SCF Done:  E(RCAM-B3LYP) =  -3007.13775985     A.U. after   16 cycles

 Excitation energies and oscillator strengths:

 Excited State   1:      Singlet-A      1.7041 eV  727.55 nm  f=0.3776  <S**2>=0.000
     245 -> 248        0.18777
     246 -> 247        0.68368
     245 <- 248        0.11036
 This state for optimization and/or second-order correction.
 Total Energy, E(TD-HF/TD-DFT) =  -3007.07513422
 Copying the excited state density for this state as the 1-particle RhoCI density.

 Excited State   2:      Singlet-A      2.1913 eV  565.79 nm  f=0.1139  <S**2>=0.000
     245 -> 247        0.64160
     246 -> 248       -0.28419

 Excited State   3:      Singlet-A      3.3288 eV  372.46 nm  f=0.0012  <S**2>=0.000
     242 -> 247       -0.19362
     244 -> 247        0.66238

 Excited State   4:      Singlet-A      3.4166 eV  362.88 nm  f=0.0992  <S**2>=0.000
     242 -> 247        0.53999
     244 -> 247        0.12608
     245 -> 247        0.10507
     246 -> 248        0.39052

 Excited State   5:      Singlet-A      3.5612 eV  348.15 nm  f=0.0003  <S**2>=0.000
     240 -> 247        0.25686
     240 -> 249       -0.12140
     241 -> 247        0.51270
     241 -> 249       -0.23436
     241 -> 250        0.11997
     241 -> 251        0.19052

 The electronic state is 1-A.
 Alpha  occ. eigenvalues --  -46.90152 -19.24908 -19.24747 -19.20420 -19.20194
 Alpha  occ. eigenvalues --  -19.19688 -19.18744 -14.42418 -14.41924 -14.39644
 Alpha  occ. eigenvalues --  -14.38957 -10.40726 -10.39280 -10.35836 -10.34919
 Alpha  occ. eigenvalues --  -10.31965 -10.31835 -10.31424 -10.31371 -10.31029
 Alpha  occ. eigenvalues --  -10.30848 -10.30497 -10.29601 -10.29166 -10.28906
 Alpha  occ. eigenvalues --  -10.28813 -10.28727 -10.28383 -10.28379 -10.28187
 Alpha  occ. eigenvalues --  -10.28061 -10.27981 -10.27925 -10.27688 -10.27469
 Alpha  occ. eigenvalues --  -10.27403 -10.27140 -10.26896 -10.26739 -10.26652
 Alpha  occ. eigenvalues --  -10.26532 -10.26493 -10.26450 -10.26397 -10.26212
 Alpha  occ. eigenvalues --  -10.26157 -10.25722 -10.25483 -10.25351 -10.25200
 Alpha  occ. eigenvalues --  -10.25056 -10.25048 -10.25042 -10.25014 -10.24996
 Alpha  occ. eigenvalues --  -10.24974 -10.24953 -10.24919 -10.24806 -10.24695
 Alpha  occ. eigenvalues --  -10.24569 -10.24445 -10.24442 -10.24437 -10.24373
 Alpha  occ. eigenvalues --  -10.24179  -3.18460  -1.93333  -1.92925  -1.92750
 Alpha  occ. eigenvalues --   -1.16461  -1.15626  -1.13006  -1.09322  -1.08703
 Alpha  occ. eigenvalues --   -1.06785  -1.04448  -1.03289  -1.02625  -1.01982
 Alpha  occ. eigenvalues --   -0.91779  -0.90925  -0.90297  -0.89482  -0.88992
 Alpha  occ. eigenvalues --   -0.88404  -0.87883  -0.87548  -0.87302  -0.86344
 Alpha  occ. eigenvalues --   -0.86230  -0.85542  -0.84086  -0.83826  -0.83427
 Alpha  occ. eigenvalues --   -0.82627  -0.82272  -0.81448  -0.80736  -0.80544
 Alpha  occ. eigenvalues --   -0.79637  -0.78489  -0.78387  -0.77221  -0.76073
 Alpha  occ. eigenvalues --   -0.75654  -0.75301  -0.74803  -0.74671  -0.73986
 Alpha  occ. eigenvalues --   -0.73842  -0.72485  -0.71885  -0.70969  -0.69530
 Alpha  occ. eigenvalues --   -0.68957  -0.68558  -0.67169  -0.67070  -0.65898
 Alpha  occ. eigenvalues --   -0.65428  -0.64933  -0.64418  -0.64179  -0.63433
 Alpha  occ. eigenvalues --   -0.63305  -0.62814  -0.61869  -0.60691  -0.60330
 Alpha  occ. eigenvalues --   -0.60022  -0.59762  -0.59065  -0.58647  -0.58192
 Alpha  occ. eigenvalues --   -0.57760  -0.57380  -0.56066  -0.55971  -0.55686
 Alpha  occ. eigenvalues --   -0.55192  -0.54946  -0.54891  -0.54526  -0.54251
 Alpha  occ. eigenvalues --   -0.53889  -0.53680  -0.53595  -0.53335  -0.52887
 Alpha  occ. eigenvalues --   -0.52665  -0.52488  -0.52298  -0.51909  -0.51717
 Alpha  occ. eigenvalues --   -0.51515  -0.51301  -0.51185  -0.51002  -0.50908
 Alpha  occ. eigenvalues --   -0.50497  -0.50384  -0.50252  -0.49916  -0.49710
 Alpha  occ. eigenvalues --   -0.49482  -0.49331  -0.49128  -0.49031  -0.48903
 Alpha  occ. eigenvalues --   -0.48811  -0.48557  -0.48279  -0.48003  -0.47888
 Alpha  occ. eigenvalues --   -0.47501  -0.47291  -0.47059  -0.46795  -0.46729
 Alpha  occ. eigenvalues --   -0.46444  -0.46135  -0.46081  -0.45715  -0.45684
 Alpha  occ. eigenvalues --   -0.45651  -0.45578  -0.45446  -0.45011  -0.44799
 Alpha  occ. eigenvalues --   -0.44680  -0.44655  -0.44374  -0.44181  -0.43876
 Alpha  occ. eigenvalues --   -0.43802  -0.43762  -0.43521  -0.43364  -0.43143
 Alpha  occ. eigenvalues --   -0.43072  -0.42748  -0.42484  -0.42243  -0.42170
 Alpha  occ. eigenvalues --   -0.41944  -0.41782  -0.41658  -0.41279  -0.41017
 Alpha  occ. eigenvalues --   -0.40787  -0.40438  -0.40287  -0.40238  -0.40167
 Alpha  occ. eigenvalues --   -0.39608  -0.39466  -0.39059  -0.38814  -0.38435
 Alpha  occ. eigenvalues --   -0.38217  -0.38165  -0.37858  -0.37576  -0.37414
 Alpha  occ. eigenvalues --   -0.37079  -0.36892  -0.36326  -0.36208  -0.36089
 Alpha  occ. eigenvalues --   -0.35929  -0.35386  -0.34793  -0.34437  -0.34148
 Alpha  occ. eigenvalues --   -0.33700  -0.33587  -0.33308  -0.31902  -0.30996
 Alpha  occ. eigenvalues --   -0.30740  -0.29968  -0.29741  -0.29474  -0.23985
 Alpha  occ. eigenvalues --   -0.21214
 Alpha virt. eigenvalues --   -0.08784  -0.01802   0.00168   0.01035   0.02415
 Alpha virt. eigenvalues --    0.03072   0.05466   0.05639   0.05895   0.06908
 Alpha virt. eigenvalues --    0.07957   0.08213   0.08569   0.08581   0.09226

 Mulliken charges:
               1
     1  Mg   0.818969
     2  C   -0.011431
     3  C   -0.048798
     4  C   -0.055018
     5  C   -0.095604
     6  N   -0.297615
     7  C   -0.057004
     8  C    0.008784
     9  C   -0.087523
    10  C    0.072930
    11  C    0.068721
    12  C    0.037183
    13  C    0.048404
    14  C    0.185016
    15  O   -0.249872
    16  O   -0.342065
    17  N   -0.428166
    18  C    0.123717
    19  C   -0.120115
    20  C   -0.042876
    21  C    0.091025
    22  C    0.082812
    23  C    0.006935
    24  O   -0.165603
    25  C    0.045663
    26  N   -0.240884
    27  C    0.047322
    28  C   -0.014329
    29  C   -0.001860
    30  C   -0.021633
    31  C    0.083987
    32  C    0.000045
    33  C    0.023525
    34  N   -0.309182
    35  C    0.157936
    36  C   -0.178481
    37  C    0.018488
    38  C    0.070874
    39  C    0.109054
    40  C    0.055642
    41  O   -0.172068
    42  C    0.000748
    43  C    0.189453
    44  O   -0.197050
    45  O   -0.348688
    46  C    0.159396
    47  C    0.303105
    48  C   -0.121471
    49  C   -0.147042
    50  C    0.080208
    51  C    0.089242
    52  C   -0.015965
    53  C    0.042056
    54  C   -0.140492
    55  C    0.048512
    56  C    0.072414
    57  C    0.017150
    58  C    0.044270
    59  C   -0.153174
    60  C    0.048389
    61  C    0.042361
    62  C   -0.000687
    63  C    0.037577
    64  C   -0.162849
    65  C    0.038236
    66  C    0.040336
    67  H   -0.041056
    68  H   -0.000055
    69  H   -0.030730
    70  H    0.023310
    71  H    0.024199
    72  H    0.022524
    73  H    0.028721
    74  H    0.014158
    75  H    0.012484
    76  H    0.025437
    77  H    0.013198
    78  H    0.036340
    79  H    0.014601
    80  H    0.032143
    81  H    0.035927
    82  H    0.042039
    83  H    0.048704
    84  H    0.015698
    85  H    0.012911
    86  H    0.008522
    87  H    0.023029
    88  H    0.013044
    89  H    0.019289
    90  H   -0.001513
    91  H   -0.002156
    92  H    0.016519
    93  H    0.009786
    94  H    0.016594
    95  H    0.022829
    96  H    0.027602
    97  H    0.030287
    98  H    0.043552
    99  H    0.029622
   100  H    0.052564
   101  H    0.069675
   102  H    0.036502
   103  H    0.023100
   104  H   -0.001366
   105  H   -0.006995
   106  H    0.019457
   107  H    0.024418
   108  H    0.022512
   109  H   -0.012883
   110  H   -0.002789
   111  H   -0.006676
   112  H   -0.002132
   113  H   -0.016923
   114  H   -0.005956
   115  H    0.021565
   116  H    0.001655
   117  H    0.008329
   118  H   -0.017423
   119  H   -0.007922
   120  H   -0.016190
   121  H   -0.009159
   122  H   -0.011296
   123  H   -0.016354
   124  H   -0.006062
   125  H   -0.001663
   126  H    0.019656
   127  H    0.009199
   128  H   -0.010001
   129  H    0.007163
   130  H   -0.001011
   131  H    0.018116
   132  H   -0.001434
   133  H   -0.000804
   134  H    0.003738
   135  H   -0.002876
   136  H    0.016214
   137  H    0.008035
   138  H    0.002760
   139  H    0.021512
   140  H    0.001248
 Sum of Mulliken charges =  -0.00000

 Dipole moment (field-independent basis, Debye):
    X=             -2.0018    Y=              4.9821    Z=             -0.6130  Tot=              5.4041
 Quadrupole moment (field-independent basis, Debye-Ang):
   XX=           -391.4410   YY=           -421.3378   ZZ=           -406.8862
   XY=             13.6333   XZ=             24.8614   YZ=              5.1075

 Normal termination of Gaussian 16 at Wed May  4 23:30:10 2022.
