 Gaussian 16, Revision A.03,
 Gaussian 16:  ES64L-G16RevA.03 25-Dec-2016

 ---------------------------------
 #p PBE1PBE/Def2SVP td=(nstates=5)
 ---------------------------------

 -----------------------------------------------------
 step_501_chromophore_16 TDDFT with PBE1PBE functional
 -----------------------------------------------------
 Symbolic Z-matrix:
 Charge =  0 Multiplicity = 1

                         Standard orientation:
 ---------------------------------------------------------------------
 Center     Atomic      Atomic             Coordinates (Angstroms)
 Number     Number       Type             X           Y           Z
 ---------------------------------------------------------------------
      1         12           0        5.852241    0.704775    0.372601
      2          6           0        4.018212   -2.307338    0.164280
      3          6           0        3.411725    2.326033   -1.140623
      4          6           0        8.058320    3.258628   -0.160197
      5          6           0        8.799128   -1.422863    1.053929
      6          7           0        3.953472    0.017706   -0.441647
      7          6           0        3.325908   -1.152323   -0.203987
      8          6           0        1.835900   -1.009881   -0.571626
      9          6           0        1.647426    0.424618   -0.948497
     10          6           0        3.098755    0.990002   -0.888130
     11          6           0        0.816889    0.608133   -2.284091
     12          6           0        0.763610   -1.535689    0.440343
     13          6           0       -0.636951   -0.815454    0.649382
     14          6           0       -1.902536   -1.682401    0.720902
     15          8           0       -2.277520   -2.460609    1.636505
     16          8           0       -2.634342   -1.576541   -0.465507
     17          7           0        5.652226    2.626445   -0.311671
     18          6           0        4.515935    3.116988   -0.914393
     19          6           0        4.744407    4.502429   -1.211793
     20          6           0        6.134548    4.838345   -0.976951
     21          6           0        6.685503    3.545362   -0.514608
     22          6           0        3.645701    5.270222   -1.827492
     23          6           0        6.882060    6.190123   -1.088130
     24          8           0        8.050781    6.244539   -0.889060
     25          6           0        6.117756    7.469302   -1.196284
     26          7           0        8.132053    0.841681    0.392979
     27          6           0        8.683676    2.068499    0.257170
     28          6           0       10.230945    2.043317    0.471189
     29          6           0       10.484868    0.565513    0.899120
     30          6           0        9.083786   -0.082457    0.772988
     31          6           0       11.060273    2.442205   -0.720423
     32          6           0       11.097361    0.300974    2.318931
     33          6           0       10.219028    0.396722    3.520365
     34          7           0        6.425043   -1.394183    0.603520
     35          6           0        7.589233   -2.035302    0.916743
     36          6           0        7.321489   -3.437959    1.121503
     37          6           0        5.942870   -3.632168    0.843309
     38          6           0        5.455943   -2.358134    0.486996
     39          6           0        8.304222   -4.526435    1.373748
     40          6           0        4.877777   -4.587854    0.735394
     41          8           0        4.802827   -5.792640    0.947861
     42          6           0        3.568413   -3.768987    0.338678
     43          6           0        2.820954   -4.377349   -0.835935
     44          8           0        3.266471   -4.445893   -1.952339
     45          8           0        1.563464   -4.781040   -0.416149
     46          6           0        0.777029   -5.415406   -1.474665
     47          6           0       -3.548218   -2.608054   -0.839733
     48          6           0       -4.942497   -2.112782   -0.750282
     49          6           0       -6.071425   -2.817105   -0.638570
     50          6           0       -6.171309   -4.264721   -0.389102
     51          6           0       -7.450357   -2.111149   -0.562610
     52          6           0       -7.732713   -0.905282   -1.512640
     53          6           0       -8.929956   -1.093248   -2.486484
     54          6           0      -10.022527   -0.148956   -2.166283
     55          6           0       -9.719650    1.331983   -2.600979
     56          6           0      -10.525700   -0.410544   -0.738571
     57          6           0      -11.976035   -0.920856   -0.799156
     58          6           0      -12.952274    0.139809   -1.259519
     59          6           0      -13.952158    0.677004   -0.104851
     60          6           0      -15.376834   -0.102073   -0.082908
     61          6           0      -14.060083    2.284641   -0.117444
     62          6           0      -12.866091    2.841631    0.740344
     63          6           0      -13.288609    3.563588    2.054000
     64          6           0      -12.716122    2.909144    3.424489
     65          6           0      -12.352588    4.037499    4.460906
     66          6           0      -13.695005    1.862963    4.033789
     67          1           0        2.593018    2.981179   -1.446780
     68          1           0        8.689478    4.137187   -0.307478
     69          1           0        9.646806   -2.039639    1.359370
     70          1           0        1.818215   -1.702211   -1.413343
     71          1           0        1.009975    0.879886   -0.190048
     72          1           0        0.421643   -0.357361   -2.599425
     73          1           0        1.447107    1.147052   -2.991491
     74          1           0       -0.099266    1.171381   -2.105610
     75          1           0        1.241616   -1.544728    1.420207
     76          1           0        0.513666   -2.581531    0.259980
     77          1           0       -0.708829   -0.121596   -0.188410
     78          1           0       -0.592911   -0.213619    1.557182
     79          1           0        4.124799    5.950736   -2.531026
     80          1           0        3.196913    5.871923   -1.038033
     81          1           0        2.819885    4.782834   -2.346005
     82          1           0        6.047179    7.604012   -2.274832
     83          1           0        6.628694    8.238790   -0.616746
     84          1           0        5.079744    7.417373   -0.867011
     85          1           0       10.529483    2.623992    1.344227
     86          1           0       11.059226   -0.092816    0.248094
     87          1           0       10.444425    2.882387   -1.505763
     88          1           0       11.553567    1.587736   -1.184476
     89          1           0       11.778047    3.170881   -0.344502
     90          1           0       11.930649    0.982457    2.490481
     91          1           0       11.629560   -0.649521    2.274924
     92          1           0        9.357645    1.026471    3.296960
     93          1           0       10.577583    0.846750    4.446384
     94          1           0        9.983930   -0.636696    3.777047
     95          1           0        9.060343   -4.649656    0.598914
     96          1           0        7.755517   -5.452629    1.201083
     97          1           0        8.746122   -4.451550    2.367721
     98          1           0        2.939962   -3.771484    1.229492
     99          1           0        0.092336   -4.567866   -1.478323
    100          1           0        0.376461   -6.304484   -0.988220
    101          1           0        1.346016   -5.588459   -2.388378
    102          1           0       -3.340909   -3.509366   -0.262238
    103          1           0       -3.418097   -2.758401   -1.911365
    104          1           0       -5.104329   -1.049871   -0.928331
    105          1           0       -5.187105   -4.724674   -0.303862
    106          1           0       -6.733178   -4.756397   -1.183898
    107          1           0       -6.661947   -4.544870    0.542578
    108          1           0       -7.709989   -1.752785    0.432770
    109          1           0       -8.249664   -2.822830   -0.768018
    110          1           0       -6.943122   -0.673171   -2.226840
    111          1           0       -7.890925    0.037202   -0.988999
    112          1           0       -9.305299   -2.116187   -2.488152
    113          1           0       -8.639613   -0.744136   -3.477730
    114          1           0      -10.739825   -0.498645   -2.909346
    115          1           0      -10.553645    1.838857   -3.085911
    116          1           0       -8.889717    1.438593   -3.299296
    117          1           0       -9.461937    1.846584   -1.674834
    118          1           0      -10.462125    0.518269   -0.171975
    119          1           0       -9.981224   -1.080754   -0.072875
    120          1           0      -12.273914   -1.291736    0.181584
    121          1           0      -12.192168   -1.771175   -1.446753
    122          1           0      -13.473009   -0.252723   -2.132944
    123          1           0      -12.418846    0.996623   -1.671712
    124          1           0      -13.503017    0.426384    0.856184
    125          1           0      -15.288331   -0.933792   -0.781951
    126          1           0      -16.183406    0.575576   -0.359682
    127          1           0      -15.471696   -0.576643    0.893667
    128          1           0      -14.977661    2.533713    0.416029
    129          1           0      -14.137151    2.644305   -1.144005
    130          1           0      -12.404579    3.555410    0.057599
    131          1           0      -12.156737    2.076568    1.055610
    132          1           0      -14.370403    3.571856    2.183922
    133          1           0      -13.003087    4.599788    1.872176
    134          1           0      -11.820702    2.308212    3.264716
    135          1           0      -12.734361    3.787519    5.450544
    136          1           0      -12.714986    5.040330    4.232998
    137          1           0      -11.267026    4.057769    4.563168
    138          1           0      -14.423238    1.506233    3.306115
    139          1           0      -14.187251    2.174679    4.955339
    140          1           0      -13.084362    0.967707    4.146304
 ---------------------------------------------------------------------

 SCF Done:  E(RPBE1PBE) =  -3005.32735350     A.U. after   15 cycles

 Excitation energies and oscillator strengths:

 Excited State   1:      Singlet-A      1.8638 eV  665.23 nm  f=0.3643  <S**2>=0.000
     245 -> 248        0.18039
     246 -> 247        0.69111
     246 <- 247       -0.10723
 This state for optimization and/or second-order correction.
 Total Energy, E(TD-HF/TD-DFT) =  -3005.25886136
 Copying the excited state density for this state as the 1-particle RhoCI density.

 Excited State   2:      Singlet-A      2.1942 eV  565.06 nm  f=0.1098  <S**2>=0.000
     245 -> 247        0.65319
     246 -> 248       -0.25640

 Excited State   3:      Singlet-A      2.9822 eV  415.74 nm  f=0.0008  <S**2>=0.000
     241 -> 247        0.31077
     243 -> 247        0.61604

 Excited State   4:      Singlet-A      3.0535 eV  406.03 nm  f=0.0004  <S**2>=0.000
     241 -> 247        0.50334
     241 -> 249        0.11369
     242 -> 247        0.35900
     243 -> 247       -0.29513

 Excited State   5:      Singlet-A      3.1344 eV  395.56 nm  f=0.0010  <S**2>=0.000
     241 -> 247       -0.32746
     242 -> 247        0.57042
     243 -> 247        0.13779
     246 -> 248        0.18484

 The electronic state is 1-A.
 Alpha  occ. eigenvalues --  -46.93552 -19.25620 -19.25482 -19.20732 -19.20423
 Alpha  occ. eigenvalues --  -19.19805 -19.19026 -14.41959 -14.41391 -14.39284
 Alpha  occ. eigenvalues --  -14.38664 -10.37808 -10.36297 -10.32884 -10.32100
 Alpha  occ. eigenvalues --  -10.29494 -10.29370 -10.29127 -10.28694 -10.28677
 Alpha  occ. eigenvalues --  -10.28543 -10.28332 -10.27184 -10.26945 -10.26497
 Alpha  occ. eigenvalues --  -10.26437 -10.26405 -10.26267 -10.26164 -10.25980
 Alpha  occ. eigenvalues --  -10.25725 -10.25645 -10.25567 -10.25430 -10.25343
 Alpha  occ. eigenvalues --  -10.25188 -10.24520 -10.24512 -10.24209 -10.24176
 Alpha  occ. eigenvalues --  -10.24164 -10.24122 -10.23974 -10.23926 -10.23879
 Alpha  occ. eigenvalues --  -10.23861 -10.23299 -10.22946 -10.22815 -10.22771
 Alpha  occ. eigenvalues --  -10.22729 -10.22661 -10.22588 -10.22583 -10.22561
 Alpha  occ. eigenvalues --  -10.22498 -10.22446 -10.22384 -10.22366 -10.22283
 Alpha  occ. eigenvalues --  -10.21984 -10.21974 -10.21937 -10.21838 -10.21835
 Alpha  occ. eigenvalues --  -10.21750  -3.15445  -1.88254  -1.87827  -1.87656
 Alpha  occ. eigenvalues --   -1.11246  -1.10467  -1.07697  -1.04113  -1.03557
 Alpha  occ. eigenvalues --   -1.01652  -0.99055  -0.97935  -0.97272  -0.96627
 Alpha  occ. eigenvalues --   -0.86151  -0.85038  -0.84508  -0.83654  -0.83265
 Alpha  occ. eigenvalues --   -0.82701  -0.81948  -0.81867  -0.81554  -0.80598
 Alpha  occ. eigenvalues --   -0.80443  -0.79782  -0.78362  -0.78042  -0.77657
 Alpha  occ. eigenvalues --   -0.76774  -0.76507  -0.75729  -0.75064  -0.74781
 Alpha  occ. eigenvalues --   -0.73770  -0.72744  -0.72689  -0.71549  -0.70432
 Alpha  occ. eigenvalues --   -0.69818  -0.69389  -0.69173  -0.68841  -0.68271
 Alpha  occ. eigenvalues --   -0.68014  -0.66959  -0.66229  -0.65365  -0.63859
 Alpha  occ. eigenvalues --   -0.63237  -0.62986  -0.61596  -0.61288  -0.60341
 Alpha  occ. eigenvalues --   -0.59610  -0.59495  -0.58901  -0.58759  -0.57821
 Alpha  occ. eigenvalues --   -0.57549  -0.57015  -0.56427  -0.54973  -0.54816
 Alpha  occ. eigenvalues --   -0.54524  -0.54176  -0.53650  -0.53217  -0.52722
 Alpha  occ. eigenvalues --   -0.52245  -0.51914  -0.50583  -0.50492  -0.50202
 Alpha  occ. eigenvalues --   -0.49751  -0.49565  -0.49463  -0.48898  -0.48801
 Alpha  occ. eigenvalues --   -0.48365  -0.48160  -0.48013  -0.47854  -0.47526
 Alpha  occ. eigenvalues --   -0.47084  -0.47056  -0.46794  -0.46555  -0.46183
 Alpha  occ. eigenvalues --   -0.46049  -0.45828  -0.45697  -0.45572  -0.45497
 Alpha  occ. eigenvalues --   -0.45115  -0.44959  -0.44766  -0.44505  -0.44303
 Alpha  occ. eigenvalues --   -0.44028  -0.43984  -0.43751  -0.43594  -0.43530
 Alpha  occ. eigenvalues --   -0.43436  -0.43130  -0.42890  -0.42570  -0.42503
 Alpha  occ. eigenvalues --   -0.42170  -0.42012  -0.41734  -0.41451  -0.41408
 Alpha  occ. eigenvalues --   -0.41054  -0.40832  -0.40686  -0.40446  -0.40381
 Alpha  occ. eigenvalues --   -0.40324  -0.40216  -0.40153  -0.39604  -0.39578
 Alpha  occ. eigenvalues --   -0.39435  -0.39388  -0.39078  -0.38926  -0.38634
 Alpha  occ. eigenvalues --   -0.38549  -0.38508  -0.38293  -0.38161  -0.37962
 Alpha  occ. eigenvalues --   -0.37837  -0.37623  -0.37352  -0.37094  -0.37038
 Alpha  occ. eigenvalues --   -0.36826  -0.36560  -0.36353  -0.36079  -0.35879
 Alpha  occ. eigenvalues --   -0.35691  -0.35226  -0.35155  -0.35120  -0.34941
 Alpha  occ. eigenvalues --   -0.34491  -0.34313  -0.34000  -0.33613  -0.33253
 Alpha  occ. eigenvalues --   -0.33133  -0.33018  -0.32652  -0.32576  -0.32195
 Alpha  occ. eigenvalues --   -0.32146  -0.31760  -0.31238  -0.31215  -0.31083
 Alpha  occ. eigenvalues --   -0.30938  -0.30316  -0.29704  -0.29241  -0.29087
 Alpha  occ. eigenvalues --   -0.28946  -0.28828  -0.28515  -0.26668  -0.26607
 Alpha  occ. eigenvalues --   -0.25717  -0.25531  -0.25158  -0.25032  -0.20926
 Alpha  occ. eigenvalues --   -0.18850
 Alpha virt. eigenvalues --   -0.11233  -0.05269  -0.03942  -0.02050  -0.01780
 Alpha virt. eigenvalues --   -0.01579   0.00755   0.01170   0.01548   0.03128
 Alpha virt. eigenvalues --    0.04259   0.04714   0.04897   0.05335   0.05435

 Mulliken charges:
               1
     1  Mg   0.955574
     2  C   -0.019103
     3  C   -0.053292
     4  C   -0.048262
     5  C   -0.081851
     6  N   -0.404962
     7  C    0.015373
     8  C   -0.061948
     9  C   -0.169103
    10  C    0.114036
    11  C    0.011571
    12  C   -0.011328
    13  C   -0.036377
    14  C    0.252185
    15  O   -0.282196
    16  O   -0.374132
    17  N   -0.535372
    18  C    0.152736
    19  C   -0.157360
    20  C   -0.087132
    21  C    0.119953
    22  C    0.023895
    23  C    0.059059
    24  O   -0.204545
    25  C   -0.026873
    26  N   -0.341487
    27  C    0.077424
    28  C   -0.093174
    29  C   -0.071067
    30  C    0.022628
    31  C    0.027181
    32  C   -0.061272
    33  C   -0.049915
    34  N   -0.429599
    35  C    0.171006
    36  C   -0.185360
    37  C   -0.035901
    38  C    0.122110
    39  C    0.053488
    40  C    0.148990
    41  O   -0.218662
    42  C   -0.100663
    43  C    0.274796
    44  O   -0.233242
    45  O   -0.380536
    46  C    0.104623
    47  C    0.262250
    48  C   -0.131587
    49  C   -0.190365
    50  C    0.015092
    51  C    0.030341
    52  C   -0.078318
    53  C   -0.015025
    54  C   -0.228365
    55  C   -0.009599
    56  C    0.013263
    57  C   -0.049371
    58  C   -0.007409
    59  C   -0.232796
    60  C   -0.013860
    61  C   -0.014562
    62  C   -0.067636
    63  C   -0.013954
    64  C   -0.253556
    65  C   -0.021305
    66  C   -0.020374
    67  H   -0.007362
    68  H    0.031966
    69  H    0.000373
    70  H    0.063820
    71  H    0.063801
    72  H    0.049339
    73  H    0.056266
    74  H    0.040121
    75  H    0.045559
    76  H    0.063969
    77  H    0.050261
    78  H    0.068078
    79  H    0.044404
    80  H    0.060565
    81  H    0.060468
    82  H    0.068545
    83  H    0.074574
    84  H    0.043275
    85  H    0.050265
    86  H    0.046357
    87  H    0.050968
    88  H    0.040260
    89  H    0.046411
    90  H    0.032551
    91  H    0.029824
    92  H    0.046442
    93  H    0.038181
    94  H    0.044173
    95  H    0.050600
    96  H    0.056078
    97  H    0.057581
    98  H    0.081619
    99  H    0.051751
   100  H    0.074420
   101  H    0.089659
   102  H    0.060086
   103  H    0.051998
   104  H    0.028789
   105  H    0.021520
   106  H    0.047807
   107  H    0.051706
   108  H    0.054222
   109  H    0.017927
   110  H    0.029345
   111  H    0.027377
   112  H    0.030899
   113  H    0.017631
   114  H    0.033652
   115  H    0.047258
   116  H    0.028522
   117  H    0.034798
   118  H    0.017637
   119  H    0.027067
   120  H    0.016518
   121  H    0.023578
   122  H    0.020408
   123  H    0.021462
   124  H    0.033480
   125  H    0.026516
   126  H    0.046103
   127  H    0.036281
   128  H    0.023515
   129  H    0.038101
   130  H    0.031934
   131  H    0.052018
   132  H    0.030216
   133  H    0.031027
   134  H    0.039873
   135  H    0.024510
   136  H    0.042544
   137  H    0.035832
   138  H    0.031717
   139  H    0.047569
   140  H    0.028619
 Sum of Mulliken charges =  -0.00000

 Dipole moment (field-independent basis, Debye):
    X=             -1.9898    Y=              4.8235    Z=             -0.5408  Tot=              5.2458
 Quadrupole moment (field-independent basis, Debye-Ang):
   XX=           -384.8859   YY=           -418.8732   ZZ=           -404.3425
   XY=             12.6812   XZ=             26.1932   YZ=              5.0062

 Normal termination of Gaussian 16 at Thu May  5 00:00:49 2022.
