 Gaussian 16, Revision A.03,
 Gaussian 16:  ES64L-G16RevA.03 25-Dec-2016

 --------------------------------
 #p wB97XD/Def2SVP td=(nstates=5)
 --------------------------------

 ----------------------------------------------------
 step_501_chromophore_16 TDDFT with wB97XD functional
 ----------------------------------------------------
 Symbolic Z-matrix:
 Charge =  0 Multiplicity = 1

                         Standard orientation:
 ---------------------------------------------------------------------
 Center     Atomic      Atomic             Coordinates (Angstroms)
 Number     Number       Type             X           Y           Z
 ---------------------------------------------------------------------
      1         12           0        5.852241    0.704775    0.372601
      2          6           0        4.018212   -2.307338    0.164280
      3          6           0        3.411725    2.326033   -1.140623
      4          6           0        8.058320    3.258628   -0.160197
      5          6           0        8.799128   -1.422863    1.053929
      6          7           0        3.953472    0.017706   -0.441647
      7          6           0        3.325908   -1.152323   -0.203987
      8          6           0        1.835900   -1.009881   -0.571626
      9          6           0        1.647426    0.424618   -0.948497
     10          6           0        3.098755    0.990002   -0.888130
     11          6           0        0.816889    0.608133   -2.284091
     12          6           0        0.763610   -1.535689    0.440343
     13          6           0       -0.636951   -0.815454    0.649382
     14          6           0       -1.902536   -1.682401    0.720902
     15          8           0       -2.277520   -2.460609    1.636505
     16          8           0       -2.634342   -1.576541   -0.465507
     17          7           0        5.652226    2.626445   -0.311671
     18          6           0        4.515935    3.116988   -0.914393
     19          6           0        4.744407    4.502429   -1.211793
     20          6           0        6.134548    4.838345   -0.976951
     21          6           0        6.685503    3.545362   -0.514608
     22          6           0        3.645701    5.270222   -1.827492
     23          6           0        6.882060    6.190123   -1.088130
     24          8           0        8.050781    6.244539   -0.889060
     25          6           0        6.117756    7.469302   -1.196284
     26          7           0        8.132053    0.841681    0.392979
     27          6           0        8.683676    2.068499    0.257170
     28          6           0       10.230945    2.043317    0.471189
     29          6           0       10.484868    0.565513    0.899120
     30          6           0        9.083786   -0.082457    0.772988
     31          6           0       11.060273    2.442205   -0.720423
     32          6           0       11.097361    0.300974    2.318931
     33          6           0       10.219028    0.396722    3.520365
     34          7           0        6.425043   -1.394183    0.603520
     35          6           0        7.589233   -2.035302    0.916743
     36          6           0        7.321489   -3.437959    1.121503
     37          6           0        5.942870   -3.632168    0.843309
     38          6           0        5.455943   -2.358134    0.486996
     39          6           0        8.304222   -4.526435    1.373748
     40          6           0        4.877777   -4.587854    0.735394
     41          8           0        4.802827   -5.792640    0.947861
     42          6           0        3.568413   -3.768987    0.338678
     43          6           0        2.820954   -4.377349   -0.835935
     44          8           0        3.266471   -4.445893   -1.952339
     45          8           0        1.563464   -4.781040   -0.416149
     46          6           0        0.777029   -5.415406   -1.474665
     47          6           0       -3.548218   -2.608054   -0.839733
     48          6           0       -4.942497   -2.112782   -0.750282
     49          6           0       -6.071425   -2.817105   -0.638570
     50          6           0       -6.171309   -4.264721   -0.389102
     51          6           0       -7.450357   -2.111149   -0.562610
     52          6           0       -7.732713   -0.905282   -1.512640
     53          6           0       -8.929956   -1.093248   -2.486484
     54          6           0      -10.022527   -0.148956   -2.166283
     55          6           0       -9.719650    1.331983   -2.600979
     56          6           0      -10.525700   -0.410544   -0.738571
     57          6           0      -11.976035   -0.920856   -0.799156
     58          6           0      -12.952274    0.139809   -1.259519
     59          6           0      -13.952158    0.677004   -0.104851
     60          6           0      -15.376834   -0.102073   -0.082908
     61          6           0      -14.060083    2.284641   -0.117444
     62          6           0      -12.866091    2.841631    0.740344
     63          6           0      -13.288609    3.563588    2.054000
     64          6           0      -12.716122    2.909144    3.424489
     65          6           0      -12.352588    4.037499    4.460906
     66          6           0      -13.695005    1.862963    4.033789
     67          1           0        2.593018    2.981179   -1.446780
     68          1           0        8.689478    4.137187   -0.307478
     69          1           0        9.646806   -2.039639    1.359370
     70          1           0        1.818215   -1.702211   -1.413343
     71          1           0        1.009975    0.879886   -0.190048
     72          1           0        0.421643   -0.357361   -2.599425
     73          1           0        1.447107    1.147052   -2.991491
     74          1           0       -0.099266    1.171381   -2.105610
     75          1           0        1.241616   -1.544728    1.420207
     76          1           0        0.513666   -2.581531    0.259980
     77          1           0       -0.708829   -0.121596   -0.188410
     78          1           0       -0.592911   -0.213619    1.557182
     79          1           0        4.124799    5.950736   -2.531026
     80          1           0        3.196913    5.871923   -1.038033
     81          1           0        2.819885    4.782834   -2.346005
     82          1           0        6.047179    7.604012   -2.274832
     83          1           0        6.628694    8.238790   -0.616746
     84          1           0        5.079744    7.417373   -0.867011
     85          1           0       10.529483    2.623992    1.344227
     86          1           0       11.059226   -0.092816    0.248094
     87          1           0       10.444425    2.882387   -1.505763
     88          1           0       11.553567    1.587736   -1.184476
     89          1           0       11.778047    3.170881   -0.344502
     90          1           0       11.930649    0.982457    2.490481
     91          1           0       11.629560   -0.649521    2.274924
     92          1           0        9.357645    1.026471    3.296960
     93          1           0       10.577583    0.846750    4.446384
     94          1           0        9.983930   -0.636696    3.777047
     95          1           0        9.060343   -4.649656    0.598914
     96          1           0        7.755517   -5.452629    1.201083
     97          1           0        8.746122   -4.451550    2.367721
     98          1           0        2.939962   -3.771484    1.229492
     99          1           0        0.092336   -4.567866   -1.478323
    100          1           0        0.376461   -6.304484   -0.988220
    101          1           0        1.346016   -5.588459   -2.388378
    102          1           0       -3.340909   -3.509366   -0.262238
    103          1           0       -3.418097   -2.758401   -1.911365
    104          1           0       -5.104329   -1.049871   -0.928331
    105          1           0       -5.187105   -4.724674   -0.303862
    106          1           0       -6.733178   -4.756397   -1.183898
    107          1           0       -6.661947   -4.544870    0.542578
    108          1           0       -7.709989   -1.752785    0.432770
    109          1           0       -8.249664   -2.822830   -0.768018
    110          1           0       -6.943122   -0.673171   -2.226840
    111          1           0       -7.890925    0.037202   -0.988999
    112          1           0       -9.305299   -2.116187   -2.488152
    113          1           0       -8.639613   -0.744136   -3.477730
    114          1           0      -10.739825   -0.498645   -2.909346
    115          1           0      -10.553645    1.838857   -3.085911
    116          1           0       -8.889717    1.438593   -3.299296
    117          1           0       -9.461937    1.846584   -1.674834
    118          1           0      -10.462125    0.518269   -0.171975
    119          1           0       -9.981224   -1.080754   -0.072875
    120          1           0      -12.273914   -1.291736    0.181584
    121          1           0      -12.192168   -1.771175   -1.446753
    122          1           0      -13.473009   -0.252723   -2.132944
    123          1           0      -12.418846    0.996623   -1.671712
    124          1           0      -13.503017    0.426384    0.856184
    125          1           0      -15.288331   -0.933792   -0.781951
    126          1           0      -16.183406    0.575576   -0.359682
    127          1           0      -15.471696   -0.576643    0.893667
    128          1           0      -14.977661    2.533713    0.416029
    129          1           0      -14.137151    2.644305   -1.144005
    130          1           0      -12.404579    3.555410    0.057599
    131          1           0      -12.156737    2.076568    1.055610
    132          1           0      -14.370403    3.571856    2.183922
    133          1           0      -13.003087    4.599788    1.872176
    134          1           0      -11.820702    2.308212    3.264716
    135          1           0      -12.734361    3.787519    5.450544
    136          1           0      -12.714986    5.040330    4.232998
    137          1           0      -11.267026    4.057769    4.563168
    138          1           0      -14.423238    1.506233    3.306115
    139          1           0      -14.187251    2.174679    4.955339
    140          1           0      -13.084362    0.967707    4.146304
 ---------------------------------------------------------------------

 SCF Done:  E(RwB97XD) =  -3007.83872832     A.U. after   20 cycles

 Excitation energies and oscillator strengths:

 Excited State   1:      Singlet-A      1.6442 eV  754.05 nm  f=0.3761  <S**2>=0.000
     245 -> 248        0.19369
     246 -> 247        0.68151
     245 <- 248        0.12007
 This state for optimization and/or second-order correction.
 Total Energy, E(TD-HF/TD-DFT) =  -3007.77830378
 Copying the excited state density for this state as the 1-particle RhoCI density.

 Excited State   2:      Singlet-A      2.1335 eV  581.13 nm  f=0.1106  <S**2>=0.000
     245 -> 247        0.63958
     246 -> 248       -0.28676

 Excited State   3:      Singlet-A      3.3471 eV  370.42 nm  f=0.0011  <S**2>=0.000
     242 -> 247       -0.21875
     244 -> 247        0.64930

 Excited State   4:      Singlet-A      3.4278 eV  361.70 nm  f=0.1241  <S**2>=0.000
     242 -> 247        0.51844
     244 -> 247        0.14158
     245 -> 247        0.11250
     246 -> 248        0.41231

 Excited State   5:      Singlet-A      3.6019 eV  344.22 nm  f=0.0063  <S**2>=0.000
     240 -> 247        0.12014
     241 -> 247        0.54645
     241 -> 249        0.30332
     241 -> 250        0.10259
     241 -> 251       -0.20813

 The electronic state is 1-A.
 Alpha  occ. eigenvalues --  -46.96490 -19.30148 -19.30032 -19.25426 -19.25118
 Alpha  occ. eigenvalues --  -19.24708 -19.23789 -14.46999 -14.46517 -14.44256
 Alpha  occ. eigenvalues --  -14.43539 -10.44609 -10.43123 -10.39797 -10.38932
 Alpha  occ. eigenvalues --  -10.35887 -10.35859 -10.35392 -10.35154 -10.35110
 Alpha  occ. eigenvalues --  -10.34880 -10.34483 -10.33637 -10.33180 -10.32968
 Alpha  occ. eigenvalues --  -10.32871 -10.32692 -10.32516 -10.32430 -10.32233
 Alpha  occ. eigenvalues --  -10.32202 -10.32026 -10.31932 -10.31799 -10.31504
 Alpha  occ. eigenvalues --  -10.31422 -10.31080 -10.30928 -10.30623 -10.30589
 Alpha  occ. eigenvalues --  -10.30532 -10.30521 -10.30422 -10.30395 -10.30184
 Alpha  occ. eigenvalues --  -10.30130 -10.29688 -10.29353 -10.29179 -10.29046
 Alpha  occ. eigenvalues --  -10.29040 -10.29024 -10.28982 -10.28938 -10.28910
 Alpha  occ. eigenvalues --  -10.28861 -10.28843 -10.28809 -10.28727 -10.28645
 Alpha  occ. eigenvalues --  -10.28399 -10.28351 -10.28308 -10.28250 -10.28248
 Alpha  occ. eigenvalues --  -10.28099  -3.22283  -1.95835  -1.95407  -1.95232
 Alpha  occ. eigenvalues --   -1.18622  -1.17853  -1.15233  -1.11551  -1.10902
 Alpha  occ. eigenvalues --   -1.09022  -1.06444  -1.05282  -1.04658  -1.04018
 Alpha  occ. eigenvalues --   -0.93738  -0.92698  -0.92144  -0.91314  -0.90854
 Alpha  occ. eigenvalues --   -0.90332  -0.89634  -0.89480  -0.89241  -0.88188
 Alpha  occ. eigenvalues --   -0.88104  -0.87440  -0.85959  -0.85693  -0.85319
 Alpha  occ. eigenvalues --   -0.84548  -0.84163  -0.83366  -0.82672  -0.82429
 Alpha  occ. eigenvalues --   -0.81451  -0.80430  -0.80324  -0.79134  -0.78029
 Alpha  occ. eigenvalues --   -0.77492  -0.77082  -0.76745  -0.76509  -0.75893
 Alpha  occ. eigenvalues --   -0.75688  -0.74473  -0.73825  -0.72929  -0.71420
 Alpha  occ. eigenvalues --   -0.70846  -0.70544  -0.69179  -0.68937  -0.67864
 Alpha  occ. eigenvalues --   -0.67270  -0.66935  -0.66343  -0.66182  -0.65303
 Alpha  occ. eigenvalues --   -0.65226  -0.64651  -0.63845  -0.62557  -0.62317
 Alpha  occ. eigenvalues --   -0.61992  -0.61678  -0.61054  -0.60612  -0.60159
 Alpha  occ. eigenvalues --   -0.59704  -0.59356  -0.57997  -0.57904  -0.57626
 Alpha  occ. eigenvalues --   -0.57127  -0.56950  -0.56837  -0.56389  -0.56178
 Alpha  occ. eigenvalues --   -0.55836  -0.55579  -0.55512  -0.55281  -0.54829
 Alpha  occ. eigenvalues --   -0.54517  -0.54400  -0.54189  -0.53847  -0.53566
 Alpha  occ. eigenvalues --   -0.53420  -0.53230  -0.53063  -0.52964  -0.52820
 Alpha  occ. eigenvalues --   -0.52430  -0.52317  -0.52111  -0.51827  -0.51610
 Alpha  occ. eigenvalues --   -0.51357  -0.51236  -0.51050  -0.50911  -0.50827
 Alpha  occ. eigenvalues --   -0.50724  -0.50450  -0.50218  -0.49871  -0.49824
 Alpha  occ. eigenvalues --   -0.49429  -0.49243  -0.49015  -0.48679  -0.48662
 Alpha  occ. eigenvalues --   -0.48310  -0.48040  -0.47954  -0.47612  -0.47594
 Alpha  occ. eigenvalues --   -0.47546  -0.47437  -0.47396  -0.46861  -0.46754
 Alpha  occ. eigenvalues --   -0.46583  -0.46562  -0.46291  -0.46104  -0.45764
 Alpha  occ. eigenvalues --   -0.45712  -0.45660  -0.45417  -0.45311  -0.45109
 Alpha  occ. eigenvalues --   -0.45053  -0.44658  -0.44457  -0.44194  -0.44091
 Alpha  occ. eigenvalues --   -0.43884  -0.43689  -0.43512  -0.43178  -0.42938
 Alpha  occ. eigenvalues --   -0.42673  -0.42300  -0.42203  -0.42136  -0.42039
 Alpha  occ. eigenvalues --   -0.41506  -0.41341  -0.40936  -0.40655  -0.40287
 Alpha  occ. eigenvalues --   -0.40109  -0.40028  -0.39694  -0.39526  -0.39246
 Alpha  occ. eigenvalues --   -0.39166  -0.38751  -0.38208  -0.38173  -0.38078
 Alpha  occ. eigenvalues --   -0.37908  -0.37247  -0.36764  -0.36377  -0.36001
 Alpha  occ. eigenvalues --   -0.35699  -0.35530  -0.35430  -0.33861  -0.33201
 Alpha  occ. eigenvalues --   -0.32748  -0.32152  -0.31780  -0.31636  -0.25898
 Alpha  occ. eigenvalues --   -0.23010
 Alpha virt. eigenvalues --   -0.07140   0.00114   0.02320   0.04150   0.04525
 Alpha virt. eigenvalues --    0.05251   0.07583   0.07945   0.08228   0.09742
 Alpha virt. eigenvalues --    0.11084   0.11329   0.11560   0.12034   0.12187

 Mulliken charges:
               1
     1  Mg   0.949522
     2  C   -0.025730
     3  C   -0.065521
     4  C   -0.063364
     5  C   -0.101543
     6  N   -0.370428
     7  C   -0.015619
     8  C   -0.037894
     9  C   -0.136231
    10  C    0.099952
    11  C    0.019872
    12  C    0.002221
    13  C   -0.012811
    14  C    0.241634
    15  O   -0.278857
    16  O   -0.373233
    17  N   -0.508431
    18  C    0.144586
    19  C   -0.141756
    20  C   -0.082232
    21  C    0.113163
    22  C    0.032848
    23  C    0.056730
    24  O   -0.198839
    25  C   -0.018015
    26  N   -0.306617
    27  C    0.065754
    28  C   -0.068913
    29  C   -0.048005
    30  C    0.007193
    31  C    0.036294
    32  C   -0.047756
    33  C   -0.031205
    34  N   -0.393401
    35  C    0.166161
    36  C   -0.184301
    37  C   -0.031002
    38  C    0.105982
    39  C    0.061844
    40  C    0.131596
    41  O   -0.208840
    42  C   -0.062738
    43  C    0.252017
    44  O   -0.228161
    45  O   -0.378280
    46  C    0.119603
    47  C    0.275992
    48  C   -0.140768
    49  C   -0.176005
    50  C    0.028958
    51  C    0.047783
    52  C   -0.062163
    53  C    0.004217
    54  C   -0.195145
    55  C   -0.000525
    56  C    0.030287
    57  C   -0.028542
    58  C    0.007250
    59  C   -0.199986
    60  C   -0.000202
    61  C    0.001555
    62  C   -0.044156
    63  C   -0.000459
    64  C   -0.225434
    65  C   -0.008931
    66  C   -0.007909
    67  H   -0.016985
    68  H    0.026661
    69  H   -0.004560
    70  H    0.050062
    71  H    0.049080
    72  H    0.044278
    73  H    0.050975
    74  H    0.035397
    75  H    0.037831
    76  H    0.048162
    77  H    0.037059
    78  H    0.063611
    79  H    0.037510
    80  H    0.055836
    81  H    0.058354
    82  H    0.064696
    83  H    0.074026
    84  H    0.037548
    85  H    0.040322
    86  H    0.035466
    87  H    0.044175
    88  H    0.035079
    89  H    0.041649
    90  H    0.024043
    91  H    0.022656
    92  H    0.035656
    93  H    0.033789
    94  H    0.037407
    95  H    0.045686
    96  H    0.051742
    97  H    0.053193
    98  H    0.073847
    99  H    0.047195
   100  H    0.071136
   101  H    0.086548
   102  H    0.054776
   103  H    0.047250
   104  H    0.024862
   105  H    0.015151
   106  H    0.042082
   107  H    0.046888
   108  H    0.047074
   109  H    0.007199
   110  H    0.020247
   111  H    0.016483
   112  H    0.020980
   113  H    0.007782
   114  H    0.019878
   115  H    0.043312
   116  H    0.023553
   117  H    0.027251
   118  H    0.004528
   119  H    0.016004
   120  H    0.008113
   121  H    0.015388
   122  H    0.013129
   123  H    0.002289
   124  H    0.013834
   125  H    0.019541
   126  H    0.040914
   127  H    0.030983
   128  H    0.011854
   129  H    0.031788
   130  H    0.024958
   131  H    0.033520
   132  H    0.019805
   133  H    0.023920
   134  H    0.029567
   135  H    0.017869
   136  H    0.036769
   137  H    0.030115
   138  H    0.022685
   139  H    0.042473
   140  H    0.022992
 Sum of Mulliken charges =  -0.00000

 Dipole moment (field-independent basis, Debye):
    X=             -2.0638    Y=              5.0946    Z=             -0.5999  Tot=              5.5294
 Quadrupole moment (field-independent basis, Debye-Ang):
   XX=           -386.3923   YY=           -416.8619   ZZ=           -403.9807
   XY=             14.2492   XZ=             25.8885   YZ=              4.8694

 Normal termination of Gaussian 16 at Thu May  5 00:59:46 2022.
