 Gaussian 16, Revision A.03,
 Gaussian 16:  ES64L-G16RevA.03 25-Dec-2016

 --------------------
 #p ZINDO=(nstates=5)
 --------------------

 -----------------------------
 step_501_chromophore_16 ZINDO
 -----------------------------
 Symbolic Z-matrix:
 Charge =  0 Multiplicity = 1

                         Standard orientation:
 ---------------------------------------------------------------------
 Center     Atomic      Atomic             Coordinates (Angstroms)
 Number     Number       Type             X           Y           Z
 ---------------------------------------------------------------------
      1         12           0        5.852241    0.704775    0.372601
      2          6           0        4.018212   -2.307338    0.164280
      3          6           0        3.411725    2.326033   -1.140623
      4          6           0        8.058320    3.258628   -0.160197
      5          6           0        8.799128   -1.422863    1.053929
      6          7           0        3.953472    0.017706   -0.441647
      7          6           0        3.325908   -1.152323   -0.203987
      8          6           0        1.835900   -1.009881   -0.571626
      9          6           0        1.647426    0.424618   -0.948497
     10          6           0        3.098755    0.990002   -0.888130
     11          6           0        0.816889    0.608133   -2.284091
     12          6           0        0.763610   -1.535689    0.440343
     13          6           0       -0.636951   -0.815454    0.649382
     14          6           0       -1.902536   -1.682401    0.720902
     15          8           0       -2.277520   -2.460609    1.636505
     16          8           0       -2.634342   -1.576541   -0.465507
     17          7           0        5.652226    2.626445   -0.311671
     18          6           0        4.515935    3.116988   -0.914393
     19          6           0        4.744407    4.502429   -1.211793
     20          6           0        6.134548    4.838345   -0.976951
     21          6           0        6.685503    3.545362   -0.514608
     22          6           0        3.645701    5.270222   -1.827492
     23          6           0        6.882060    6.190123   -1.088130
     24          8           0        8.050781    6.244539   -0.889060
     25          6           0        6.117756    7.469302   -1.196284
     26          7           0        8.132053    0.841681    0.392979
     27          6           0        8.683676    2.068499    0.257170
     28          6           0       10.230945    2.043317    0.471189
     29          6           0       10.484868    0.565513    0.899120
     30          6           0        9.083786   -0.082457    0.772988
     31          6           0       11.060273    2.442205   -0.720423
     32          6           0       11.097361    0.300974    2.318931
     33          6           0       10.219028    0.396722    3.520365
     34          7           0        6.425043   -1.394183    0.603520
     35          6           0        7.589233   -2.035302    0.916743
     36          6           0        7.321489   -3.437959    1.121503
     37          6           0        5.942870   -3.632168    0.843309
     38          6           0        5.455943   -2.358134    0.486996
     39          6           0        8.304222   -4.526435    1.373748
     40          6           0        4.877777   -4.587854    0.735394
     41          8           0        4.802827   -5.792640    0.947861
     42          6           0        3.568413   -3.768987    0.338678
     43          6           0        2.820954   -4.377349   -0.835935
     44          8           0        3.266471   -4.445893   -1.952339
     45          8           0        1.563464   -4.781040   -0.416149
     46          6           0        0.777029   -5.415406   -1.474665
     47          6           0       -3.548218   -2.608054   -0.839733
     48          6           0       -4.942497   -2.112782   -0.750282
     49          6           0       -6.071425   -2.817105   -0.638570
     50          6           0       -6.171309   -4.264721   -0.389102
     51          6           0       -7.450357   -2.111149   -0.562610
     52          6           0       -7.732713   -0.905282   -1.512640
     53          6           0       -8.929956   -1.093248   -2.486484
     54          6           0      -10.022527   -0.148956   -2.166283
     55          6           0       -9.719650    1.331983   -2.600979
     56          6           0      -10.525700   -0.410544   -0.738571
     57          6           0      -11.976035   -0.920856   -0.799156
     58          6           0      -12.952274    0.139809   -1.259519
     59          6           0      -13.952158    0.677004   -0.104851
     60          6           0      -15.376834   -0.102073   -0.082908
     61          6           0      -14.060083    2.284641   -0.117444
     62          6           0      -12.866091    2.841631    0.740344
     63          6           0      -13.288609    3.563588    2.054000
     64          6           0      -12.716122    2.909144    3.424489
     65          6           0      -12.352588    4.037499    4.460906
     66          6           0      -13.695005    1.862963    4.033789
     67          1           0        2.593018    2.981179   -1.446780
     68          1           0        8.689478    4.137187   -0.307478
     69          1           0        9.646806   -2.039639    1.359370
     70          1           0        1.818215   -1.702211   -1.413343
     71          1           0        1.009975    0.879886   -0.190048
     72          1           0        0.421643   -0.357361   -2.599425
     73          1           0        1.447107    1.147052   -2.991491
     74          1           0       -0.099266    1.171381   -2.105610
     75          1           0        1.241616   -1.544728    1.420207
     76          1           0        0.513666   -2.581531    0.259980
     77          1           0       -0.708829   -0.121596   -0.188410
     78          1           0       -0.592911   -0.213619    1.557182
     79          1           0        4.124799    5.950736   -2.531026
     80          1           0        3.196913    5.871923   -1.038033
     81          1           0        2.819885    4.782834   -2.346005
     82          1           0        6.047179    7.604012   -2.274832
     83          1           0        6.628694    8.238790   -0.616746
     84          1           0        5.079744    7.417373   -0.867011
     85          1           0       10.529483    2.623992    1.344227
     86          1           0       11.059226   -0.092816    0.248094
     87          1           0       10.444425    2.882387   -1.505763
     88          1           0       11.553567    1.587736   -1.184476
     89          1           0       11.778047    3.170881   -0.344502
     90          1           0       11.930649    0.982457    2.490481
     91          1           0       11.629560   -0.649521    2.274924
     92          1           0        9.357645    1.026471    3.296960
     93          1           0       10.577583    0.846750    4.446384
     94          1           0        9.983930   -0.636696    3.777047
     95          1           0        9.060343   -4.649656    0.598914
     96          1           0        7.755517   -5.452629    1.201083
     97          1           0        8.746122   -4.451550    2.367721
     98          1           0        2.939962   -3.771484    1.229492
     99          1           0        0.092336   -4.567866   -1.478323
    100          1           0        0.376461   -6.304484   -0.988220
    101          1           0        1.346016   -5.588459   -2.388378
    102          1           0       -3.340909   -3.509366   -0.262238
    103          1           0       -3.418097   -2.758401   -1.911365
    104          1           0       -5.104329   -1.049871   -0.928331
    105          1           0       -5.187105   -4.724674   -0.303862
    106          1           0       -6.733178   -4.756397   -1.183898
    107          1           0       -6.661947   -4.544870    0.542578
    108          1           0       -7.709989   -1.752785    0.432770
    109          1           0       -8.249664   -2.822830   -0.768018
    110          1           0       -6.943122   -0.673171   -2.226840
    111          1           0       -7.890925    0.037202   -0.988999
    112          1           0       -9.305299   -2.116187   -2.488152
    113          1           0       -8.639613   -0.744136   -3.477730
    114          1           0      -10.739825   -0.498645   -2.909346
    115          1           0      -10.553645    1.838857   -3.085911
    116          1           0       -8.889717    1.438593   -3.299296
    117          1           0       -9.461937    1.846584   -1.674834
    118          1           0      -10.462125    0.518269   -0.171975
    119          1           0       -9.981224   -1.080754   -0.072875
    120          1           0      -12.273914   -1.291736    0.181584
    121          1           0      -12.192168   -1.771175   -1.446753
    122          1           0      -13.473009   -0.252723   -2.132944
    123          1           0      -12.418846    0.996623   -1.671712
    124          1           0      -13.503017    0.426384    0.856184
    125          1           0      -15.288331   -0.933792   -0.781951
    126          1           0      -16.183406    0.575576   -0.359682
    127          1           0      -15.471696   -0.576643    0.893667
    128          1           0      -14.977661    2.533713    0.416029
    129          1           0      -14.137151    2.644305   -1.144005
    130          1           0      -12.404579    3.555410    0.057599
    131          1           0      -12.156737    2.076568    1.055610
    132          1           0      -14.370403    3.571856    2.183922
    133          1           0      -13.003087    4.599788    1.872176
    134          1           0      -11.820702    2.308212    3.264716
    135          1           0      -12.734361    3.787519    5.450544
    136          1           0      -12.714986    5.040330    4.232998
    137          1           0      -11.267026    4.057769    4.563168
    138          1           0      -14.423238    1.506233    3.306115
    139          1           0      -14.187251    2.174679    4.955339
    140          1           0      -13.084362    0.967707    4.146304
 ---------------------------------------------------------------------

 SCF Done:  E(RZINDO/S) =  -474.141895562     A.U. after   20 cycles

 Excitation energies and oscillator strengths:

 Excited State   1:      Singlet-A      1.2367 eV 1002.53 nm  f=0.5993  <S**2>=0.000
     175 ->178         0.20476
     176 ->177         0.65930
 This state for optimization and/or second-order correction.
 Total Energy, E(CIS/TDA) =  -474.096447075
 Copying the excited state density for this state as the 1-particle RhoCI density.

 Excited State   2:      Singlet-A      1.8912 eV  655.59 nm  f=0.0417  <S**2>=0.000
     175 ->177         0.54946
     176 ->178        -0.42176

 Excited State   3:      Singlet-A      2.9096 eV  426.12 nm  f=0.0333  <S**2>=0.000
     176 ->179         0.30570
     176 ->180         0.55693
     176 ->181        -0.27172

 Excited State   4:      Singlet-A      2.9866 eV  415.13 nm  f=0.8797  <S**2>=0.000
     169 ->177         0.14244
     169 ->179        -0.15085
     169 ->182         0.13634
     171 ->177         0.12019
     175 ->177         0.33596
     176 ->178         0.47010
     176 ->179        -0.17293

 Excited State   5:      Singlet-A      3.0350 eV  408.51 nm  f=0.2016  <S**2>=0.000
     169 ->177         0.29783
     169 ->178         0.11005
     169 ->179        -0.32645
     169 ->182         0.30034
     169 ->185        -0.15191
     169 ->187         0.13979
     169 ->200         0.10460
     175 ->177        -0.15821
     176 ->178        -0.21354

 The electronic state is 1-A.
 Alpha  occ. eigenvalues --   -1.82925  -1.80230  -1.78834  -1.72761  -1.72321
 Alpha  occ. eigenvalues --   -1.70772  -1.67558  -1.62079  -1.58534  -1.58258
 Alpha  occ. eigenvalues --   -1.52905  -1.49930  -1.48202  -1.47730  -1.46582
 Alpha  occ. eigenvalues --   -1.44805  -1.43798  -1.40493  -1.40032  -1.38431
 Alpha  occ. eigenvalues --   -1.35571  -1.33897  -1.31719  -1.30422  -1.28886
 Alpha  occ. eigenvalues --   -1.27113  -1.25059  -1.23267  -1.21887  -1.18816
 Alpha  occ. eigenvalues --   -1.17290  -1.15402  -1.15071  -1.14273  -1.13137
 Alpha  occ. eigenvalues --   -1.11882  -1.10909  -1.10268  -1.04363  -1.03507
 Alpha  occ. eigenvalues --   -1.02961  -1.00920  -1.00118  -0.97998  -0.97864
 Alpha  occ. eigenvalues --   -0.95801  -0.95162  -0.93885  -0.93064  -0.92464
 Alpha  occ. eigenvalues --   -0.91739  -0.90694  -0.88555  -0.87214  -0.85467
 Alpha  occ. eigenvalues --   -0.84486  -0.83092  -0.82560  -0.82385  -0.80384
 Alpha  occ. eigenvalues --   -0.79363  -0.78907  -0.78521  -0.77734  -0.76641
 Alpha  occ. eigenvalues --   -0.75044  -0.74664  -0.74333  -0.74067  -0.72811
 Alpha  occ. eigenvalues --   -0.72710  -0.72276  -0.71746  -0.71402  -0.70687
 Alpha  occ. eigenvalues --   -0.69627  -0.69292  -0.68840  -0.68102  -0.67791
 Alpha  occ. eigenvalues --   -0.67527  -0.66987  -0.66721  -0.66404  -0.65988
 Alpha  occ. eigenvalues --   -0.65730  -0.65139  -0.64718  -0.64214  -0.63911
 Alpha  occ. eigenvalues --   -0.63327  -0.63232  -0.62770  -0.62374  -0.62239
 Alpha  occ. eigenvalues --   -0.61707  -0.61443  -0.60877  -0.60581  -0.60187
 Alpha  occ. eigenvalues --   -0.60027  -0.59151  -0.59035  -0.58777  -0.58517
 Alpha  occ. eigenvalues --   -0.58425  -0.57824  -0.57721  -0.57258  -0.56728
 Alpha  occ. eigenvalues --   -0.56324  -0.55871  -0.55036  -0.54787  -0.54727
 Alpha  occ. eigenvalues --   -0.54421  -0.53750  -0.53279  -0.53084  -0.52832
 Alpha  occ. eigenvalues --   -0.52395  -0.52040  -0.51455  -0.51085  -0.50951
 Alpha  occ. eigenvalues --   -0.50829  -0.50673  -0.50578  -0.50457  -0.50181
 Alpha  occ. eigenvalues --   -0.49440  -0.49358  -0.49264  -0.49140  -0.48642
 Alpha  occ. eigenvalues --   -0.48554  -0.48496  -0.48131  -0.47706  -0.47515
 Alpha  occ. eigenvalues --   -0.47393  -0.47116  -0.46821  -0.46496  -0.46372
 Alpha  occ. eigenvalues --   -0.46214  -0.46064  -0.45850  -0.45778  -0.45372
 Alpha  occ. eigenvalues --   -0.45321  -0.45105  -0.45041  -0.44803  -0.44271
 Alpha  occ. eigenvalues --   -0.43822  -0.43209  -0.42597  -0.42417  -0.42100
 Alpha  occ. eigenvalues --   -0.41442  -0.41323  -0.40459  -0.39569  -0.39106
 Alpha  occ. eigenvalues --   -0.38271  -0.37153  -0.35587  -0.35045  -0.35036
 Alpha  occ. eigenvalues --   -0.32925  -0.32658  -0.32394  -0.32094  -0.26578
 Alpha  occ. eigenvalues --   -0.21788
 Alpha virt. eigenvalues --   -0.08627  -0.02226  -0.00382   0.00501   0.00599
 Alpha virt. eigenvalues --    0.01417   0.02687   0.02715   0.04710   0.05051
 Alpha virt. eigenvalues --    0.06116   0.06883   0.07078   0.07837   0.08226

 Mulliken charges:
               1
     1  Mg   0.439180
     2  C   -0.055433
     3  C   -0.072160
     4  C   -0.068860
     5  C   -0.051374
     6  N   -0.275868
     7  C    0.126788
     8  C    0.011672
     9  C    0.001452
    10  C    0.126685
    11  C   -0.057332
    12  C   -0.027255
    13  C    0.006734
    14  C    0.468509
    15  O   -0.516352
    16  O   -0.283022
    17  N   -0.334998
    18  C    0.112561
    19  C    0.011848
    20  C   -0.056467
    21  C    0.127858
    22  C   -0.041947
    23  C    0.340133
    24  O   -0.505222
    25  C   -0.028968
    26  N   -0.271046
    27  C    0.138812
    28  C    0.012614
    29  C   -0.002911
    30  C    0.114628
    31  C   -0.045943
    32  C   -0.022404
    33  C   -0.051651
    34  N   -0.335239
    35  C    0.110492
    36  C    0.031834
    37  C   -0.052518
    38  C    0.107949
    39  C   -0.042646
    40  C    0.339694
    41  O   -0.519083
    42  C    0.050777
    43  C    0.487533
    44  O   -0.507288
    45  O   -0.277325
    46  C    0.061267
    47  C    0.117951
    48  C   -0.068857
    49  C   -0.009238
    50  C   -0.038755
    51  C   -0.025756
    52  C   -0.042534
    53  C   -0.033936
    54  C   -0.005014
    55  C   -0.057641
    56  C   -0.024395
    57  C   -0.032219
    58  C   -0.036501
    59  C   -0.035094
    60  C   -0.066631
    61  C   -0.039756
    62  C   -0.039096
    63  C   -0.039757
    64  C   -0.016117
    65  C   -0.060513
    66  C   -0.061174
    67  H    0.014176
    68  H    0.045437
    69  H    0.025851
    70  H    0.036475
    71  H    0.030443
    72  H    0.027589
    73  H    0.031585
    74  H    0.015579
    75  H    0.021011
    76  H    0.029912
    77  H    0.034748
    78  H    0.041804
    79  H    0.016985
    80  H    0.028165
    81  H    0.033701
    82  H    0.045174
    83  H    0.047293
    84  H    0.023839
    85  H    0.034062
    86  H    0.032582
    87  H    0.026076
    88  H    0.021911
    89  H    0.022529
    90  H    0.007989
    91  H    0.014400
    92  H    0.021460
    93  H    0.018011
    94  H    0.019399
    95  H    0.030603
    96  H    0.028965
    97  H    0.035912
    98  H    0.049509
    99  H    0.040412
   100  H    0.043971
   101  H    0.065725
   102  H    0.060372
   103  H    0.039145
   104  H    0.031234
   105  H    0.014644
   106  H    0.026302
   107  H    0.028261
   108  H    0.029503
   109  H    0.016420
   110  H    0.013101
   111  H    0.021189
   112  H    0.021675
   113  H    0.010270
   114  H    0.006665
   115  H    0.020466
   116  H    0.019890
   117  H    0.017130
   118  H    0.014404
   119  H    0.021586
   120  H    0.008003
   121  H    0.018722
   122  H    0.015422
   123  H    0.015140
   124  H    0.020215
   125  H    0.017494
   126  H    0.029476
   127  H    0.022253
   128  H    0.016973
   129  H    0.028710
   130  H    0.014874
   131  H    0.029161
   132  H    0.020780
   133  H    0.018134
   134  H    0.024743
   135  H    0.015366
   136  H    0.023943
   137  H    0.014779
   138  H    0.015982
   139  H    0.029705
   140  H    0.013913
 Sum of Mulliken charges =  -0.00000

 Dipole moment (field-independent basis, Debye):
    X=             -3.2019    Y=              6.7197    Z=             -0.8010  Tot=              7.4865
 N-N= 4.223540909833D+03 E-N= 0.000000000000D+00  KE=-9.121257204177D+03
 Leave Link  601 at Thu May  5 01:20:36 2022, MaxMem=  6710886400 cpu:               0.8 elap:               0.0
 (Enter /sw/apps/gaussian-16.0/g16/l9999.exe)
 1\1\GINC-BP1-COMPUTE211\SP\RZINDO CIS\STO-3G\C55H74Mg1N4O6\OF15641\05-
 May-2022\0\\#p ZINDO=(nstates=5)\\step_501_chromophore_16 ZINDO\\0,1\M
 g,0,40.804,41.484,27.158\C,0,39.938,43.966,29.518\C,0,41.671,39.435,29
 .592\C,0,42.412,39.591,24.812\C,0,40.8,44.208,24.657\N,0,40.84,41.747,
 29.319\C,0,40.234,42.708,30.046\C,0,40.114,42.235,31.508\C,0,40.625,40
 .83,31.522\C,0,41.128,40.632,30.06\C,0,41.629,40.55,32.714\C,0,38.74,4
 2.407,32.238\C,0,38.2,41.354,33.298\C,0,37.588,41.879,34.605\O,0,36.49

 Normal termination of Gaussian 16 at Thu May  5 01:20:36 2022.
