 Gaussian 16, Revision A.03,
 Gaussian 16:  ES64L-G16RevA.03 25-Dec-2016

 ------------------------------
 #p blyp/Def2SVP td=(nstates=5)
 ------------------------------

 --------------------------------------------------
 step_1201_chromophore_2 TDDFT with blyp functional
 --------------------------------------------------
 Symbolic Z-matrix:
 Charge =  0 Multiplicity = 1

                         Standard orientation:
 ---------------------------------------------------------------------
 Center     Atomic      Atomic             Coordinates (Angstroms)
 Number     Number       Type             X           Y           Z
 ---------------------------------------------------------------------
      1         12           0        4.786143    1.175198   -0.598187
      2          6           0        4.867169   -2.259059   -0.691379
      3          6           0        2.218988    1.060111   -2.940631
      4          6           0        3.981943    4.311997    0.235896
      5          6           0        6.825999    0.974242    2.305603
      6          7           0        3.612560   -0.434613   -1.549088
      7          6           0        3.862866   -1.775336   -1.546955
      8          6           0        2.923702   -2.576918   -2.454887
      9          6           0        2.256671   -1.466892   -3.300124
     10          6           0        2.772609   -0.159081   -2.602376
     11          6           0        2.508655   -1.527125   -4.865306
     12          6           0        1.941853   -3.573471   -1.667119
     13          6           0        1.642505   -3.435938   -0.155251
     14          6           0        0.189672   -3.711321    0.439196
     15          8           0       -0.763654   -3.928729   -0.263696
     16          8           0        0.136889   -3.659859    1.847868
     17          7           0        3.506669    2.524743   -1.414126
     18          6           0        2.541383    2.305332   -2.353851
     19          6           0        1.969339    3.531620   -2.747082
     20          6           0        2.516781    4.530971   -1.933192
     21          6           0        3.336952    3.831321   -0.959740
     22          6           0        1.013204    3.554139   -3.836474
     23          6           0        2.293477    6.039608   -2.008631
     24          8           0        1.563222    6.491869   -2.875559
     25          6           0        2.826110    7.004310   -0.989611
     26          7           0        5.236599    2.400335    1.098630
     27          6           0        4.903527    3.734268    1.072572
     28          6           0        5.544874    4.497555    2.243623
     29          6           0        6.365353    3.365845    2.955438
     30          6           0        6.172921    2.173237    2.062718
     31          6           0        6.407428    5.765157    1.745133
     32          6           0        6.045734    3.129352    4.468825
     33          6           0        7.313321    3.313985    5.325856
     34          7           0        5.761349   -0.253163    0.529063
     35          6           0        6.567304   -0.217885    1.677371
     36          6           0        7.059881   -1.580019    1.932832
     37          6           0        6.438293   -2.358693    1.047743
     38          6           0        5.644222   -1.536454    0.203751
     39          6           0        8.108673   -1.965997    2.972855
     40          6           0        6.274381   -3.725135    0.613798
     41          8           0        6.784376   -4.765606    1.152143
     42          6           0        5.351198   -3.744341   -0.591159
     43          6           0        6.183116   -4.206876   -1.800338
     44          8           0        6.698000   -5.314654   -2.016295
     45          8           0        6.150891   -3.238626   -2.792716
     46          6           0        6.650587   -3.526052   -4.190508
     47          6           0       -1.167307   -3.952884    2.513592
     48          6           0       -2.056976   -2.713536    2.287971
     49          6           0       -3.137268   -2.349960    2.958462
     50          6           0       -3.739499   -3.075125    4.183919
     51          6           0       -4.020744   -1.287023    2.349505
     52          6           0       -4.727453   -1.764823    0.991857
     53          6           0       -6.234546   -1.611310    0.808912
     54          6           0       -6.711984   -0.157365    1.113572
     55          6           0       -7.698656   -0.174098    2.293143
     56          6           0       -7.284460    0.561932   -0.096750
     57          6           0       -8.575826    0.060777   -0.672159
     58          6           0       -9.729885    1.093131   -0.793658
     59          6           0      -11.086764    0.465939   -0.980114
     60          6           0      -11.544805    0.558397   -2.462707
     61          6           0      -12.207023    1.118956   -0.092723
     62          6           0      -13.263792    0.091831    0.284555
     63          6           0      -14.536171    0.803725    0.837290
     64          6           0      -15.756761    0.418063    0.036934
     65          6           0      -16.757860    1.607721   -0.243725
     66          6           0      -16.594703   -0.682447    0.729662
     67          1           0        1.404390    0.993877   -3.664572
     68          1           0        3.969071    5.342352    0.596610
     69          1           0        7.440241    1.016812    3.208157
     70          1           0        3.553352   -3.219514   -3.070000
     71          1           0        1.182192   -1.564130   -3.145230
     72          1           0        2.209701   -2.530141   -5.171253
     73          1           0        3.539745   -1.313600   -5.147521
     74          1           0        1.839356   -0.825907   -5.364839
     75          1           0        2.280819   -4.588448   -1.873082
     76          1           0        0.923341   -3.483903   -2.043551
     77          1           0        2.039430   -2.505215    0.249834
     78          1           0        2.335792   -4.073781    0.392482
     79          1           0        0.930594    4.507096   -4.359115
     80          1           0        0.135759    3.115309   -3.360376
     81          1           0        1.337050    2.863329   -4.614465
     82          1           0        3.904816    6.918175   -0.857448
     83          1           0        2.360149    6.770578   -0.031866
     84          1           0        2.556338    8.010334   -1.309021
     85          1           0        4.748027    4.961440    2.823996
     86          1           0        7.419795    3.589719    2.791335
     87          1           0        5.755984    6.625301    1.587115
     88          1           0        6.984431    5.565828    0.842420
     89          1           0        7.162465    6.021002    2.488187
     90          1           0        5.710054    2.103740    4.621164
     91          1           0        5.193109    3.752351    4.736376
     92          1           0        8.150402    3.763500    4.791212
     93          1           0        7.673451    2.337034    5.648315
     94          1           0        7.086418    3.906142    6.211933
     95          1           0        9.134551   -1.752474    2.673941
     96          1           0        8.076129   -3.042038    3.141774
     97          1           0        7.933967   -1.469902    3.927268
     98          1           0        4.606862   -4.506617   -0.362653
     99          1           0        6.077214   -4.374436   -4.562615
    100          1           0        7.710023   -3.776764   -4.264670
    101          1           0        6.427502   -2.732866   -4.903376
    102          1           0       -0.978960   -4.084337    3.579848
    103          1           0       -1.481216   -4.906936    2.088880
    104          1           0       -1.693083   -2.039832    1.512060
    105          1           0       -4.776004   -3.394892    4.082103
    106          1           0       -3.795427   -2.406066    5.041943
    107          1           0       -3.130206   -3.963240    4.354381
    108          1           0       -3.341516   -0.467326    2.115267
    109          1           0       -4.675225   -0.836476    3.095818
    110          1           0       -4.496724   -2.815070    0.813940
    111          1           0       -4.313141   -1.140414    0.199672
    112          1           0       -6.727897   -2.255051    1.537740
    113          1           0       -6.526152   -2.015253   -0.160730
    114          1           0       -5.861893    0.409400    1.493823
    115          1           0       -8.595581   -0.762277    2.101248
    116          1           0       -8.096262    0.828784    2.447346
    117          1           0       -7.158014   -0.431074    3.204873
    118          1           0       -6.517227    0.442965   -0.861771
    119          1           0       -7.457747    1.618005    0.108509
    120          1           0       -9.007978   -0.800779   -0.163813
    121          1           0       -8.383950   -0.507496   -1.581978
    122          1           0       -9.439671    1.797229   -1.573879
    123          1           0       -9.745996    1.558352    0.191735
    124          1           0      -11.050828   -0.560399   -0.614650
    125          1           0      -11.709501   -0.486931   -2.723428
    126          1           0      -10.762503    0.874371   -3.153429
    127          1           0      -12.430891    1.175253   -2.608711
    128          1           0      -12.643455    1.945955   -0.652932
    129          1           0      -11.816238    1.573040    0.818103
    130          1           0      -13.055005   -0.504622    1.172364
    131          1           0      -13.521515   -0.653636   -0.467817
    132          1           0      -14.367408    1.878224    0.766879
    133          1           0      -14.625530    0.560220    1.896472
    134          1           0      -15.431203   -0.038752   -0.898642
    135          1           0      -16.785164    1.943923   -1.280150
    136          1           0      -16.370751    2.508763    0.232161
    137          1           0      -17.750226    1.334508    0.114981
    138          1           0      -16.994504   -1.491268    0.119209
    139          1           0      -17.314512   -0.272201    1.437805
    140          1           0      -15.904413   -1.187674    1.404438
 ---------------------------------------------------------------------

 SCF Done:  E(RB-LYP) =  -3007.38359566     A.U. after   21 cycles

 Excitation energies and oscillator strengths:

 Excited State   1:      Singlet-A      1.7970 eV  689.95 nm  f=0.2622  <S**2>=0.000
     243 -> 247        0.16207
     245 -> 247       -0.14603
     245 -> 248       -0.16749
     246 -> 247        0.65730
     246 <- 247       -0.14489
 This state for optimization and/or second-order correction.
 Total Energy, E(TD-HF/TD-DFT) =  -3007.31755716
 Copying the excited state density for this state as the 1-particle RhoCI density.

 Excited State   2:      Singlet-A      1.8564 eV  667.89 nm  f=0.0184  <S**2>=0.000
     243 -> 247       -0.17745
     244 -> 247        0.62692
     245 -> 247        0.22632
     246 -> 247        0.14153

 Excited State   3:      Singlet-A      1.8766 eV  660.70 nm  f=0.0405  <S**2>=0.000
     243 -> 247        0.42520
     244 -> 247        0.31903
     245 -> 247       -0.42198
     246 -> 247       -0.16580

 Excited State   4:      Singlet-A      2.1009 eV  590.14 nm  f=0.0324  <S**2>=0.000
     243 -> 247        0.48853
     245 -> 247        0.41530
     246 -> 248        0.26146

 Excited State   5:      Singlet-A      2.3580 eV  525.81 nm  f=0.0002  <S**2>=0.000
     241 -> 247        0.70290

 The electronic state is 1-A.
 Alpha  occ. eigenvalues --  -46.26900 -18.82555 -18.81293 -18.77464 -18.76931
 Alpha  occ. eigenvalues --  -18.75467 -18.75094 -14.03596 -14.02814 -14.01100
 Alpha  occ. eigenvalues --  -14.01022 -10.04968 -10.04797  -9.99598  -9.99529
 Alpha  occ. eigenvalues --   -9.99071  -9.98593  -9.96862  -9.96341  -9.96266
 Alpha  occ. eigenvalues --   -9.96229  -9.96121  -9.95798  -9.95441  -9.94713
 Alpha  occ. eigenvalues --   -9.94707  -9.94663  -9.94597  -9.94377  -9.93975
 Alpha  occ. eigenvalues --   -9.93920  -9.93807  -9.93606  -9.93582  -9.93376
 Alpha  occ. eigenvalues --   -9.93331  -9.93269  -9.92740  -9.92623  -9.92581
 Alpha  occ. eigenvalues --   -9.92548  -9.92526  -9.92420  -9.92391  -9.92337
 Alpha  occ. eigenvalues --   -9.92124  -9.91963  -9.91904  -9.91645  -9.91553
 Alpha  occ. eigenvalues --   -9.91502  -9.91460  -9.91424  -9.91294  -9.91046
 Alpha  occ. eigenvalues --   -9.90878  -9.90857  -9.90776  -9.90659  -9.90650
 Alpha  occ. eigenvalues --   -9.90496  -9.90489  -9.90488  -9.90440  -9.90389
 Alpha  occ. eigenvalues --   -9.90363  -2.91695  -1.72076  -1.71611  -1.71396
 Alpha  occ. eigenvalues --   -0.96865  -0.96738  -0.91410  -0.89893  -0.88882
 Alpha  occ. eigenvalues --   -0.88419  -0.86896  -0.85961  -0.85815  -0.84989
 Alpha  occ. eigenvalues --   -0.75926  -0.73570  -0.73010  -0.72814  -0.72219
 Alpha  occ. eigenvalues --   -0.72059  -0.71978  -0.71362  -0.70888  -0.70750
 Alpha  occ. eigenvalues --   -0.69986  -0.68783  -0.68046  -0.67785  -0.67215
 Alpha  occ. eigenvalues --   -0.66221  -0.65986  -0.65413  -0.65012  -0.64461
 Alpha  occ. eigenvalues --   -0.63730  -0.62847  -0.62481  -0.62097  -0.61559
 Alpha  occ. eigenvalues --   -0.60956  -0.60091  -0.59616  -0.59511  -0.58930
 Alpha  occ. eigenvalues --   -0.58452  -0.58062  -0.57048  -0.55783  -0.55209
 Alpha  occ. eigenvalues --   -0.54342  -0.54280  -0.52700  -0.52216  -0.52107
 Alpha  occ. eigenvalues --   -0.51568  -0.51104  -0.50942  -0.50749  -0.49933
 Alpha  occ. eigenvalues --   -0.49919  -0.48881  -0.48332  -0.47549  -0.46527
 Alpha  occ. eigenvalues --   -0.46159  -0.45892  -0.45463  -0.44695  -0.44391
 Alpha  occ. eigenvalues --   -0.44308  -0.43616  -0.43340  -0.42812  -0.42209
 Alpha  occ. eigenvalues --   -0.42112  -0.41673  -0.41347  -0.41300  -0.41156
 Alpha  occ. eigenvalues --   -0.40685  -0.40590  -0.40340  -0.40214  -0.40126
 Alpha  occ. eigenvalues --   -0.39852  -0.39663  -0.39522  -0.39401  -0.39284
 Alpha  occ. eigenvalues --   -0.39080  -0.38820  -0.38773  -0.38514  -0.38315
 Alpha  occ. eigenvalues --   -0.38054  -0.37831  -0.37652  -0.37548  -0.37492
 Alpha  occ. eigenvalues --   -0.37097  -0.36950  -0.36871  -0.36659  -0.36626
 Alpha  occ. eigenvalues --   -0.36385  -0.36156  -0.35884  -0.35669  -0.35487
 Alpha  occ. eigenvalues --   -0.35380  -0.35080  -0.35060  -0.34935  -0.34870
 Alpha  occ. eigenvalues --   -0.34688  -0.34310  -0.34187  -0.33977  -0.33629
 Alpha  occ. eigenvalues --   -0.33568  -0.33441  -0.33163  -0.33070  -0.32863
 Alpha  occ. eigenvalues --   -0.32857  -0.32799  -0.32678  -0.32513  -0.32402
 Alpha  occ. eigenvalues --   -0.32235  -0.31953  -0.31942  -0.31760  -0.31571
 Alpha  occ. eigenvalues --   -0.31450  -0.31365  -0.31130  -0.30992  -0.30741
 Alpha  occ. eigenvalues --   -0.30607  -0.30323  -0.30129  -0.30100  -0.30018
 Alpha  occ. eigenvalues --   -0.29928  -0.29475  -0.29246  -0.29147  -0.29052
 Alpha  occ. eigenvalues --   -0.28816  -0.28774  -0.28314  -0.28160  -0.28000
 Alpha  occ. eigenvalues --   -0.27588  -0.27442  -0.26937  -0.26760  -0.26727
 Alpha  occ. eigenvalues --   -0.26252  -0.25935  -0.25904  -0.25333  -0.25292
 Alpha  occ. eigenvalues --   -0.25189  -0.24774  -0.24535  -0.24035  -0.23889
 Alpha  occ. eigenvalues --   -0.23597  -0.22886  -0.22421  -0.21762  -0.21204
 Alpha  occ. eigenvalues --   -0.20169  -0.20003  -0.18520  -0.18266  -0.17528
 Alpha  occ. eigenvalues --   -0.15722
 Alpha virt. eigenvalues --   -0.11503  -0.07131  -0.06579  -0.04782  -0.03581
 Alpha virt. eigenvalues --   -0.03358  -0.02363  -0.02138  -0.01748   0.00130
 Alpha virt. eigenvalues --    0.01036   0.01413   0.02018   0.02206   0.02719

 Mulliken charges:
               1
     1  Mg   0.710534
     2  C   -0.012749
     3  C   -0.123908
     4  C   -0.005866
     5  C   -0.098782
     6  N   -0.224224
     7  C   -0.114147
     8  C    0.115978
     9  C   -0.008675
    10  C    0.064764
    11  C    0.110205
    12  C    0.102476
    13  C    0.060988
    14  C    0.116021
    15  O   -0.167856
    16  O   -0.313335
    17  N   -0.322678
    18  C    0.169217
    19  C   -0.159202
    20  C    0.046566
    21  C    0.144576
    22  C    0.215981
    23  C   -0.107349
    24  O   -0.157767
    25  C    0.145891
    26  N   -0.225829
    27  C   -0.039699
    28  C   -0.007311
    29  C    0.086058
    30  C   -0.027822
    31  C    0.089914
    32  C    0.113725
    33  C    0.053836
    34  N   -0.255834
    35  C    0.142455
    36  C   -0.198949
    37  C    0.161975
    38  C    0.109522
    39  C    0.163069
    40  C   -0.069614
    41  O   -0.175143
    42  C    0.041587
    43  C    0.150384
    44  O   -0.173848
    45  O   -0.292162
    46  C    0.217685
    47  C    0.308353
    48  C   -0.081816
    49  C   -0.153561
    50  C    0.135515
    51  C    0.126262
    52  C    0.064535
    53  C    0.123492
    54  C   -0.068024
    55  C    0.093992
    56  C    0.165110
    57  C    0.013755
    58  C    0.143346
    59  C   -0.075605
    60  C    0.121269
    61  C    0.091927
    62  C    0.048991
    63  C    0.112917
    64  C   -0.097768
    65  C    0.112538
    66  C    0.097346
    67  H   -0.054583
    68  H   -0.093359
    69  H   -0.070501
    70  H   -0.044798
    71  H   -0.018779
    72  H   -0.002759
    73  H   -0.002062
    74  H   -0.004112
    75  H   -0.011444
    76  H   -0.012413
    77  H    0.011894
    78  H   -0.009810
    79  H    0.005888
    80  H    0.001643
    81  H   -0.017666
    82  H    0.005795
    83  H    0.016816
    84  H   -0.008708
    85  H   -0.015006
    86  H   -0.029163
    87  H    0.005743
    88  H   -0.007895
    89  H   -0.009147
    90  H   -0.012236
    91  H   -0.019176
    92  H   -0.005971
    93  H   -0.002593
    94  H   -0.005279
    95  H    0.003218
    96  H    0.004438
    97  H   -0.010500
    98  H    0.019517
    99  H    0.011729
   100  H    0.030509
   101  H    0.018107
   102  H    0.011575
   103  H    0.012583
   104  H   -0.022681
   105  H   -0.005240
   106  H   -0.000665
   107  H   -0.018869
   108  H   -0.026377
   109  H   -0.037251
   110  H   -0.011544
   111  H   -0.025230
   112  H   -0.050356
   113  H   -0.030313
   114  H   -0.038947
   115  H   -0.011514
   116  H   -0.033504
   117  H   -0.016977
   118  H   -0.042875
   119  H   -0.038663
   120  H   -0.053728
   121  H   -0.052484
   122  H   -0.023344
   123  H   -0.044769
   124  H   -0.032933
   125  H   -0.019437
   126  H   -0.020383
   127  H   -0.006133
   128  H   -0.030149
   129  H   -0.036117
   130  H   -0.035102
   131  H   -0.024700
   132  H   -0.037725
   133  H   -0.035410
   134  H   -0.031217
   135  H   -0.021087
   136  H   -0.028757
   137  H   -0.010885
   138  H   -0.008664
   139  H   -0.016540
   140  H   -0.044161
 Sum of Mulliken charges =  -0.00000

 Dipole moment (field-independent basis, Debye):
    X=              0.5839    Y=              3.5345    Z=              1.1889  Tot=              3.7745
 Quadrupole moment (field-independent basis, Debye-Ang):
   XX=           -404.3426   YY=           -447.9353   ZZ=           -379.6848
   XY=             54.4012   XZ=             -9.2230   YZ=             26.6161

 Normal termination of Gaussian 16 at Wed Apr 27 14:38:36 2022.
