 Gaussian 16, Revision A.03,
 Gaussian 16:  ES64L-G16RevA.03 25-Dec-2016

 -----------------------------------
 #p cam-b3lyp/Def2SVP td=(nstates=5)
 -----------------------------------

 -------------------------------------------------------
 step_1201_chromophore_2 TDDFT with cam-b3lyp functional
 -------------------------------------------------------
 Symbolic Z-matrix:
 Charge =  0 Multiplicity = 1

                         Standard orientation:
 ---------------------------------------------------------------------
 Center     Atomic      Atomic             Coordinates (Angstroms)
 Number     Number       Type             X           Y           Z
 ---------------------------------------------------------------------
      1         12           0        4.786143    1.175198   -0.598187
      2          6           0        4.867169   -2.259059   -0.691379
      3          6           0        2.218988    1.060111   -2.940631
      4          6           0        3.981943    4.311997    0.235896
      5          6           0        6.825999    0.974242    2.305603
      6          7           0        3.612560   -0.434613   -1.549088
      7          6           0        3.862866   -1.775336   -1.546955
      8          6           0        2.923702   -2.576918   -2.454887
      9          6           0        2.256671   -1.466892   -3.300124
     10          6           0        2.772609   -0.159081   -2.602376
     11          6           0        2.508655   -1.527125   -4.865306
     12          6           0        1.941853   -3.573471   -1.667119
     13          6           0        1.642505   -3.435938   -0.155251
     14          6           0        0.189672   -3.711321    0.439196
     15          8           0       -0.763654   -3.928729   -0.263696
     16          8           0        0.136889   -3.659859    1.847868
     17          7           0        3.506669    2.524743   -1.414126
     18          6           0        2.541383    2.305332   -2.353851
     19          6           0        1.969339    3.531620   -2.747082
     20          6           0        2.516781    4.530971   -1.933192
     21          6           0        3.336952    3.831321   -0.959740
     22          6           0        1.013204    3.554139   -3.836474
     23          6           0        2.293477    6.039608   -2.008631
     24          8           0        1.563222    6.491869   -2.875559
     25          6           0        2.826110    7.004310   -0.989611
     26          7           0        5.236599    2.400335    1.098630
     27          6           0        4.903527    3.734268    1.072572
     28          6           0        5.544874    4.497555    2.243623
     29          6           0        6.365353    3.365845    2.955438
     30          6           0        6.172921    2.173237    2.062718
     31          6           0        6.407428    5.765157    1.745133
     32          6           0        6.045734    3.129352    4.468825
     33          6           0        7.313321    3.313985    5.325856
     34          7           0        5.761349   -0.253163    0.529063
     35          6           0        6.567304   -0.217885    1.677371
     36          6           0        7.059881   -1.580019    1.932832
     37          6           0        6.438293   -2.358693    1.047743
     38          6           0        5.644222   -1.536454    0.203751
     39          6           0        8.108673   -1.965997    2.972855
     40          6           0        6.274381   -3.725135    0.613798
     41          8           0        6.784376   -4.765606    1.152143
     42          6           0        5.351198   -3.744341   -0.591159
     43          6           0        6.183116   -4.206876   -1.800338
     44          8           0        6.698000   -5.314654   -2.016295
     45          8           0        6.150891   -3.238626   -2.792716
     46          6           0        6.650587   -3.526052   -4.190508
     47          6           0       -1.167307   -3.952884    2.513592
     48          6           0       -2.056976   -2.713536    2.287971
     49          6           0       -3.137268   -2.349960    2.958462
     50          6           0       -3.739499   -3.075125    4.183919
     51          6           0       -4.020744   -1.287023    2.349505
     52          6           0       -4.727453   -1.764823    0.991857
     53          6           0       -6.234546   -1.611310    0.808912
     54          6           0       -6.711984   -0.157365    1.113572
     55          6           0       -7.698656   -0.174098    2.293143
     56          6           0       -7.284460    0.561932   -0.096750
     57          6           0       -8.575826    0.060777   -0.672159
     58          6           0       -9.729885    1.093131   -0.793658
     59          6           0      -11.086764    0.465939   -0.980114
     60          6           0      -11.544805    0.558397   -2.462707
     61          6           0      -12.207023    1.118956   -0.092723
     62          6           0      -13.263792    0.091831    0.284555
     63          6           0      -14.536171    0.803725    0.837290
     64          6           0      -15.756761    0.418063    0.036934
     65          6           0      -16.757860    1.607721   -0.243725
     66          6           0      -16.594703   -0.682447    0.729662
     67          1           0        1.404390    0.993877   -3.664572
     68          1           0        3.969071    5.342352    0.596610
     69          1           0        7.440241    1.016812    3.208157
     70          1           0        3.553352   -3.219514   -3.070000
     71          1           0        1.182192   -1.564130   -3.145230
     72          1           0        2.209701   -2.530141   -5.171253
     73          1           0        3.539745   -1.313600   -5.147521
     74          1           0        1.839356   -0.825907   -5.364839
     75          1           0        2.280819   -4.588448   -1.873082
     76          1           0        0.923341   -3.483903   -2.043551
     77          1           0        2.039430   -2.505215    0.249834
     78          1           0        2.335792   -4.073781    0.392482
     79          1           0        0.930594    4.507096   -4.359115
     80          1           0        0.135759    3.115309   -3.360376
     81          1           0        1.337050    2.863329   -4.614465
     82          1           0        3.904816    6.918175   -0.857448
     83          1           0        2.360149    6.770578   -0.031866
     84          1           0        2.556338    8.010334   -1.309021
     85          1           0        4.748027    4.961440    2.823996
     86          1           0        7.419795    3.589719    2.791335
     87          1           0        5.755984    6.625301    1.587115
     88          1           0        6.984431    5.565828    0.842420
     89          1           0        7.162465    6.021002    2.488187
     90          1           0        5.710054    2.103740    4.621164
     91          1           0        5.193109    3.752351    4.736376
     92          1           0        8.150402    3.763500    4.791212
     93          1           0        7.673451    2.337034    5.648315
     94          1           0        7.086418    3.906142    6.211933
     95          1           0        9.134551   -1.752474    2.673941
     96          1           0        8.076129   -3.042038    3.141774
     97          1           0        7.933967   -1.469902    3.927268
     98          1           0        4.606862   -4.506617   -0.362653
     99          1           0        6.077214   -4.374436   -4.562615
    100          1           0        7.710023   -3.776764   -4.264670
    101          1           0        6.427502   -2.732866   -4.903376
    102          1           0       -0.978960   -4.084337    3.579848
    103          1           0       -1.481216   -4.906936    2.088880
    104          1           0       -1.693083   -2.039832    1.512060
    105          1           0       -4.776004   -3.394892    4.082103
    106          1           0       -3.795427   -2.406066    5.041943
    107          1           0       -3.130206   -3.963240    4.354381
    108          1           0       -3.341516   -0.467326    2.115267
    109          1           0       -4.675225   -0.836476    3.095818
    110          1           0       -4.496724   -2.815070    0.813940
    111          1           0       -4.313141   -1.140414    0.199672
    112          1           0       -6.727897   -2.255051    1.537740
    113          1           0       -6.526152   -2.015253   -0.160730
    114          1           0       -5.861893    0.409400    1.493823
    115          1           0       -8.595581   -0.762277    2.101248
    116          1           0       -8.096262    0.828784    2.447346
    117          1           0       -7.158014   -0.431074    3.204873
    118          1           0       -6.517227    0.442965   -0.861771
    119          1           0       -7.457747    1.618005    0.108509
    120          1           0       -9.007978   -0.800779   -0.163813
    121          1           0       -8.383950   -0.507496   -1.581978
    122          1           0       -9.439671    1.797229   -1.573879
    123          1           0       -9.745996    1.558352    0.191735
    124          1           0      -11.050828   -0.560399   -0.614650
    125          1           0      -11.709501   -0.486931   -2.723428
    126          1           0      -10.762503    0.874371   -3.153429
    127          1           0      -12.430891    1.175253   -2.608711
    128          1           0      -12.643455    1.945955   -0.652932
    129          1           0      -11.816238    1.573040    0.818103
    130          1           0      -13.055005   -0.504622    1.172364
    131          1           0      -13.521515   -0.653636   -0.467817
    132          1           0      -14.367408    1.878224    0.766879
    133          1           0      -14.625530    0.560220    1.896472
    134          1           0      -15.431203   -0.038752   -0.898642
    135          1           0      -16.785164    1.943923   -1.280150
    136          1           0      -16.370751    2.508763    0.232161
    137          1           0      -17.750226    1.334508    0.114981
    138          1           0      -16.994504   -1.491268    0.119209
    139          1           0      -17.314512   -0.272201    1.437805
    140          1           0      -15.904413   -1.187674    1.404438
 ---------------------------------------------------------------------

 SCF Done:  E(RCAM-B3LYP) =  -3007.17885233     A.U. after   19 cycles

 Excitation energies and oscillator strengths:

 Excited State   1:      Singlet-A      1.6991 eV  729.72 nm  f=0.3679  <S**2>=0.000
     245 -> 248       -0.17665
     246 -> 247        0.68668
     245 <- 248       -0.10749
 This state for optimization and/or second-order correction.
 Total Energy, E(TD-HF/TD-DFT) =  -3007.11641314
 Copying the excited state density for this state as the 1-particle RhoCI density.

 Excited State   2:      Singlet-A      2.3117 eV  536.33 nm  f=0.0521  <S**2>=0.000
     245 -> 247        0.60607
     246 -> 248        0.35261

 Excited State   3:      Singlet-A      3.2857 eV  377.34 nm  f=0.0562  <S**2>=0.000
     239 -> 247        0.13143
     239 -> 249       -0.10484
     240 -> 247        0.30838
     240 -> 249       -0.26662
     241 -> 247        0.35457
     241 -> 249       -0.24989
     245 -> 247       -0.10947
     246 -> 248        0.23993

 Excited State   4:      Singlet-A      3.3188 eV  373.58 nm  f=0.0204  <S**2>=0.000
     241 -> 247       -0.12117
     244 -> 247        0.63589
     246 -> 248        0.18913

 Excited State   5:      Singlet-A      3.4631 eV  358.02 nm  f=0.5554  <S**2>=0.000
     240 -> 247       -0.24930
     240 -> 249        0.12689
     244 -> 247       -0.22733
     245 -> 247       -0.30291
     246 -> 248        0.49676
     246 -> 250        0.14721

 The electronic state is 1-A.
 Alpha  occ. eigenvalues --  -46.88450 -19.25568 -19.24129 -19.20495 -19.20151
 Alpha  occ. eigenvalues --  -19.19073 -19.18050 -14.42523 -14.41689 -14.39702
 Alpha  occ. eigenvalues --  -14.39328 -10.40646 -10.40201 -10.35324 -10.34418
 Alpha  occ. eigenvalues --  -10.33227 -10.32679 -10.31619 -10.30843 -10.30507
 Alpha  occ. eigenvalues --  -10.30497 -10.30463 -10.30392 -10.30107 -10.29281
 Alpha  occ. eigenvalues --  -10.28756 -10.28679 -10.28544 -10.28442 -10.28363
 Alpha  occ. eigenvalues --  -10.28214 -10.28054 -10.27900 -10.27626 -10.27164
 Alpha  occ. eigenvalues --  -10.27073 -10.26975 -10.26745 -10.26714 -10.26624
 Alpha  occ. eigenvalues --  -10.26614 -10.26405 -10.26370 -10.26159 -10.26110
 Alpha  occ. eigenvalues --  -10.26084 -10.25776 -10.25638 -10.25429 -10.25365
 Alpha  occ. eigenvalues --  -10.25317 -10.25168 -10.25133 -10.25107 -10.24750
 Alpha  occ. eigenvalues --  -10.24686 -10.24459 -10.24399 -10.24256 -10.24192
 Alpha  occ. eigenvalues --  -10.24115 -10.24071 -10.24068 -10.24015 -10.23982
 Alpha  occ. eigenvalues --  -10.23969  -3.17148  -1.92003  -1.91625  -1.91446
 Alpha  occ. eigenvalues --   -1.15349  -1.15313  -1.09576  -1.07702  -1.07392
 Alpha  occ. eigenvalues --   -1.06522  -1.04844  -1.03623  -1.03449  -1.02380
 Alpha  occ. eigenvalues --   -0.93314  -0.90414  -0.89803  -0.89566  -0.88952
 Alpha  occ. eigenvalues --   -0.88781  -0.88580  -0.88074  -0.87457  -0.87395
 Alpha  occ. eigenvalues --   -0.86413  -0.85153  -0.84314  -0.83998  -0.83362
 Alpha  occ. eigenvalues --   -0.82261  -0.82011  -0.81223  -0.80864  -0.80337
 Alpha  occ. eigenvalues --   -0.79452  -0.78534  -0.78223  -0.77615  -0.77077
 Alpha  occ. eigenvalues --   -0.76309  -0.75375  -0.74896  -0.74824  -0.74154
 Alpha  occ. eigenvalues --   -0.73537  -0.73091  -0.71951  -0.70577  -0.69881
 Alpha  occ. eigenvalues --   -0.69093  -0.68943  -0.67070  -0.66558  -0.66280
 Alpha  occ. eigenvalues --   -0.65831  -0.65263  -0.64895  -0.64753  -0.63948
 Alpha  occ. eigenvalues --   -0.63754  -0.62790  -0.61997  -0.61208  -0.60234
 Alpha  occ. eigenvalues --   -0.59673  -0.59537  -0.58879  -0.58059  -0.57933
 Alpha  occ. eigenvalues --   -0.57757  -0.57154  -0.56503  -0.56135  -0.55303
 Alpha  occ. eigenvalues --   -0.55134  -0.54662  -0.54348  -0.54055  -0.53946
 Alpha  occ. eigenvalues --   -0.53746  -0.53239  -0.53231  -0.52945  -0.52833
 Alpha  occ. eigenvalues --   -0.52486  -0.52326  -0.52301  -0.52075  -0.51782
 Alpha  occ. eigenvalues --   -0.51585  -0.51567  -0.51196  -0.50988  -0.50904
 Alpha  occ. eigenvalues --   -0.50424  -0.50128  -0.49984  -0.49858  -0.49751
 Alpha  occ. eigenvalues --   -0.49521  -0.49252  -0.49096  -0.48929  -0.48748
 Alpha  occ. eigenvalues --   -0.48648  -0.48526  -0.48307  -0.47905  -0.47596
 Alpha  occ. eigenvalues --   -0.47295  -0.47191  -0.47030  -0.46934  -0.46821
 Alpha  occ. eigenvalues --   -0.46510  -0.46226  -0.45965  -0.45896  -0.45499
 Alpha  occ. eigenvalues --   -0.45475  -0.45304  -0.45194  -0.44682  -0.44617
 Alpha  occ. eigenvalues --   -0.44467  -0.44409  -0.44340  -0.44184  -0.43973
 Alpha  occ. eigenvalues --   -0.43843  -0.43705  -0.43456  -0.43222  -0.43069
 Alpha  occ. eigenvalues --   -0.42884  -0.42823  -0.42789  -0.42375  -0.42084
 Alpha  occ. eigenvalues --   -0.41880  -0.41699  -0.41563  -0.41482  -0.41445
 Alpha  occ. eigenvalues --   -0.41127  -0.41054  -0.40785  -0.40602  -0.40247
 Alpha  occ. eigenvalues --   -0.39956  -0.39880  -0.39322  -0.39165  -0.39001
 Alpha  occ. eigenvalues --   -0.38462  -0.38263  -0.38194  -0.37618  -0.37482
 Alpha  occ. eigenvalues --   -0.37029  -0.36973  -0.36774  -0.36659  -0.36174
 Alpha  occ. eigenvalues --   -0.35800  -0.35733  -0.35104  -0.34980  -0.34584
 Alpha  occ. eigenvalues --   -0.34454  -0.33966  -0.33338  -0.31808  -0.31196
 Alpha  occ. eigenvalues --   -0.30767  -0.30481  -0.29838  -0.29075  -0.24652
 Alpha  occ. eigenvalues --   -0.20904
 Alpha virt. eigenvalues --   -0.08488  -0.02071  -0.00165   0.01282   0.02391
 Alpha virt. eigenvalues --    0.04214   0.04920   0.05646   0.05888   0.06976
 Alpha virt. eigenvalues --    0.07334   0.08018   0.08398   0.08627   0.08840

 Mulliken charges:
               1
     1  Mg   0.842520
     2  C   -0.045231
     3  C   -0.124959
     4  C   -0.026946
     5  C   -0.106169
     6  N   -0.290822
     7  C   -0.074679
     8  C    0.072593
     9  C   -0.064085
    10  C    0.073032
    11  C    0.059880
    12  C    0.050893
    13  C   -0.008061
    14  C    0.197708
    15  O   -0.207831
    16  O   -0.378583
    17  N   -0.408629
    18  C    0.167008
    19  C   -0.161540
    20  C   -0.021675
    21  C    0.164960
    22  C    0.147355
    23  C   -0.025936
    24  O   -0.200173
    25  C    0.062461
    26  N   -0.296131
    27  C   -0.015872
    28  C   -0.061543
    29  C    0.019136
    30  C    0.001951
    31  C    0.037958
    32  C    0.054645
    33  C   -0.008393
    34  N   -0.346529
    35  C    0.147409
    36  C   -0.189736
    37  C    0.076284
    38  C    0.154839
    39  C    0.115223
    40  C    0.029101
    41  O   -0.209878
    42  C   -0.030613
    43  C    0.242132
    44  O   -0.212463
    45  O   -0.358973
    46  C    0.182773
    47  C    0.280563
    48  C   -0.106543
    49  C   -0.173942
    50  C    0.079202
    51  C    0.061944
    52  C    0.015549
    53  C    0.068690
    54  C   -0.128387
    55  C    0.039419
    56  C    0.110088
    57  C   -0.037453
    58  C    0.089747
    59  C   -0.134978
    60  C    0.062451
    61  C    0.040613
    62  C   -0.004580
    63  C    0.056971
    64  C   -0.159359
    65  C    0.053641
    66  C    0.038248
    67  H   -0.017997
    68  H   -0.059244
    69  H   -0.035303
    70  H   -0.007315
    71  H    0.016204
    72  H    0.020003
    73  H    0.019394
    74  H    0.019323
    75  H    0.017157
    76  H    0.021819
    77  H    0.044490
    78  H    0.019266
    79  H    0.037516
    80  H    0.027867
    81  H    0.007651
    82  H    0.030998
    83  H    0.042592
    84  H    0.026816
    85  H    0.019047
    86  H    0.006578
    87  H    0.026220
    88  H    0.016818
    89  H    0.014891
    90  H    0.018557
    91  H    0.010875
    92  H    0.016447
    93  H    0.018917
    94  H    0.020048
    95  H    0.031253
    96  H    0.034359
    97  H    0.014504
    98  H    0.058836
    99  H    0.033827
   100  H    0.053630
   101  H    0.040247
   102  H    0.038488
   103  H    0.041366
   104  H    0.009628
   105  H    0.018305
   106  H    0.023467
   107  H    0.002724
   108  H    0.005426
   109  H   -0.010197
   110  H    0.017526
   111  H    0.000944
   112  H   -0.020803
   113  H   -0.000979
   114  H   -0.005938
   115  H    0.010568
   116  H   -0.008544
   117  H    0.005693
   118  H   -0.012590
   119  H   -0.008371
   120  H   -0.026507
   121  H   -0.022706
   122  H    0.004396
   123  H   -0.017685
   124  H   -0.000785
   125  H    0.004211
   126  H    0.004567
   127  H    0.016886
   128  H   -0.003025
   129  H   -0.006356
   130  H   -0.006218
   131  H    0.001860
   132  H   -0.008782
   133  H   -0.005581
   134  H    0.000829
   135  H    0.003502
   136  H   -0.004750
   137  H    0.012974
   138  H    0.016513
   139  H    0.007235
   140  H   -0.019872
 Sum of Mulliken charges =  -0.00000

 Dipole moment (field-independent basis, Debye):
    X=              1.0467    Y=              3.3219    Z=              1.4516  Tot=              3.7733
 Quadrupole moment (field-independent basis, Debye-Ang):
   XX=           -399.6935   YY=           -446.4434   ZZ=           -377.8052
   XY=             54.5438   XZ=             -8.2969   YZ=             28.3903

 Normal termination of Gaussian 16 at Wed Apr 27 13:41:37 2022.
