 Gaussian 16, Revision A.03,
 Gaussian 16:  ES64L-G16RevA.03 25-Dec-2016

 ---------------------------------
 #p PBE1PBE/Def2SVP td=(nstates=5)
 ---------------------------------

 -----------------------------------------------------
 step_1201_chromophore_2 TDDFT with PBE1PBE functional
 -----------------------------------------------------
 Symbolic Z-matrix:
 Charge =  0 Multiplicity = 1

                         Standard orientation:
 ---------------------------------------------------------------------
 Center     Atomic      Atomic             Coordinates (Angstroms)
 Number     Number       Type             X           Y           Z
 ---------------------------------------------------------------------
      1         12           0        4.786143    1.175198   -0.598187
      2          6           0        4.867169   -2.259059   -0.691379
      3          6           0        2.218988    1.060111   -2.940631
      4          6           0        3.981943    4.311997    0.235896
      5          6           0        6.825999    0.974242    2.305603
      6          7           0        3.612560   -0.434613   -1.549088
      7          6           0        3.862866   -1.775336   -1.546955
      8          6           0        2.923702   -2.576918   -2.454887
      9          6           0        2.256671   -1.466892   -3.300124
     10          6           0        2.772609   -0.159081   -2.602376
     11          6           0        2.508655   -1.527125   -4.865306
     12          6           0        1.941853   -3.573471   -1.667119
     13          6           0        1.642505   -3.435938   -0.155251
     14          6           0        0.189672   -3.711321    0.439196
     15          8           0       -0.763654   -3.928729   -0.263696
     16          8           0        0.136889   -3.659859    1.847868
     17          7           0        3.506669    2.524743   -1.414126
     18          6           0        2.541383    2.305332   -2.353851
     19          6           0        1.969339    3.531620   -2.747082
     20          6           0        2.516781    4.530971   -1.933192
     21          6           0        3.336952    3.831321   -0.959740
     22          6           0        1.013204    3.554139   -3.836474
     23          6           0        2.293477    6.039608   -2.008631
     24          8           0        1.563222    6.491869   -2.875559
     25          6           0        2.826110    7.004310   -0.989611
     26          7           0        5.236599    2.400335    1.098630
     27          6           0        4.903527    3.734268    1.072572
     28          6           0        5.544874    4.497555    2.243623
     29          6           0        6.365353    3.365845    2.955438
     30          6           0        6.172921    2.173237    2.062718
     31          6           0        6.407428    5.765157    1.745133
     32          6           0        6.045734    3.129352    4.468825
     33          6           0        7.313321    3.313985    5.325856
     34          7           0        5.761349   -0.253163    0.529063
     35          6           0        6.567304   -0.217885    1.677371
     36          6           0        7.059881   -1.580019    1.932832
     37          6           0        6.438293   -2.358693    1.047743
     38          6           0        5.644222   -1.536454    0.203751
     39          6           0        8.108673   -1.965997    2.972855
     40          6           0        6.274381   -3.725135    0.613798
     41          8           0        6.784376   -4.765606    1.152143
     42          6           0        5.351198   -3.744341   -0.591159
     43          6           0        6.183116   -4.206876   -1.800338
     44          8           0        6.698000   -5.314654   -2.016295
     45          8           0        6.150891   -3.238626   -2.792716
     46          6           0        6.650587   -3.526052   -4.190508
     47          6           0       -1.167307   -3.952884    2.513592
     48          6           0       -2.056976   -2.713536    2.287971
     49          6           0       -3.137268   -2.349960    2.958462
     50          6           0       -3.739499   -3.075125    4.183919
     51          6           0       -4.020744   -1.287023    2.349505
     52          6           0       -4.727453   -1.764823    0.991857
     53          6           0       -6.234546   -1.611310    0.808912
     54          6           0       -6.711984   -0.157365    1.113572
     55          6           0       -7.698656   -0.174098    2.293143
     56          6           0       -7.284460    0.561932   -0.096750
     57          6           0       -8.575826    0.060777   -0.672159
     58          6           0       -9.729885    1.093131   -0.793658
     59          6           0      -11.086764    0.465939   -0.980114
     60          6           0      -11.544805    0.558397   -2.462707
     61          6           0      -12.207023    1.118956   -0.092723
     62          6           0      -13.263792    0.091831    0.284555
     63          6           0      -14.536171    0.803725    0.837290
     64          6           0      -15.756761    0.418063    0.036934
     65          6           0      -16.757860    1.607721   -0.243725
     66          6           0      -16.594703   -0.682447    0.729662
     67          1           0        1.404390    0.993877   -3.664572
     68          1           0        3.969071    5.342352    0.596610
     69          1           0        7.440241    1.016812    3.208157
     70          1           0        3.553352   -3.219514   -3.070000
     71          1           0        1.182192   -1.564130   -3.145230
     72          1           0        2.209701   -2.530141   -5.171253
     73          1           0        3.539745   -1.313600   -5.147521
     74          1           0        1.839356   -0.825907   -5.364839
     75          1           0        2.280819   -4.588448   -1.873082
     76          1           0        0.923341   -3.483903   -2.043551
     77          1           0        2.039430   -2.505215    0.249834
     78          1           0        2.335792   -4.073781    0.392482
     79          1           0        0.930594    4.507096   -4.359115
     80          1           0        0.135759    3.115309   -3.360376
     81          1           0        1.337050    2.863329   -4.614465
     82          1           0        3.904816    6.918175   -0.857448
     83          1           0        2.360149    6.770578   -0.031866
     84          1           0        2.556338    8.010334   -1.309021
     85          1           0        4.748027    4.961440    2.823996
     86          1           0        7.419795    3.589719    2.791335
     87          1           0        5.755984    6.625301    1.587115
     88          1           0        6.984431    5.565828    0.842420
     89          1           0        7.162465    6.021002    2.488187
     90          1           0        5.710054    2.103740    4.621164
     91          1           0        5.193109    3.752351    4.736376
     92          1           0        8.150402    3.763500    4.791212
     93          1           0        7.673451    2.337034    5.648315
     94          1           0        7.086418    3.906142    6.211933
     95          1           0        9.134551   -1.752474    2.673941
     96          1           0        8.076129   -3.042038    3.141774
     97          1           0        7.933967   -1.469902    3.927268
     98          1           0        4.606862   -4.506617   -0.362653
     99          1           0        6.077214   -4.374436   -4.562615
    100          1           0        7.710023   -3.776764   -4.264670
    101          1           0        6.427502   -2.732866   -4.903376
    102          1           0       -0.978960   -4.084337    3.579848
    103          1           0       -1.481216   -4.906936    2.088880
    104          1           0       -1.693083   -2.039832    1.512060
    105          1           0       -4.776004   -3.394892    4.082103
    106          1           0       -3.795427   -2.406066    5.041943
    107          1           0       -3.130206   -3.963240    4.354381
    108          1           0       -3.341516   -0.467326    2.115267
    109          1           0       -4.675225   -0.836476    3.095818
    110          1           0       -4.496724   -2.815070    0.813940
    111          1           0       -4.313141   -1.140414    0.199672
    112          1           0       -6.727897   -2.255051    1.537740
    113          1           0       -6.526152   -2.015253   -0.160730
    114          1           0       -5.861893    0.409400    1.493823
    115          1           0       -8.595581   -0.762277    2.101248
    116          1           0       -8.096262    0.828784    2.447346
    117          1           0       -7.158014   -0.431074    3.204873
    118          1           0       -6.517227    0.442965   -0.861771
    119          1           0       -7.457747    1.618005    0.108509
    120          1           0       -9.007978   -0.800779   -0.163813
    121          1           0       -8.383950   -0.507496   -1.581978
    122          1           0       -9.439671    1.797229   -1.573879
    123          1           0       -9.745996    1.558352    0.191735
    124          1           0      -11.050828   -0.560399   -0.614650
    125          1           0      -11.709501   -0.486931   -2.723428
    126          1           0      -10.762503    0.874371   -3.153429
    127          1           0      -12.430891    1.175253   -2.608711
    128          1           0      -12.643455    1.945955   -0.652932
    129          1           0      -11.816238    1.573040    0.818103
    130          1           0      -13.055005   -0.504622    1.172364
    131          1           0      -13.521515   -0.653636   -0.467817
    132          1           0      -14.367408    1.878224    0.766879
    133          1           0      -14.625530    0.560220    1.896472
    134          1           0      -15.431203   -0.038752   -0.898642
    135          1           0      -16.785164    1.943923   -1.280150
    136          1           0      -16.370751    2.508763    0.232161
    137          1           0      -17.750226    1.334508    0.114981
    138          1           0      -16.994504   -1.491268    0.119209
    139          1           0      -17.314512   -0.272201    1.437805
    140          1           0      -15.904413   -1.187674    1.404438
 ---------------------------------------------------------------------

 SCF Done:  E(RPBE1PBE) =  -3005.36523016     A.U. after   16 cycles

 Excitation energies and oscillator strengths:

 Excited State   1:      Singlet-A      1.8510 eV  669.82 nm  f=0.3608  <S**2>=0.000
     245 -> 248       -0.17004
     246 -> 247        0.69452
     246 <- 247       -0.11096
 This state for optimization and/or second-order correction.
 Total Energy, E(TD-HF/TD-DFT) =  -3005.29720700
 Copying the excited state density for this state as the 1-particle RhoCI density.

 Excited State   2:      Singlet-A      2.3030 eV  538.35 nm  f=0.0558  <S**2>=0.000
     245 -> 247        0.62571
     246 -> 248        0.31421

 Excited State   3:      Singlet-A      2.9142 eV  425.45 nm  f=0.0035  <S**2>=0.000
     241 -> 247       -0.45629
     241 -> 249        0.18188
     244 -> 247        0.48924

 Excited State   4:      Singlet-A      2.9350 eV  422.44 nm  f=0.0007  <S**2>=0.000
     241 -> 247        0.43371
     241 -> 249       -0.16346
     244 -> 247        0.48671
     246 -> 248        0.17103

 Excited State   5:      Singlet-A      3.1380 eV  395.10 nm  f=0.0003  <S**2>=0.000
     242 -> 247        0.67518
     242 -> 250        0.11155

 The electronic state is 1-A.
 Alpha  occ. eigenvalues --  -46.91862 -19.26163 -19.24833 -19.20724 -19.20309
 Alpha  occ. eigenvalues --  -19.19100 -19.18419 -14.42039 -14.41201 -14.39270
 Alpha  occ. eigenvalues --  -14.39106 -10.37603 -10.37234 -10.32283 -10.31725
 Alpha  occ. eigenvalues --  -10.30397 -10.30065 -10.29235 -10.28433 -10.28416
 Alpha  occ. eigenvalues --  -10.28401 -10.28233 -10.27944 -10.27602 -10.26744
 Alpha  occ. eigenvalues --  -10.26558 -10.26533 -10.26506 -10.26214 -10.25976
 Alpha  occ. eigenvalues --  -10.25837 -10.25708 -10.25513 -10.25237 -10.24766
 Alpha  occ. eigenvalues --  -10.24627 -10.24504 -10.24477 -10.24334 -10.24315
 Alpha  occ. eigenvalues --  -10.24264 -10.24229 -10.24029 -10.23619 -10.23521
 Alpha  occ. eigenvalues --  -10.23520 -10.23206 -10.23192 -10.22997 -10.22963
 Alpha  occ. eigenvalues --  -10.22817 -10.22815 -10.22792 -10.22727 -10.22371
 Alpha  occ. eigenvalues --  -10.22269 -10.22005 -10.21961 -10.21812 -10.21692
 Alpha  occ. eigenvalues --  -10.21599 -10.21597 -10.21501 -10.21464 -10.21418
 Alpha  occ. eigenvalues --  -10.21391  -3.14133  -1.86927  -1.86529  -1.86354
 Alpha  occ. eigenvalues --   -1.10114  -1.09976  -1.04470  -1.02571  -1.01889
 Alpha  occ. eigenvalues --   -1.01233  -0.99380  -0.98250  -0.98092  -0.97155
 Alpha  occ. eigenvalues --   -0.87540  -0.84503  -0.83919  -0.83881  -0.83120
 Alpha  occ. eigenvalues --   -0.82944  -0.82903  -0.82365  -0.81728  -0.81582
 Alpha  occ. eigenvalues --   -0.80859  -0.79394  -0.78565  -0.78156  -0.77626
 Alpha  occ. eigenvalues --   -0.76502  -0.76188  -0.75484  -0.75130  -0.74582
 Alpha  occ. eigenvalues --   -0.73605  -0.72797  -0.72426  -0.71962  -0.71381
 Alpha  occ. eigenvalues --   -0.70436  -0.69744  -0.69021  -0.68909  -0.68331
 Alpha  occ. eigenvalues --   -0.67912  -0.67426  -0.66411  -0.64905  -0.64173
 Alpha  occ. eigenvalues --   -0.63494  -0.63133  -0.61602  -0.60787  -0.60689
 Alpha  occ. eigenvalues --   -0.60033  -0.59737  -0.59460  -0.59334  -0.58256
 Alpha  occ. eigenvalues --   -0.58084  -0.56975  -0.56529  -0.55506  -0.54741
 Alpha  occ. eigenvalues --   -0.54100  -0.53988  -0.53522  -0.52628  -0.52443
 Alpha  occ. eigenvalues --   -0.52274  -0.51535  -0.51095  -0.50528  -0.49932
 Alpha  occ. eigenvalues --   -0.49597  -0.49177  -0.48812  -0.48441  -0.48378
 Alpha  occ. eigenvalues --   -0.48310  -0.47702  -0.47648  -0.47526  -0.47366
 Alpha  occ. eigenvalues --   -0.46963  -0.46938  -0.46768  -0.46609  -0.46381
 Alpha  occ. eigenvalues --   -0.46138  -0.46046  -0.45710  -0.45506  -0.45431
 Alpha  occ. eigenvalues --   -0.45050  -0.44686  -0.44593  -0.44410  -0.44309
 Alpha  occ. eigenvalues --   -0.44044  -0.43853  -0.43742  -0.43526  -0.43383
 Alpha  occ. eigenvalues --   -0.43252  -0.43173  -0.42944  -0.42549  -0.42256
 Alpha  occ. eigenvalues --   -0.41915  -0.41856  -0.41713  -0.41670  -0.41486
 Alpha  occ. eigenvalues --   -0.41106  -0.40958  -0.40653  -0.40593  -0.40243
 Alpha  occ. eigenvalues --   -0.40047  -0.40016  -0.39917  -0.39363  -0.39299
 Alpha  occ. eigenvalues --   -0.39235  -0.39091  -0.39036  -0.38869  -0.38712
 Alpha  occ. eigenvalues --   -0.38589  -0.38417  -0.38315  -0.37922  -0.37819
 Alpha  occ. eigenvalues --   -0.37712  -0.37629  -0.37503  -0.37380  -0.36990
 Alpha  occ. eigenvalues --   -0.36707  -0.36564  -0.36407  -0.36380  -0.36256
 Alpha  occ. eigenvalues --   -0.35864  -0.35814  -0.35664  -0.35455  -0.35134
 Alpha  occ. eigenvalues --   -0.34723  -0.34615  -0.34261  -0.34102  -0.33803
 Alpha  occ. eigenvalues --   -0.33231  -0.33200  -0.33046  -0.32629  -0.32288
 Alpha  occ. eigenvalues --   -0.32040  -0.31815  -0.31685  -0.31541  -0.31080
 Alpha  occ. eigenvalues --   -0.30693  -0.30587  -0.30122  -0.29955  -0.29503
 Alpha  occ. eigenvalues --   -0.29268  -0.28924  -0.28873  -0.27274  -0.26515
 Alpha  occ. eigenvalues --   -0.25605  -0.25467  -0.25086  -0.24731  -0.21481
 Alpha  occ. eigenvalues --   -0.18599
 Alpha virt. eigenvalues --   -0.11038  -0.05530  -0.04322  -0.02175  -0.01329
 Alpha virt. eigenvalues --   -0.00257   0.00601   0.01053   0.01368   0.03068
 Alpha virt. eigenvalues --    0.03937   0.04218   0.04927   0.05207   0.05682

 Mulliken charges:
               1
     1  Mg   0.988162
     2  C   -0.055081
     3  C   -0.107355
     4  C   -0.031903
     5  C   -0.096215
     6  N   -0.391622
     7  C   -0.012431
     8  C    0.013614
     9  C   -0.144387
    10  C    0.109532
    11  C   -0.001941
    12  C    0.001966
    13  C   -0.084982
    14  C    0.260277
    15  O   -0.239310
    16  O   -0.407498
    17  N   -0.522896
    18  C    0.190683
    19  C   -0.191169
    20  C   -0.061859
    21  C    0.189232
    22  C    0.082430
    23  C    0.033040
    24  O   -0.235386
    25  C   -0.016064
    26  N   -0.398519
    27  C    0.027782
    28  C   -0.139896
    29  C   -0.058455
    30  C    0.039970
    31  C   -0.020648
    32  C   -0.004527
    33  C   -0.081145
    34  N   -0.474115
    35  C    0.160326
    36  C   -0.201199
    37  C    0.016653
    38  C    0.210234
    39  C    0.065551
    40  C    0.122960
    41  O   -0.254472
    42  C   -0.138480
    43  C    0.335478
    44  O   -0.248333
    45  O   -0.389200
    46  C    0.128344
    47  C    0.241831
    48  C   -0.116055
    49  C   -0.219226
    50  C    0.016781
    51  C   -0.002059
    52  C   -0.049584
    53  C    0.016750
    54  C   -0.218732
    55  C   -0.022143
    56  C    0.049832
    57  C   -0.088413
    58  C    0.028317
    59  C   -0.222158
    60  C    0.006746
    61  C   -0.016064
    62  C   -0.064375
    63  C    0.002646
    64  C   -0.252655
    65  C   -0.005819
    66  C   -0.022443
    67  H    0.011283
    68  H   -0.024704
    69  H   -0.001527
    70  H    0.035642
    71  H    0.053816
    72  H    0.049106
    73  H    0.047724
    74  H    0.046571
    75  H    0.048561
    76  H    0.053111
    77  H    0.078775
    78  H    0.053658
    79  H    0.066037
    80  H    0.058905
    81  H    0.036713
    82  H    0.058663
    83  H    0.069774
    84  H    0.055372
    85  H    0.055226
    86  H    0.045342
    87  H    0.052323
    88  H    0.045002
    89  H    0.044254
    90  H    0.051974
    91  H    0.042427
    92  H    0.042871
    93  H    0.045808
    94  H    0.047880
    95  H    0.057762
    96  H    0.061132
    97  H    0.040118
    98  H    0.094047
    99  H    0.054418
   100  H    0.074842
   101  H    0.061021
   102  H    0.063794
   103  H    0.067211
   104  H    0.038434
   105  H    0.045644
   106  H    0.051107
   107  H    0.030683
   108  H    0.038378
   109  H    0.022103
   110  H    0.049967
   111  H    0.034227
   112  H    0.013701
   113  H    0.030830
   114  H    0.033493
   115  H    0.037491
   116  H    0.020192
   117  H    0.034777
   118  H    0.022080
   119  H    0.024385
   120  H    0.005258
   121  H    0.009963
   122  H    0.036423
   123  H    0.017462
   124  H    0.036702
   125  H    0.031674
   126  H    0.031705
   127  H    0.042788
   128  H    0.029540
   129  H    0.026133
   130  H    0.026935
   131  H    0.032673
   132  H    0.023602
   133  H    0.026568
   134  H    0.038504
   135  H    0.031235
   136  H    0.022397
   137  H    0.039475
   138  H    0.043955
   139  H    0.034646
   140  H    0.009616
 Sum of Mulliken charges =  -0.00000

 Dipole moment (field-independent basis, Debye):
    X=              0.8083    Y=              3.7061    Z=              1.2768  Tot=              4.0023
 Quadrupole moment (field-independent basis, Debye-Ang):
   XX=           -398.4208   YY=           -442.8427   ZZ=           -373.5679
   XY=             56.6806   XZ=             -8.1964   YZ=             28.6970

 Normal termination of Gaussian 16 at Wed Apr 27 13:59:21 2022.
