 Gaussian 16, Revision A.03,
 Gaussian 16:  ES64L-G16RevA.03 25-Dec-2016

 --------------------------------
 #p wB97XD/Def2SVP td=(nstates=5)
 --------------------------------

 ----------------------------------------------------
 step_1201_chromophore_2 TDDFT with wB97XD functional
 ----------------------------------------------------
 Symbolic Z-matrix:
 Charge =  0 Multiplicity = 1

                         Standard orientation:
 ---------------------------------------------------------------------
 Center     Atomic      Atomic             Coordinates (Angstroms)
 Number     Number       Type             X           Y           Z
 ---------------------------------------------------------------------
      1         12           0        4.786143    1.175198   -0.598187
      2          6           0        4.867169   -2.259059   -0.691379
      3          6           0        2.218988    1.060111   -2.940631
      4          6           0        3.981943    4.311997    0.235896
      5          6           0        6.825999    0.974242    2.305603
      6          7           0        3.612560   -0.434613   -1.549088
      7          6           0        3.862866   -1.775336   -1.546955
      8          6           0        2.923702   -2.576918   -2.454887
      9          6           0        2.256671   -1.466892   -3.300124
     10          6           0        2.772609   -0.159081   -2.602376
     11          6           0        2.508655   -1.527125   -4.865306
     12          6           0        1.941853   -3.573471   -1.667119
     13          6           0        1.642505   -3.435938   -0.155251
     14          6           0        0.189672   -3.711321    0.439196
     15          8           0       -0.763654   -3.928729   -0.263696
     16          8           0        0.136889   -3.659859    1.847868
     17          7           0        3.506669    2.524743   -1.414126
     18          6           0        2.541383    2.305332   -2.353851
     19          6           0        1.969339    3.531620   -2.747082
     20          6           0        2.516781    4.530971   -1.933192
     21          6           0        3.336952    3.831321   -0.959740
     22          6           0        1.013204    3.554139   -3.836474
     23          6           0        2.293477    6.039608   -2.008631
     24          8           0        1.563222    6.491869   -2.875559
     25          6           0        2.826110    7.004310   -0.989611
     26          7           0        5.236599    2.400335    1.098630
     27          6           0        4.903527    3.734268    1.072572
     28          6           0        5.544874    4.497555    2.243623
     29          6           0        6.365353    3.365845    2.955438
     30          6           0        6.172921    2.173237    2.062718
     31          6           0        6.407428    5.765157    1.745133
     32          6           0        6.045734    3.129352    4.468825
     33          6           0        7.313321    3.313985    5.325856
     34          7           0        5.761349   -0.253163    0.529063
     35          6           0        6.567304   -0.217885    1.677371
     36          6           0        7.059881   -1.580019    1.932832
     37          6           0        6.438293   -2.358693    1.047743
     38          6           0        5.644222   -1.536454    0.203751
     39          6           0        8.108673   -1.965997    2.972855
     40          6           0        6.274381   -3.725135    0.613798
     41          8           0        6.784376   -4.765606    1.152143
     42          6           0        5.351198   -3.744341   -0.591159
     43          6           0        6.183116   -4.206876   -1.800338
     44          8           0        6.698000   -5.314654   -2.016295
     45          8           0        6.150891   -3.238626   -2.792716
     46          6           0        6.650587   -3.526052   -4.190508
     47          6           0       -1.167307   -3.952884    2.513592
     48          6           0       -2.056976   -2.713536    2.287971
     49          6           0       -3.137268   -2.349960    2.958462
     50          6           0       -3.739499   -3.075125    4.183919
     51          6           0       -4.020744   -1.287023    2.349505
     52          6           0       -4.727453   -1.764823    0.991857
     53          6           0       -6.234546   -1.611310    0.808912
     54          6           0       -6.711984   -0.157365    1.113572
     55          6           0       -7.698656   -0.174098    2.293143
     56          6           0       -7.284460    0.561932   -0.096750
     57          6           0       -8.575826    0.060777   -0.672159
     58          6           0       -9.729885    1.093131   -0.793658
     59          6           0      -11.086764    0.465939   -0.980114
     60          6           0      -11.544805    0.558397   -2.462707
     61          6           0      -12.207023    1.118956   -0.092723
     62          6           0      -13.263792    0.091831    0.284555
     63          6           0      -14.536171    0.803725    0.837290
     64          6           0      -15.756761    0.418063    0.036934
     65          6           0      -16.757860    1.607721   -0.243725
     66          6           0      -16.594703   -0.682447    0.729662
     67          1           0        1.404390    0.993877   -3.664572
     68          1           0        3.969071    5.342352    0.596610
     69          1           0        7.440241    1.016812    3.208157
     70          1           0        3.553352   -3.219514   -3.070000
     71          1           0        1.182192   -1.564130   -3.145230
     72          1           0        2.209701   -2.530141   -5.171253
     73          1           0        3.539745   -1.313600   -5.147521
     74          1           0        1.839356   -0.825907   -5.364839
     75          1           0        2.280819   -4.588448   -1.873082
     76          1           0        0.923341   -3.483903   -2.043551
     77          1           0        2.039430   -2.505215    0.249834
     78          1           0        2.335792   -4.073781    0.392482
     79          1           0        0.930594    4.507096   -4.359115
     80          1           0        0.135759    3.115309   -3.360376
     81          1           0        1.337050    2.863329   -4.614465
     82          1           0        3.904816    6.918175   -0.857448
     83          1           0        2.360149    6.770578   -0.031866
     84          1           0        2.556338    8.010334   -1.309021
     85          1           0        4.748027    4.961440    2.823996
     86          1           0        7.419795    3.589719    2.791335
     87          1           0        5.755984    6.625301    1.587115
     88          1           0        6.984431    5.565828    0.842420
     89          1           0        7.162465    6.021002    2.488187
     90          1           0        5.710054    2.103740    4.621164
     91          1           0        5.193109    3.752351    4.736376
     92          1           0        8.150402    3.763500    4.791212
     93          1           0        7.673451    2.337034    5.648315
     94          1           0        7.086418    3.906142    6.211933
     95          1           0        9.134551   -1.752474    2.673941
     96          1           0        8.076129   -3.042038    3.141774
     97          1           0        7.933967   -1.469902    3.927268
     98          1           0        4.606862   -4.506617   -0.362653
     99          1           0        6.077214   -4.374436   -4.562615
    100          1           0        7.710023   -3.776764   -4.264670
    101          1           0        6.427502   -2.732866   -4.903376
    102          1           0       -0.978960   -4.084337    3.579848
    103          1           0       -1.481216   -4.906936    2.088880
    104          1           0       -1.693083   -2.039832    1.512060
    105          1           0       -4.776004   -3.394892    4.082103
    106          1           0       -3.795427   -2.406066    5.041943
    107          1           0       -3.130206   -3.963240    4.354381
    108          1           0       -3.341516   -0.467326    2.115267
    109          1           0       -4.675225   -0.836476    3.095818
    110          1           0       -4.496724   -2.815070    0.813940
    111          1           0       -4.313141   -1.140414    0.199672
    112          1           0       -6.727897   -2.255051    1.537740
    113          1           0       -6.526152   -2.015253   -0.160730
    114          1           0       -5.861893    0.409400    1.493823
    115          1           0       -8.595581   -0.762277    2.101248
    116          1           0       -8.096262    0.828784    2.447346
    117          1           0       -7.158014   -0.431074    3.204873
    118          1           0       -6.517227    0.442965   -0.861771
    119          1           0       -7.457747    1.618005    0.108509
    120          1           0       -9.007978   -0.800779   -0.163813
    121          1           0       -8.383950   -0.507496   -1.581978
    122          1           0       -9.439671    1.797229   -1.573879
    123          1           0       -9.745996    1.558352    0.191735
    124          1           0      -11.050828   -0.560399   -0.614650
    125          1           0      -11.709501   -0.486931   -2.723428
    126          1           0      -10.762503    0.874371   -3.153429
    127          1           0      -12.430891    1.175253   -2.608711
    128          1           0      -12.643455    1.945955   -0.652932
    129          1           0      -11.816238    1.573040    0.818103
    130          1           0      -13.055005   -0.504622    1.172364
    131          1           0      -13.521515   -0.653636   -0.467817
    132          1           0      -14.367408    1.878224    0.766879
    133          1           0      -14.625530    0.560220    1.896472
    134          1           0      -15.431203   -0.038752   -0.898642
    135          1           0      -16.785164    1.943923   -1.280150
    136          1           0      -16.370751    2.508763    0.232161
    137          1           0      -17.750226    1.334508    0.114981
    138          1           0      -16.994504   -1.491268    0.119209
    139          1           0      -17.314512   -0.272201    1.437805
    140          1           0      -15.904413   -1.187674    1.404438
 ---------------------------------------------------------------------

 SCF Done:  E(RwB97XD) =  -3007.87664548     A.U. after   19 cycles

 Excitation energies and oscillator strengths:

 Excited State   1:      Singlet-A      1.6457 eV  753.36 nm  f=0.3666  <S**2>=0.000
     245 -> 248       -0.18201
     246 -> 247        0.68434
     245 <- 248       -0.11658
 This state for optimization and/or second-order correction.
 Total Energy, E(TD-HF/TD-DFT) =  -3007.81616566
 Copying the excited state density for this state as the 1-particle RhoCI density.

 Excited State   2:      Singlet-A      2.2582 eV  549.03 nm  f=0.0521  <S**2>=0.000
     245 -> 247        0.60570
     246 -> 248        0.35220

 Excited State   3:      Singlet-A      3.2924 eV  376.58 nm  f=0.0487  <S**2>=0.000
     239 -> 247        0.10431
     240 -> 247        0.23238
     240 -> 249       -0.23289
     241 -> 247        0.41773
     241 -> 249       -0.32170
     245 -> 247       -0.10170
     246 -> 248        0.21765

 Excited State   4:      Singlet-A      3.3514 eV  369.95 nm  f=0.0442  <S**2>=0.000
     241 -> 247       -0.10357
     244 -> 247        0.61984
     244 -> 249        0.10682
     246 -> 248        0.23882

 Excited State   5:      Singlet-A      3.4852 eV  355.75 nm  f=0.5629  <S**2>=0.000
     240 -> 247       -0.28169
     240 -> 249        0.12067
     244 -> 247       -0.24712
     245 -> 247       -0.29835
     246 -> 248        0.48662

 The electronic state is 1-A.
 Alpha  occ. eigenvalues --  -46.94812 -19.30820 -19.29401 -19.25418 -19.25146
 Alpha  occ. eigenvalues --  -19.24219 -19.23013 -14.47131 -14.46281 -14.44330
 Alpha  occ. eigenvalues --  -14.43914 -10.44552 -10.44042 -10.39415 -10.38330
 Alpha  occ. eigenvalues --  -10.37006 -10.36570 -10.35683 -10.34863 -10.34553
 Alpha  occ. eigenvalues --  -10.34500 -10.34496 -10.34377 -10.34213 -10.33319
 Alpha  occ. eigenvalues --  -10.32844 -10.32726 -10.32619 -10.32492 -10.32407
 Alpha  occ. eigenvalues --  -10.32376 -10.31986 -10.31952 -10.31631 -10.31105
 Alpha  occ. eigenvalues --  -10.30954 -10.30846 -10.30779 -10.30733 -10.30640
 Alpha  occ. eigenvalues --  -10.30595 -10.30425 -10.30300 -10.30108 -10.29972
 Alpha  occ. eigenvalues --  -10.29941 -10.29611 -10.29570 -10.29444 -10.29350
 Alpha  occ. eigenvalues --  -10.29256 -10.29091 -10.29080 -10.29079 -10.28615
 Alpha  occ. eigenvalues --  -10.28610 -10.28359 -10.28309 -10.28173 -10.28021
 Alpha  occ. eigenvalues --  -10.28008 -10.27964 -10.27901 -10.27871 -10.27828
 Alpha  occ. eigenvalues --  -10.27794  -3.20935  -1.94480  -1.94083  -1.93905
 Alpha  occ. eigenvalues --   -1.17510  -1.17508  -1.11735  -1.09929  -1.09658
 Alpha  occ. eigenvalues --   -1.08761  -1.06919  -1.05631  -1.05457  -1.04398
 Alpha  occ. eigenvalues --   -0.95351  -0.92163  -0.91575  -0.91468  -0.90770
 Alpha  occ. eigenvalues --   -0.90589  -0.90461  -0.90031  -0.89353  -0.89224
 Alpha  occ. eigenvalues --   -0.88340  -0.87042  -0.86232  -0.85803  -0.85243
 Alpha  occ. eigenvalues --   -0.84155  -0.83841  -0.83168  -0.82757  -0.82247
 Alpha  occ. eigenvalues --   -0.81272  -0.80486  -0.80156  -0.79525  -0.79001
 Alpha  occ. eigenvalues --   -0.78123  -0.77319  -0.76695  -0.76599  -0.75978
 Alpha  occ. eigenvalues --   -0.75492  -0.75032  -0.73925  -0.72509  -0.71798
 Alpha  occ. eigenvalues --   -0.71112  -0.70776  -0.69036  -0.68406  -0.68211
 Alpha  occ. eigenvalues --   -0.67664  -0.67245  -0.66913  -0.66749  -0.65770
 Alpha  occ. eigenvalues --   -0.65744  -0.64604  -0.63999  -0.63079  -0.62222
 Alpha  occ. eigenvalues --   -0.61573  -0.61531  -0.60851  -0.59979  -0.59918
 Alpha  occ. eigenvalues --   -0.59752  -0.59072  -0.58456  -0.58074  -0.57291
 Alpha  occ. eigenvalues --   -0.57061  -0.56585  -0.56282  -0.55902  -0.55812
 Alpha  occ. eigenvalues --   -0.55730  -0.55160  -0.55078  -0.54854  -0.54741
 Alpha  occ. eigenvalues --   -0.54360  -0.54231  -0.54154  -0.53992  -0.53741
 Alpha  occ. eigenvalues --   -0.53518  -0.53465  -0.53085  -0.52885  -0.52816
 Alpha  occ. eigenvalues --   -0.52324  -0.52064  -0.51904  -0.51754  -0.51623
 Alpha  occ. eigenvalues --   -0.51428  -0.51159  -0.51009  -0.50815  -0.50651
 Alpha  occ. eigenvalues --   -0.50515  -0.50438  -0.50241  -0.49796  -0.49487
 Alpha  occ. eigenvalues --   -0.49167  -0.49122  -0.48969  -0.48839  -0.48754
 Alpha  occ. eigenvalues --   -0.48361  -0.48149  -0.47833  -0.47785  -0.47447
 Alpha  occ. eigenvalues --   -0.47422  -0.47205  -0.47110  -0.46573  -0.46517
 Alpha  occ. eigenvalues --   -0.46354  -0.46260  -0.46229  -0.46062  -0.45864
 Alpha  occ. eigenvalues --   -0.45780  -0.45594  -0.45394  -0.45179  -0.44950
 Alpha  occ. eigenvalues --   -0.44821  -0.44712  -0.44659  -0.44238  -0.44050
 Alpha  occ. eigenvalues --   -0.43788  -0.43630  -0.43469  -0.43430  -0.43362
 Alpha  occ. eigenvalues --   -0.43099  -0.42960  -0.42689  -0.42502  -0.42137
 Alpha  occ. eigenvalues --   -0.41799  -0.41709  -0.41217  -0.41071  -0.40853
 Alpha  occ. eigenvalues --   -0.40284  -0.40121  -0.40090  -0.39738  -0.39311
 Alpha  occ. eigenvalues --   -0.38909  -0.38862  -0.38843  -0.38537  -0.38067
 Alpha  occ. eigenvalues --   -0.37638  -0.37561  -0.36988  -0.36939  -0.36586
 Alpha  occ. eigenvalues --   -0.36380  -0.35790  -0.35590  -0.34014  -0.33317
 Alpha  occ. eigenvalues --   -0.32864  -0.32374  -0.31841  -0.31177  -0.26591
 Alpha  occ. eigenvalues --   -0.22713
 Alpha virt. eigenvalues --   -0.06825  -0.00140   0.01879   0.04296   0.04718
 Alpha virt. eigenvalues --    0.06419   0.07356   0.07884   0.08122   0.09700
 Alpha virt. eigenvalues --    0.10544   0.10960   0.11731   0.11924   0.12256

 Mulliken charges:
               1
     1  Mg   0.978428
     2  C   -0.053427
     3  C   -0.125046
     4  C   -0.035414
     5  C   -0.115549
     6  N   -0.357314
     7  C   -0.037241
     8  C    0.031234
     9  C   -0.115745
    10  C    0.092461
    11  C    0.010293
    12  C    0.012998
    13  C   -0.065737
    14  C    0.251624
    15  O   -0.236557
    16  O   -0.407763
    17  N   -0.491777
    18  C    0.178997
    19  C   -0.179829
    20  C   -0.061097
    21  C    0.183307
    22  C    0.096560
    23  C    0.024899
    24  O   -0.231991
    25  C   -0.000195
    26  N   -0.365927
    27  C    0.010894
    28  C   -0.112910
    29  C   -0.031685
    30  C    0.032173
    31  C   -0.009606
    32  C    0.006930
    33  C   -0.064223
    34  N   -0.436998
    35  C    0.157391
    36  C   -0.199490
    37  C    0.026293
    38  C    0.190078
    39  C    0.074926
    40  C    0.103676
    41  O   -0.241665
    42  C   -0.101932
    43  C    0.310644
    44  O   -0.243037
    45  O   -0.387773
    46  C    0.142276
    47  C    0.255920
    48  C   -0.128202
    49  C   -0.202043
    50  C    0.031053
    51  C    0.012901
    52  C   -0.026856
    53  C    0.024407
    54  C   -0.186504
    55  C   -0.007861
    56  C    0.066499
    57  C   -0.074441
    58  C    0.048786
    59  C   -0.191513
    60  C    0.015861
    61  C    0.003249
    62  C   -0.049878
    63  C    0.017391
    64  C   -0.223519
    65  C    0.007442
    66  C   -0.009541
    67  H    0.005068
    68  H   -0.041561
    69  H   -0.008666
    70  H    0.020310
    71  H    0.043732
    72  H    0.042320
    73  H    0.041569
    74  H    0.041233
    75  H    0.042815
    76  H    0.044895
    77  H    0.068757
    78  H    0.044018
    79  H    0.062417
    80  H    0.051631
    81  H    0.028423
    82  H    0.050931
    83  H    0.063765
    84  H    0.053660
    85  H    0.045667
    86  H    0.030970
    87  H    0.047001
    88  H    0.038705
    89  H    0.037492
    90  H    0.043181
    91  H    0.036251
    92  H    0.036115
    93  H    0.039534
    94  H    0.043266
    95  H    0.054614
    96  H    0.058228
    97  H    0.035934
    98  H    0.088121
    99  H    0.050594
   100  H    0.071884
   101  H    0.058782
   102  H    0.059463
   103  H    0.063443
   104  H    0.034300
   105  H    0.039914
   106  H    0.045882
   107  H    0.023820
   108  H    0.030882
   109  H    0.011554
   110  H    0.041584
   111  H    0.024724
   112  H    0.003712
   113  H    0.024629
   114  H    0.020962
   115  H    0.029975
   116  H    0.013614
   117  H    0.027483
   118  H    0.013397
   119  H    0.015670
   120  H   -0.008977
   121  H    0.002191
   122  H    0.028540
   123  H    0.003234
   124  H    0.022541
   125  H    0.025817
   126  H    0.026090
   127  H    0.036891
   128  H    0.017938
   129  H    0.017845
   130  H    0.018998
   131  H    0.022454
   132  H    0.012199
   133  H    0.018897
   134  H    0.026506
   135  H    0.025831
   136  H    0.015673
   137  H    0.033231
   138  H    0.039717
   139  H    0.027561
   140  H    0.000858
 Sum of Mulliken charges =  -0.00000

 Dipole moment (field-independent basis, Debye):
    X=              1.1518    Y=              3.3011    Z=              1.4725  Tot=              3.7937
 Quadrupole moment (field-independent basis, Debye-Ang):
   XX=           -394.6875   YY=           -442.8996   ZZ=           -373.4596
   XY=             54.7757   XZ=             -7.7700   YZ=             28.7425

 Normal termination of Gaussian 16 at Wed Apr 27 14:25:20 2022.
