 Gaussian 16, Revision A.03,
 Gaussian 16:  ES64L-G16RevA.03 25-Dec-2016

 --------------------
 #p ZINDO=(nstates=5)
 --------------------

 -----------------------------
 step_1201_chromophore_2 ZINDO
 -----------------------------
 Symbolic Z-matrix:
 Charge =  0 Multiplicity = 1

                         Standard orientation:
 ---------------------------------------------------------------------
 Center     Atomic      Atomic             Coordinates (Angstroms)
 Number     Number       Type             X           Y           Z
 ---------------------------------------------------------------------
      1         12           0        4.786143    1.175198   -0.598187
      2          6           0        4.867169   -2.259059   -0.691379
      3          6           0        2.218988    1.060111   -2.940631
      4          6           0        3.981943    4.311997    0.235896
      5          6           0        6.825999    0.974242    2.305603
      6          7           0        3.612560   -0.434613   -1.549088
      7          6           0        3.862866   -1.775336   -1.546955
      8          6           0        2.923702   -2.576918   -2.454887
      9          6           0        2.256671   -1.466892   -3.300124
     10          6           0        2.772609   -0.159081   -2.602376
     11          6           0        2.508655   -1.527125   -4.865306
     12          6           0        1.941853   -3.573471   -1.667119
     13          6           0        1.642505   -3.435938   -0.155251
     14          6           0        0.189672   -3.711321    0.439196
     15          8           0       -0.763654   -3.928729   -0.263696
     16          8           0        0.136889   -3.659859    1.847868
     17          7           0        3.506669    2.524743   -1.414126
     18          6           0        2.541383    2.305332   -2.353851
     19          6           0        1.969339    3.531620   -2.747082
     20          6           0        2.516781    4.530971   -1.933192
     21          6           0        3.336952    3.831321   -0.959740
     22          6           0        1.013204    3.554139   -3.836474
     23          6           0        2.293477    6.039608   -2.008631
     24          8           0        1.563222    6.491869   -2.875559
     25          6           0        2.826110    7.004310   -0.989611
     26          7           0        5.236599    2.400335    1.098630
     27          6           0        4.903527    3.734268    1.072572
     28          6           0        5.544874    4.497555    2.243623
     29          6           0        6.365353    3.365845    2.955438
     30          6           0        6.172921    2.173237    2.062718
     31          6           0        6.407428    5.765157    1.745133
     32          6           0        6.045734    3.129352    4.468825
     33          6           0        7.313321    3.313985    5.325856
     34          7           0        5.761349   -0.253163    0.529063
     35          6           0        6.567304   -0.217885    1.677371
     36          6           0        7.059881   -1.580019    1.932832
     37          6           0        6.438293   -2.358693    1.047743
     38          6           0        5.644222   -1.536454    0.203751
     39          6           0        8.108673   -1.965997    2.972855
     40          6           0        6.274381   -3.725135    0.613798
     41          8           0        6.784376   -4.765606    1.152143
     42          6           0        5.351198   -3.744341   -0.591159
     43          6           0        6.183116   -4.206876   -1.800338
     44          8           0        6.698000   -5.314654   -2.016295
     45          8           0        6.150891   -3.238626   -2.792716
     46          6           0        6.650587   -3.526052   -4.190508
     47          6           0       -1.167307   -3.952884    2.513592
     48          6           0       -2.056976   -2.713536    2.287971
     49          6           0       -3.137268   -2.349960    2.958462
     50          6           0       -3.739499   -3.075125    4.183919
     51          6           0       -4.020744   -1.287023    2.349505
     52          6           0       -4.727453   -1.764823    0.991857
     53          6           0       -6.234546   -1.611310    0.808912
     54          6           0       -6.711984   -0.157365    1.113572
     55          6           0       -7.698656   -0.174098    2.293143
     56          6           0       -7.284460    0.561932   -0.096750
     57          6           0       -8.575826    0.060777   -0.672159
     58          6           0       -9.729885    1.093131   -0.793658
     59          6           0      -11.086764    0.465939   -0.980114
     60          6           0      -11.544805    0.558397   -2.462707
     61          6           0      -12.207023    1.118956   -0.092723
     62          6           0      -13.263792    0.091831    0.284555
     63          6           0      -14.536171    0.803725    0.837290
     64          6           0      -15.756761    0.418063    0.036934
     65          6           0      -16.757860    1.607721   -0.243725
     66          6           0      -16.594703   -0.682447    0.729662
     67          1           0        1.404390    0.993877   -3.664572
     68          1           0        3.969071    5.342352    0.596610
     69          1           0        7.440241    1.016812    3.208157
     70          1           0        3.553352   -3.219514   -3.070000
     71          1           0        1.182192   -1.564130   -3.145230
     72          1           0        2.209701   -2.530141   -5.171253
     73          1           0        3.539745   -1.313600   -5.147521
     74          1           0        1.839356   -0.825907   -5.364839
     75          1           0        2.280819   -4.588448   -1.873082
     76          1           0        0.923341   -3.483903   -2.043551
     77          1           0        2.039430   -2.505215    0.249834
     78          1           0        2.335792   -4.073781    0.392482
     79          1           0        0.930594    4.507096   -4.359115
     80          1           0        0.135759    3.115309   -3.360376
     81          1           0        1.337050    2.863329   -4.614465
     82          1           0        3.904816    6.918175   -0.857448
     83          1           0        2.360149    6.770578   -0.031866
     84          1           0        2.556338    8.010334   -1.309021
     85          1           0        4.748027    4.961440    2.823996
     86          1           0        7.419795    3.589719    2.791335
     87          1           0        5.755984    6.625301    1.587115
     88          1           0        6.984431    5.565828    0.842420
     89          1           0        7.162465    6.021002    2.488187
     90          1           0        5.710054    2.103740    4.621164
     91          1           0        5.193109    3.752351    4.736376
     92          1           0        8.150402    3.763500    4.791212
     93          1           0        7.673451    2.337034    5.648315
     94          1           0        7.086418    3.906142    6.211933
     95          1           0        9.134551   -1.752474    2.673941
     96          1           0        8.076129   -3.042038    3.141774
     97          1           0        7.933967   -1.469902    3.927268
     98          1           0        4.606862   -4.506617   -0.362653
     99          1           0        6.077214   -4.374436   -4.562615
    100          1           0        7.710023   -3.776764   -4.264670
    101          1           0        6.427502   -2.732866   -4.903376
    102          1           0       -0.978960   -4.084337    3.579848
    103          1           0       -1.481216   -4.906936    2.088880
    104          1           0       -1.693083   -2.039832    1.512060
    105          1           0       -4.776004   -3.394892    4.082103
    106          1           0       -3.795427   -2.406066    5.041943
    107          1           0       -3.130206   -3.963240    4.354381
    108          1           0       -3.341516   -0.467326    2.115267
    109          1           0       -4.675225   -0.836476    3.095818
    110          1           0       -4.496724   -2.815070    0.813940
    111          1           0       -4.313141   -1.140414    0.199672
    112          1           0       -6.727897   -2.255051    1.537740
    113          1           0       -6.526152   -2.015253   -0.160730
    114          1           0       -5.861893    0.409400    1.493823
    115          1           0       -8.595581   -0.762277    2.101248
    116          1           0       -8.096262    0.828784    2.447346
    117          1           0       -7.158014   -0.431074    3.204873
    118          1           0       -6.517227    0.442965   -0.861771
    119          1           0       -7.457747    1.618005    0.108509
    120          1           0       -9.007978   -0.800779   -0.163813
    121          1           0       -8.383950   -0.507496   -1.581978
    122          1           0       -9.439671    1.797229   -1.573879
    123          1           0       -9.745996    1.558352    0.191735
    124          1           0      -11.050828   -0.560399   -0.614650
    125          1           0      -11.709501   -0.486931   -2.723428
    126          1           0      -10.762503    0.874371   -3.153429
    127          1           0      -12.430891    1.175253   -2.608711
    128          1           0      -12.643455    1.945955   -0.652932
    129          1           0      -11.816238    1.573040    0.818103
    130          1           0      -13.055005   -0.504622    1.172364
    131          1           0      -13.521515   -0.653636   -0.467817
    132          1           0      -14.367408    1.878224    0.766879
    133          1           0      -14.625530    0.560220    1.896472
    134          1           0      -15.431203   -0.038752   -0.898642
    135          1           0      -16.785164    1.943923   -1.280150
    136          1           0      -16.370751    2.508763    0.232161
    137          1           0      -17.750226    1.334508    0.114981
    138          1           0      -16.994504   -1.491268    0.119209
    139          1           0      -17.314512   -0.272201    1.437805
    140          1           0      -15.904413   -1.187674    1.404438
 ---------------------------------------------------------------------

 SCF Done:  E(RZINDO/S) =  -474.259489404     A.U. after   17 cycles

 Excitation energies and oscillator strengths:

 Excited State   1:      Singlet-A      1.2474 eV  993.93 nm  f=0.5763  <S**2>=0.000
     175 ->178        -0.18536
     176 ->177         0.66578
 This state for optimization and/or second-order correction.
 Total Energy, E(CIS/TDA) =  -474.213647793
 Copying the excited state density for this state as the 1-particle RhoCI density.

 Excited State   2:      Singlet-A      1.9284 eV  642.93 nm  f=0.0009  <S**2>=0.000
     175 ->177         0.48567
     176 ->178         0.49139

 Excited State   3:      Singlet-A      2.8142 eV  440.57 nm  f=0.0233  <S**2>=0.000
     168 ->177         0.36045
     168 ->178         0.10206
     168 ->179        -0.47578
     168 ->182         0.15829
     168 ->185        -0.16525
     168 ->195         0.11359

 Excited State   4:      Singlet-A      2.8926 eV  428.63 nm  f=0.0523  <S**2>=0.000
     176 ->179         0.32678
     176 ->180         0.59073
     176 ->181         0.10325

 Excited State   5:      Singlet-A      2.9136 eV  425.54 nm  f=0.3592  <S**2>=0.000
     175 ->177         0.29274
     176 ->178        -0.34115
     176 ->179         0.45161
     176 ->180        -0.11994
     176 ->181        -0.16756

 The electronic state is 1-A.
 Alpha  occ. eigenvalues --   -1.86903  -1.81908  -1.80364  -1.71912  -1.69802
 Alpha  occ. eigenvalues --   -1.69512  -1.66310  -1.61994  -1.58991  -1.57693
 Alpha  occ. eigenvalues --   -1.55567  -1.51374  -1.48490  -1.47831  -1.47246
 Alpha  occ. eigenvalues --   -1.43321  -1.42341  -1.41913  -1.40318  -1.38898
 Alpha  occ. eigenvalues --   -1.36037  -1.33819  -1.31952  -1.30933  -1.28621
 Alpha  occ. eigenvalues --   -1.28202  -1.25713  -1.22939  -1.19513  -1.18843
 Alpha  occ. eigenvalues --   -1.16445  -1.16172  -1.14959  -1.14115  -1.13367
 Alpha  occ. eigenvalues --   -1.12891  -1.10884  -1.09358  -1.07496  -1.05075
 Alpha  occ. eigenvalues --   -1.03182  -1.02234  -0.99788  -0.98710  -0.97988
 Alpha  occ. eigenvalues --   -0.96951  -0.95213  -0.94257  -0.93320  -0.92136
 Alpha  occ. eigenvalues --   -0.91398  -0.91268  -0.88772  -0.88077  -0.85779
 Alpha  occ. eigenvalues --   -0.84978  -0.84516  -0.82887  -0.81974  -0.80222
 Alpha  occ. eigenvalues --   -0.79260  -0.78412  -0.77181  -0.76551  -0.76473
 Alpha  occ. eigenvalues --   -0.76121  -0.75312  -0.74328  -0.73941  -0.73242
 Alpha  occ. eigenvalues --   -0.73120  -0.72517  -0.72246  -0.71743  -0.70913
 Alpha  occ. eigenvalues --   -0.70748  -0.69623  -0.69309  -0.68558  -0.68384
 Alpha  occ. eigenvalues --   -0.67363  -0.66971  -0.66375  -0.65721  -0.65037
 Alpha  occ. eigenvalues --   -0.64818  -0.64570  -0.64163  -0.64044  -0.63937
 Alpha  occ. eigenvalues --   -0.63097  -0.62927  -0.62607  -0.62471  -0.62003
 Alpha  occ. eigenvalues --   -0.61640  -0.61184  -0.60914  -0.60181  -0.60030
 Alpha  occ. eigenvalues --   -0.59806  -0.59056  -0.58774  -0.58408  -0.58032
 Alpha  occ. eigenvalues --   -0.57824  -0.57506  -0.56804  -0.56741  -0.56193
 Alpha  occ. eigenvalues --   -0.56118  -0.55953  -0.55856  -0.55554  -0.55055
 Alpha  occ. eigenvalues --   -0.54627  -0.54409  -0.53818  -0.53725  -0.53613
 Alpha  occ. eigenvalues --   -0.52951  -0.52825  -0.52586  -0.52439  -0.51801
 Alpha  occ. eigenvalues --   -0.51410  -0.51337  -0.51030  -0.50768  -0.50335
 Alpha  occ. eigenvalues --   -0.50001  -0.49759  -0.49485  -0.49027  -0.48977
 Alpha  occ. eigenvalues --   -0.48870  -0.48359  -0.47933  -0.47745  -0.47518
 Alpha  occ. eigenvalues --   -0.47312  -0.47130  -0.46938  -0.46842  -0.46720
 Alpha  occ. eigenvalues --   -0.46526  -0.46320  -0.46285  -0.45483  -0.45315
 Alpha  occ. eigenvalues --   -0.45029  -0.44677  -0.44511  -0.44339  -0.44150
 Alpha  occ. eigenvalues --   -0.43625  -0.43543  -0.43262  -0.42415  -0.42354
 Alpha  occ. eigenvalues --   -0.42192  -0.42028  -0.41294  -0.40135  -0.39409
 Alpha  occ. eigenvalues --   -0.39004  -0.38141  -0.36163  -0.35275  -0.35030
 Alpha  occ. eigenvalues --   -0.34692  -0.33171  -0.32191  -0.31708  -0.27546
 Alpha  occ. eigenvalues --   -0.21716
 Alpha virt. eigenvalues --   -0.08479  -0.02614  -0.01310   0.00678   0.00993
 Alpha virt. eigenvalues --    0.01642   0.01987   0.02651   0.04415   0.05092
 Alpha virt. eigenvalues --    0.06036   0.06110   0.06603   0.07381   0.07724

 Mulliken charges:
               1
     1  Mg   0.433706
     2  C   -0.067280
     3  C   -0.064961
     4  C   -0.084146
     5  C   -0.070333
     6  N   -0.281902
     7  C    0.152645
     8  C    0.010438
     9  C   -0.004057
    10  C    0.089865
    11  C   -0.049633
    12  C   -0.025968
    13  C    0.001954
    14  C    0.465881
    15  O   -0.496658
    16  O   -0.294365
    17  N   -0.321571
    18  C    0.084296
    19  C    0.037500
    20  C   -0.057840
    21  C    0.104738
    22  C   -0.037573
    23  C    0.323300
    24  O   -0.528001
    25  C   -0.026096
    26  N   -0.282717
    27  C    0.106285
    28  C   -0.005925
    29  C    0.004895
    30  C    0.159256
    31  C   -0.056049
    32  C   -0.023637
    33  C   -0.055201
    34  N   -0.332714
    35  C    0.117151
    36  C    0.054481
    37  C   -0.025062
    38  C    0.136280
    39  C   -0.039390
    40  C    0.329455
    41  O   -0.530207
    42  C    0.057534
    43  C    0.481256
    44  O   -0.496709
    45  O   -0.286328
    46  C    0.075114
    47  C    0.106439
    48  C   -0.071536
    49  C   -0.007824
    50  C   -0.047881
    51  C   -0.023531
    52  C   -0.028207
    53  C   -0.031582
    54  C   -0.006213
    55  C   -0.057941
    56  C   -0.022174
    57  C   -0.042207
    58  C   -0.030159
    59  C   -0.014521
    60  C   -0.060077
    61  C   -0.030556
    62  C   -0.043720
    63  C   -0.033057
    64  C   -0.008407
    65  C   -0.066976
    66  C   -0.063217
    67  H    0.033745
    68  H    0.025516
    69  H    0.023938
    70  H    0.032813
    71  H    0.032164
    72  H    0.018353
    73  H    0.028823
    74  H    0.022763
    75  H    0.026366
    76  H    0.034963
    77  H    0.042344
    78  H    0.030316
    79  H    0.041811
    80  H    0.040040
    81  H    0.016427
    82  H    0.032128
    83  H    0.037703
    84  H    0.037191
    85  H    0.034043
    86  H    0.032522
    87  H    0.023704
    88  H    0.024152
    89  H    0.015233
    90  H    0.022432
    91  H    0.027860
    92  H    0.022523
    93  H    0.018336
    94  H    0.020318
    95  H    0.036920
    96  H    0.035221
    97  H    0.024881
    98  H    0.072881
    99  H    0.036983
   100  H    0.052625
   101  H    0.036813
   102  H    0.040386
   103  H    0.058067
   104  H    0.040374
   105  H    0.026633
   106  H    0.029637
   107  H    0.019638
   108  H    0.016724
   109  H    0.020924
   110  H    0.022664
   111  H    0.019077
   112  H    0.009667
   113  H    0.024029
   114  H    0.017190
   115  H    0.024305
   116  H    0.004852
   117  H    0.017405
   118  H    0.011312
   119  H    0.016811
   120  H    0.011298
   121  H    0.011263
   122  H    0.025250
   123  H    0.014890
   124  H    0.024704
   125  H    0.012728
   126  H    0.018417
   127  H    0.027862
   128  H    0.019693
   129  H    0.017290
   130  H    0.015048
   131  H    0.026607
   132  H    0.014546
   133  H    0.019823
   134  H    0.022210
   135  H    0.015816
   136  H    0.015851
   137  H    0.026465
   138  H    0.025302
   139  H    0.021314
   140  H    0.000719
 Sum of Mulliken charges =  -0.00000

 Dipole moment (field-independent basis, Debye):
    X=              2.4625    Y=              3.2042    Z=              4.2854  Tot=              5.8903
 N-N= 4.354919789473D+03 E-N= 0.000000000000D+00  KE=-9.383614462206D+03
 Leave Link  601 at Wed Apr 27 14:38:41 2022, MaxMem=  6710886400 cpu:               0.9 elap:               0.1
 (Enter /sw/apps/gaussian-16.0/g16/l9999.exe)
 1\1\GINC-BP1-COMPUTE198\SP\RZINDO CIS\STO-3G\C55H74Mg1N4O6\OF15641\27-
 Apr-2022\0\\#p ZINDO=(nstates=5)\\step_1201_chromophore_2 ZINDO\\0,1\M
 g,0,2.993,0.749,44.097\C,0,5.878,2.556,43.627\C,0,1.295,3.23,42.35\C,0
 ,0.482,-1.407,43.619\C,0,5.057,-1.954,45.13\N,0,3.587,2.572,43.003\C,0
 ,4.794,3.207,43.014\C,0,4.792,4.543,42.263\C,0,3.281,4.809,42.069\C,0,
 2.638,3.467,42.568\C,0,2.703,6.117,42.756\C,0,5.703,4.554,40.941\C,0,6
 .178,3.26,40.238\C,0,6.256,3.15,38.65\O,0,5.848,4.019,37.923\O,0,6.829

 Normal termination of Gaussian 16 at Wed Apr 27 14:38:42 2022.
