 Gaussian 16, Revision A.03,
 Gaussian 16:  ES64L-G16RevA.03 25-Dec-2016

 ------------------------------
 #p blyp/Def2SVP td=(nstates=5)
 ------------------------------

 -------------------------------------------------
 step_201_chromophore_7 TDDFT with blyp functional
 -------------------------------------------------
 Symbolic Z-matrix:
 Charge =  0 Multiplicity = 1

                         Standard orientation:
 ---------------------------------------------------------------------
 Center     Atomic      Atomic             Coordinates (Angstroms)
 Number     Number       Type             X           Y           Z
 ---------------------------------------------------------------------
      1         12           0        5.708812    0.426638   -0.171352
      2          6           0        3.697143   -2.243978    0.335179
      3          6           0        3.031839    2.178307   -1.562107
      4          6           0        7.602403    3.221460   -0.197255
      5          6           0        8.519777   -1.363251    0.958455
      6          7           0        3.624615   -0.096610   -0.750593
      7          6           0        2.998949   -1.158184   -0.192331
      8          6           0        1.431356   -1.052881   -0.530641
      9          6           0        1.308097    0.326048   -1.259878
     10          6           0        2.746136    0.831942   -1.257271
     11          6           0        0.625175    0.350643   -2.663993
     12          6           0        0.584177   -1.302308    0.753120
     13          6           0       -0.511556   -2.335866    0.729316
     14          6           0       -1.950817   -1.963228    1.091555
     15          8           0       -2.286868   -1.166466    1.956748
     16          8           0       -2.860335   -2.638504    0.327280
     17          7           0        5.319556    2.364666   -0.786338
     18          6           0        4.245921    2.889178   -1.389922
     19          6           0        4.364099    4.224866   -1.603088
     20          6           0        5.688581    4.627325   -1.271518
     21          6           0        6.295131    3.371493   -0.750686
     22          6           0        3.330729    5.076444   -2.398278
     23          6           0        6.387722    5.970704   -1.315414
     24          8           0        7.544055    6.212792   -0.957636
     25          6           0        5.688398    7.208138   -1.906853
     26          7           0        7.776027    0.821856    0.271062
     27          6           0        8.259572    2.113952    0.202640
     28          6           0        9.650784    2.208185    0.800851
     29          6           0        9.994065    0.690301    1.024825
     30          6           0        8.651464    0.001849    0.854125
     31          6           0       10.700512    2.974376   -0.021039
     32          6           0       10.635817    0.440488    2.451785
     33          6           0       11.962210   -0.391642    2.486457
     34          7           0        6.147296   -1.413538    0.376258
     35          6           0        7.322100   -2.026850    0.889663
     36          6           0        7.017662   -3.375993    1.215648
     37          6           0        5.687815   -3.529231    0.979149
     38          6           0        5.165436   -2.269958    0.504302
     39          6           0        8.043926   -4.282120    1.871982
     40          6           0        4.603123   -4.475284    0.999219
     41          8           0        4.559214   -5.614846    1.427866
     42          6           0        3.221441   -3.655227    0.607820
     43          6           0        2.586535   -4.310242   -0.543086
     44          8           0        2.971335   -4.238101   -1.719710
     45          8           0        1.595941   -5.047907   -0.103905
     46          6           0        0.810632   -5.716285   -1.135653
     47          6           0       -4.262797   -2.468367    0.561097
     48          6           0       -4.982780   -1.485033   -0.349639
     49          6           0       -6.268182   -1.216705   -0.497975
     50          6           0       -7.393400   -1.951558    0.260352
     51          6           0       -6.697441   -0.196882   -1.524834
     52          6           0       -7.369133   -0.917757   -2.767382
     53          6           0       -8.744038   -0.407743   -3.204651
     54          6           0       -9.872622   -1.429522   -2.848140
     55          6           0      -10.263095   -2.364270   -4.069943
     56          6           0      -11.215196   -0.756367   -2.378373
     57          6           0      -11.593635   -1.114298   -0.847145
     58          6           0      -11.751239    0.121677    0.128508
     59          6           0      -13.273271    0.503754    0.471052
     60          6           0      -13.905477    1.350484   -0.641296
     61          6           0      -13.456696    1.059897    1.888058
     62          6           0      -12.915268    2.474151    2.125408
     63          6           0      -11.755251    2.415620    3.228432
     64          6           0      -11.235042    3.857928    3.395158
     65          6           0       -9.755413    3.729857    3.498785
     66          6           0      -11.939374    4.548156    4.587615
     67          1           0        2.136519    2.639237   -1.985106
     68          1           0        8.128886    4.177103   -0.154464
     69          1           0        9.376864   -1.931436    1.326831
     70          1           0        1.237213   -1.908533   -1.178277
     71          1           0        0.836017    1.059992   -0.607415
     72          1           0        0.453315    1.361673   -3.035259
     73          1           0       -0.316207   -0.178511   -2.517541
     74          1           0        1.291694   -0.180589   -3.343697
     75          1           0        0.319989   -0.326477    1.160025
     76          1           0        1.320282   -1.737529    1.429439
     77          1           0       -0.279173   -3.057770    1.512846
     78          1           0       -0.469180   -3.018430   -0.119750
     79          1           0        3.787524    5.402757   -3.332396
     80          1           0        3.048718    5.903634   -1.745817
     81          1           0        2.445254    4.513729   -2.695198
     82          1           0        4.790705    7.402657   -1.320359
     83          1           0        5.349004    6.825421   -2.869770
     84          1           0        6.398631    8.034659   -1.886807
     85          1           0        9.610097    2.719214    1.763504
     86          1           0       10.530302    0.248600    0.184298
     87          1           0       10.184619    3.564578   -0.778205
     88          1           0       11.254049    2.276009   -0.648444
     89          1           0       11.360972    3.559355    0.618456
     90          1           0        9.921063   -0.177553    2.995235
     91          1           0       10.901277    1.276373    3.099338
     92          1           0       11.619350   -1.423544    2.566010
     93          1           0       12.581631   -0.215683    3.364600
     94          1           0       12.575161   -0.319993    1.587629
     95          1           0        7.364673   -5.022083    2.293511
     96          1           0        8.692415   -3.773721    2.585810
     97          1           0        8.627688   -4.735147    1.071030
     98          1           0        2.603912   -3.648544    1.506968
     99          1           0        0.003210   -5.012968   -1.338262
    100          1           0        0.408874   -6.639141   -0.717718
    101          1           0        1.380915   -6.055849   -2.000648
    102          1           0       -4.591094   -2.103460    1.534233
    103          1           0       -4.738937   -3.386412    0.216902
    104          1           0       -4.314654   -0.924869   -1.004742
    105          1           0       -7.970791   -1.227531    0.833965
    106          1           0       -6.949060   -2.708686    0.905352
    107          1           0       -8.081560   -2.389915   -0.463392
    108          1           0       -5.854283    0.416050   -1.843473
    109          1           0       -7.429684    0.469377   -1.069224
    110          1           0       -7.407774   -2.001249   -2.663224
    111          1           0       -6.825433   -0.654289   -3.674611
    112          1           0       -8.808753   -0.264960   -4.283097
    113          1           0       -9.015652    0.458375   -2.600991
    114          1           0       -9.597759   -2.173153   -2.100615
    115          1           0       -9.479318   -2.403044   -4.826078
    116          1           0      -11.221334   -2.141777   -4.539186
    117          1           0      -10.488042   -3.369492   -3.713154
    118          1           0      -12.045415   -0.870389   -3.074915
    119          1           0      -11.015447    0.313049   -2.456936
    120          1           0      -10.823393   -1.807693   -0.508503
    121          1           0      -12.542172   -1.648738   -0.796432
    122          1           0      -11.281551    0.968922   -0.371290
    123          1           0      -11.302348    0.041310    1.118532
    124          1           0      -13.894264   -0.391796    0.462885
    125          1           0      -14.326777    2.311556   -0.344020
    126          1           0      -14.736147    0.776796   -1.052154
    127          1           0      -13.280709    1.671804   -1.475211
    128          1           0      -12.993474    0.320529    2.540203
    129          1           0      -14.488348    0.892118    2.197943
    130          1           0      -13.809024    2.997536    2.466269
    131          1           0      -12.487040    2.839196    1.192206
    132          1           0      -10.929261    1.801103    2.869947
    133          1           0      -12.171723    1.983008    4.138540
    134          1           0      -11.539749    4.440218    2.524730
    135          1           0       -9.489391    2.803055    4.008218
    136          1           0       -9.230253    4.553838    3.982239
    137          1           0       -9.338035    3.684947    2.493718
    138          1           0      -12.626310    3.905694    5.138127
    139          1           0      -12.429777    5.486179    4.329935
    140          1           0      -11.168492    4.784147    5.322271
 ---------------------------------------------------------------------

 SCF Done:  E(RB-LYP) =  -3007.37431002     A.U. after   21 cycles

 Excitation energies and oscillator strengths:

 Excited State   1:      Singlet-A      1.7286 eV  717.24 nm  f=0.0070  <S**2>=0.000
     244 -> 247        0.67112
     245 -> 247       -0.18423
     246 -> 247       -0.12111
 This state for optimization and/or second-order correction.
 Total Energy, E(TD-HF/TD-DFT) =  -3007.31078424
 Copying the excited state density for this state as the 1-particle RhoCI density.

 Excited State   2:      Singlet-A      1.7889 eV  693.07 nm  f=0.2844  <S**2>=0.000
     244 -> 247        0.12501
     245 -> 248        0.17537
     246 -> 247        0.68382
     246 <- 247       -0.15560

 Excited State   3:      Singlet-A      2.0361 eV  608.92 nm  f=0.0596  <S**2>=0.000
     243 -> 247        0.50096
     244 -> 247        0.12437
     245 -> 247        0.44527
     246 -> 248       -0.16294

 Excited State   4:      Singlet-A      2.0506 eV  604.64 nm  f=0.0509  <S**2>=0.000
     243 -> 247        0.49789
     244 -> 247       -0.12374
     245 -> 247       -0.44566
     246 -> 248        0.17022

 Excited State   5:      Singlet-A      2.2822 eV  543.26 nm  f=0.0000  <S**2>=0.000
     242 -> 247        0.70710

 The electronic state is 1-A.
 Alpha  occ. eigenvalues --  -46.26255 -18.83288 -18.82921 -18.76965 -18.76625
 Alpha  occ. eigenvalues --  -18.75954 -18.75431 -14.03220 -14.02835 -14.01118
 Alpha  occ. eigenvalues --  -14.01000 -10.04755 -10.03613 -10.00346  -9.99868
 Alpha  occ. eigenvalues --   -9.98341  -9.98215  -9.97040  -9.96335  -9.96073
 Alpha  occ. eigenvalues --   -9.96034  -9.95649  -9.95493  -9.95281  -9.94821
 Alpha  occ. eigenvalues --   -9.94611  -9.94241  -9.94197  -9.94183  -9.93939
 Alpha  occ. eigenvalues --   -9.93743  -9.93494  -9.93410  -9.93232  -9.93224
 Alpha  occ. eigenvalues --   -9.93182  -9.93092  -9.92938  -9.92904  -9.92896
 Alpha  occ. eigenvalues --   -9.92748  -9.92575  -9.92546  -9.92425  -9.92390
 Alpha  occ. eigenvalues --   -9.92175  -9.91960  -9.91806  -9.91786  -9.91695
 Alpha  occ. eigenvalues --   -9.91676  -9.91608  -9.91602  -9.91539  -9.91484
 Alpha  occ. eigenvalues --   -9.91454  -9.91390  -9.91355  -9.91320  -9.91228
 Alpha  occ. eigenvalues --   -9.91155  -9.90838  -9.90471  -9.90462  -9.90385
 Alpha  occ. eigenvalues --   -9.90374  -2.91090  -1.71525  -1.70984  -1.70786
 Alpha  occ. eigenvalues --   -1.00021  -0.98766  -0.92138  -0.90930  -0.90308
 Alpha  occ. eigenvalues --   -0.89244  -0.87159  -0.86201  -0.86003  -0.85156
 Alpha  occ. eigenvalues --   -0.74944  -0.73774  -0.73038  -0.72748  -0.72531
 Alpha  occ. eigenvalues --   -0.71793  -0.71658  -0.71413  -0.71175  -0.70872
 Alpha  occ. eigenvalues --   -0.70175  -0.69477  -0.68405  -0.67928  -0.67045
 Alpha  occ. eigenvalues --   -0.66515  -0.66041  -0.65532  -0.64956  -0.64252
 Alpha  occ. eigenvalues --   -0.63486  -0.62930  -0.62421  -0.61908  -0.61107
 Alpha  occ. eigenvalues --   -0.60981  -0.60437  -0.60091  -0.59287  -0.58987
 Alpha  occ. eigenvalues --   -0.58561  -0.58419  -0.57041  -0.56008  -0.54377
 Alpha  occ. eigenvalues --   -0.54240  -0.53962  -0.53103  -0.52919  -0.51876
 Alpha  occ. eigenvalues --   -0.51488  -0.51342  -0.51085  -0.50746  -0.50133
 Alpha  occ. eigenvalues --   -0.49628  -0.49438  -0.48972  -0.47287  -0.46590
 Alpha  occ. eigenvalues --   -0.46164  -0.46042  -0.45660  -0.45432  -0.44855
 Alpha  occ. eigenvalues --   -0.44811  -0.43960  -0.43671  -0.43168  -0.42476
 Alpha  occ. eigenvalues --   -0.42210  -0.42090  -0.41626  -0.41441  -0.41409
 Alpha  occ. eigenvalues --   -0.41212  -0.40782  -0.40464  -0.40272  -0.40049
 Alpha  occ. eigenvalues --   -0.39937  -0.39623  -0.39336  -0.39261  -0.39124
 Alpha  occ. eigenvalues --   -0.39083  -0.38717  -0.38679  -0.38614  -0.38356
 Alpha  occ. eigenvalues --   -0.38019  -0.37516  -0.37434  -0.37387  -0.37270
 Alpha  occ. eigenvalues --   -0.37170  -0.36951  -0.36893  -0.36713  -0.36624
 Alpha  occ. eigenvalues --   -0.36458  -0.36304  -0.36041  -0.35959  -0.35808
 Alpha  occ. eigenvalues --   -0.35766  -0.35483  -0.35121  -0.34984  -0.34896
 Alpha  occ. eigenvalues --   -0.34597  -0.34540  -0.34513  -0.34309  -0.34122
 Alpha  occ. eigenvalues --   -0.34007  -0.33769  -0.33475  -0.33336  -0.33286
 Alpha  occ. eigenvalues --   -0.33174  -0.33006  -0.32903  -0.32716  -0.32339
 Alpha  occ. eigenvalues --   -0.32268  -0.31962  -0.31793  -0.31372  -0.31336
 Alpha  occ. eigenvalues --   -0.31254  -0.31168  -0.30983  -0.30735  -0.30640
 Alpha  occ. eigenvalues --   -0.30577  -0.30499  -0.30192  -0.30140  -0.30030
 Alpha  occ. eigenvalues --   -0.29791  -0.29663  -0.29519  -0.29307  -0.28972
 Alpha  occ. eigenvalues --   -0.28883  -0.28598  -0.28381  -0.27932  -0.27848
 Alpha  occ. eigenvalues --   -0.27646  -0.27108  -0.27069  -0.26966  -0.26743
 Alpha  occ. eigenvalues --   -0.26571  -0.26351  -0.25818  -0.25515  -0.25411
 Alpha  occ. eigenvalues --   -0.24998  -0.24810  -0.24093  -0.23932  -0.23371
 Alpha  occ. eigenvalues --   -0.23304  -0.22474  -0.22279  -0.21737  -0.21539
 Alpha  occ. eigenvalues --   -0.20824  -0.20355  -0.19356  -0.18288  -0.17616
 Alpha  occ. eigenvalues --   -0.16105
 Alpha virt. eigenvalues --   -0.11968  -0.07013  -0.06188  -0.04590  -0.02891
 Alpha virt. eigenvalues --   -0.02432  -0.01303  -0.01102  -0.00665   0.00143
 Alpha virt. eigenvalues --    0.00969   0.01610   0.02075   0.02232   0.02543

 Mulliken charges:
               1
     1  Mg   0.700138
     2  C    0.016070
     3  C   -0.073042
     4  C   -0.063634
     5  C   -0.083056
     6  N   -0.206092
     7  C   -0.079424
     8  C   -0.001373
     9  C    0.036046
    10  C   -0.031151
    11  C    0.127668
    12  C    0.165007
    13  C    0.137859
    14  C    0.051483
    15  O   -0.182707
    16  O   -0.247376
    17  N   -0.285351
    18  C    0.196402
    19  C   -0.166330
    20  C    0.053596
    21  C    0.069045
    22  C    0.155053
    23  C   -0.091192
    24  O   -0.175310
    25  C    0.140065
    26  N   -0.203977
    27  C    0.060834
    28  C    0.009333
    29  C    0.070542
    30  C    0.000667
    31  C    0.148993
    32  C    0.076957
    33  C    0.037171
    34  N   -0.307924
    35  C    0.132853
    36  C   -0.196911
    37  C    0.123365
    38  C    0.072583
    39  C    0.180394
    40  C   -0.056182
    41  O   -0.123621
    42  C    0.038446
    43  C    0.105909
    44  O   -0.214502
    45  O   -0.221261
    46  C    0.205823
    47  C    0.331585
    48  C   -0.130891
    49  C   -0.174500
    50  C    0.140115
    51  C    0.172788
    52  C    0.060240
    53  C    0.125753
    54  C   -0.122138
    55  C    0.079756
    56  C    0.089937
    57  C    0.087040
    58  C    0.090686
    59  C   -0.081939
    60  C    0.096616
    61  C    0.098394
    62  C    0.071721
    63  C    0.060168
    64  C   -0.076275
    65  C    0.127965
    66  C    0.114345
    67  H   -0.074409
    68  H   -0.037259
    69  H   -0.064875
    70  H   -0.019013
    71  H   -0.025136
    72  H   -0.000828
    73  H   -0.000208
    74  H    0.006509
    75  H   -0.014664
    76  H   -0.035368
    77  H    0.003842
    78  H   -0.029816
    79  H    0.016257
    80  H    0.004459
    81  H   -0.018017
    82  H   -0.001850
    83  H   -0.002232
    84  H    0.005135
    85  H   -0.015848
    86  H   -0.013369
    87  H   -0.005036
    88  H   -0.032406
    89  H   -0.001649
    90  H   -0.020434
    91  H   -0.010807
    92  H   -0.016818
    93  H   -0.011219
    94  H   -0.002721
    95  H    0.011456
    96  H    0.008802
    97  H    0.002896
    98  H   -0.000523
    99  H    0.019469
   100  H    0.014459
   101  H    0.032713
   102  H    0.020821
   103  H    0.004591
   104  H   -0.048655
   105  H    0.002148
   106  H   -0.015785
   107  H   -0.006494
   108  H   -0.030025
   109  H   -0.029861
   110  H   -0.009207
   111  H   -0.034024
   112  H   -0.024736
   113  H   -0.026524
   114  H   -0.019709
   115  H   -0.017345
   116  H   -0.021240
   117  H   -0.025889
   118  H   -0.028306
   119  H   -0.041846
   120  H   -0.030636
   121  H   -0.029157
   122  H   -0.031078
   123  H   -0.033638
   124  H   -0.043961
   125  H   -0.024515
   126  H   -0.021632
   127  H   -0.022091
   128  H   -0.048304
   129  H   -0.048934
   130  H   -0.020883
   131  H   -0.011525
   132  H   -0.027985
   133  H   -0.021283
   134  H   -0.034232
   135  H   -0.014475
   136  H   -0.027632
   137  H   -0.020111
   138  H   -0.022743
   139  H   -0.013160
   140  H   -0.034679
 Sum of Mulliken charges =  -0.00000

 Dipole moment (field-independent basis, Debye):
    X=             -2.6785    Y=              0.4521    Z=             -0.8046  Tot=              2.8331
 Quadrupole moment (field-independent basis, Debye-Ang):
   XX=           -381.5269   YY=           -427.9960   ZZ=           -408.0342
   XY=              0.6926   XZ=             17.4686   YZ=             -1.0448

 Normal termination of Gaussian 16 at Fri Apr 29 09:43:55 2022.
