 Gaussian 16, Revision A.03,
 Gaussian 16:  ES64L-G16RevA.03 25-Dec-2016

 -----------------------------------
 #p cam-b3lyp/Def2SVP td=(nstates=5)
 -----------------------------------

 ------------------------------------------------------
 step_201_chromophore_7 TDDFT with cam-b3lyp functional
 ------------------------------------------------------
 Symbolic Z-matrix:
 Charge =  0 Multiplicity = 1

                         Standard orientation:
 ---------------------------------------------------------------------
 Center     Atomic      Atomic             Coordinates (Angstroms)
 Number     Number       Type             X           Y           Z
 ---------------------------------------------------------------------
      1         12           0        5.708812    0.426638   -0.171352
      2          6           0        3.697143   -2.243978    0.335179
      3          6           0        3.031839    2.178307   -1.562107
      4          6           0        7.602403    3.221460   -0.197255
      5          6           0        8.519777   -1.363251    0.958455
      6          7           0        3.624615   -0.096610   -0.750593
      7          6           0        2.998949   -1.158184   -0.192331
      8          6           0        1.431356   -1.052881   -0.530641
      9          6           0        1.308097    0.326048   -1.259878
     10          6           0        2.746136    0.831942   -1.257271
     11          6           0        0.625175    0.350643   -2.663993
     12          6           0        0.584177   -1.302308    0.753120
     13          6           0       -0.511556   -2.335866    0.729316
     14          6           0       -1.950817   -1.963228    1.091555
     15          8           0       -2.286868   -1.166466    1.956748
     16          8           0       -2.860335   -2.638504    0.327280
     17          7           0        5.319556    2.364666   -0.786338
     18          6           0        4.245921    2.889178   -1.389922
     19          6           0        4.364099    4.224866   -1.603088
     20          6           0        5.688581    4.627325   -1.271518
     21          6           0        6.295131    3.371493   -0.750686
     22          6           0        3.330729    5.076444   -2.398278
     23          6           0        6.387722    5.970704   -1.315414
     24          8           0        7.544055    6.212792   -0.957636
     25          6           0        5.688398    7.208138   -1.906853
     26          7           0        7.776027    0.821856    0.271062
     27          6           0        8.259572    2.113952    0.202640
     28          6           0        9.650784    2.208185    0.800851
     29          6           0        9.994065    0.690301    1.024825
     30          6           0        8.651464    0.001849    0.854125
     31          6           0       10.700512    2.974376   -0.021039
     32          6           0       10.635817    0.440488    2.451785
     33          6           0       11.962210   -0.391642    2.486457
     34          7           0        6.147296   -1.413538    0.376258
     35          6           0        7.322100   -2.026850    0.889663
     36          6           0        7.017662   -3.375993    1.215648
     37          6           0        5.687815   -3.529231    0.979149
     38          6           0        5.165436   -2.269958    0.504302
     39          6           0        8.043926   -4.282120    1.871982
     40          6           0        4.603123   -4.475284    0.999219
     41          8           0        4.559214   -5.614846    1.427866
     42          6           0        3.221441   -3.655227    0.607820
     43          6           0        2.586535   -4.310242   -0.543086
     44          8           0        2.971335   -4.238101   -1.719710
     45          8           0        1.595941   -5.047907   -0.103905
     46          6           0        0.810632   -5.716285   -1.135653
     47          6           0       -4.262797   -2.468367    0.561097
     48          6           0       -4.982780   -1.485033   -0.349639
     49          6           0       -6.268182   -1.216705   -0.497975
     50          6           0       -7.393400   -1.951558    0.260352
     51          6           0       -6.697441   -0.196882   -1.524834
     52          6           0       -7.369133   -0.917757   -2.767382
     53          6           0       -8.744038   -0.407743   -3.204651
     54          6           0       -9.872622   -1.429522   -2.848140
     55          6           0      -10.263095   -2.364270   -4.069943
     56          6           0      -11.215196   -0.756367   -2.378373
     57          6           0      -11.593635   -1.114298   -0.847145
     58          6           0      -11.751239    0.121677    0.128508
     59          6           0      -13.273271    0.503754    0.471052
     60          6           0      -13.905477    1.350484   -0.641296
     61          6           0      -13.456696    1.059897    1.888058
     62          6           0      -12.915268    2.474151    2.125408
     63          6           0      -11.755251    2.415620    3.228432
     64          6           0      -11.235042    3.857928    3.395158
     65          6           0       -9.755413    3.729857    3.498785
     66          6           0      -11.939374    4.548156    4.587615
     67          1           0        2.136519    2.639237   -1.985106
     68          1           0        8.128886    4.177103   -0.154464
     69          1           0        9.376864   -1.931436    1.326831
     70          1           0        1.237213   -1.908533   -1.178277
     71          1           0        0.836017    1.059992   -0.607415
     72          1           0        0.453315    1.361673   -3.035259
     73          1           0       -0.316207   -0.178511   -2.517541
     74          1           0        1.291694   -0.180589   -3.343697
     75          1           0        0.319989   -0.326477    1.160025
     76          1           0        1.320282   -1.737529    1.429439
     77          1           0       -0.279173   -3.057770    1.512846
     78          1           0       -0.469180   -3.018430   -0.119750
     79          1           0        3.787524    5.402757   -3.332396
     80          1           0        3.048718    5.903634   -1.745817
     81          1           0        2.445254    4.513729   -2.695198
     82          1           0        4.790705    7.402657   -1.320359
     83          1           0        5.349004    6.825421   -2.869770
     84          1           0        6.398631    8.034659   -1.886807
     85          1           0        9.610097    2.719214    1.763504
     86          1           0       10.530302    0.248600    0.184298
     87          1           0       10.184619    3.564578   -0.778205
     88          1           0       11.254049    2.276009   -0.648444
     89          1           0       11.360972    3.559355    0.618456
     90          1           0        9.921063   -0.177553    2.995235
     91          1           0       10.901277    1.276373    3.099338
     92          1           0       11.619350   -1.423544    2.566010
     93          1           0       12.581631   -0.215683    3.364600
     94          1           0       12.575161   -0.319993    1.587629
     95          1           0        7.364673   -5.022083    2.293511
     96          1           0        8.692415   -3.773721    2.585810
     97          1           0        8.627688   -4.735147    1.071030
     98          1           0        2.603912   -3.648544    1.506968
     99          1           0        0.003210   -5.012968   -1.338262
    100          1           0        0.408874   -6.639141   -0.717718
    101          1           0        1.380915   -6.055849   -2.000648
    102          1           0       -4.591094   -2.103460    1.534233
    103          1           0       -4.738937   -3.386412    0.216902
    104          1           0       -4.314654   -0.924869   -1.004742
    105          1           0       -7.970791   -1.227531    0.833965
    106          1           0       -6.949060   -2.708686    0.905352
    107          1           0       -8.081560   -2.389915   -0.463392
    108          1           0       -5.854283    0.416050   -1.843473
    109          1           0       -7.429684    0.469377   -1.069224
    110          1           0       -7.407774   -2.001249   -2.663224
    111          1           0       -6.825433   -0.654289   -3.674611
    112          1           0       -8.808753   -0.264960   -4.283097
    113          1           0       -9.015652    0.458375   -2.600991
    114          1           0       -9.597759   -2.173153   -2.100615
    115          1           0       -9.479318   -2.403044   -4.826078
    116          1           0      -11.221334   -2.141777   -4.539186
    117          1           0      -10.488042   -3.369492   -3.713154
    118          1           0      -12.045415   -0.870389   -3.074915
    119          1           0      -11.015447    0.313049   -2.456936
    120          1           0      -10.823393   -1.807693   -0.508503
    121          1           0      -12.542172   -1.648738   -0.796432
    122          1           0      -11.281551    0.968922   -0.371290
    123          1           0      -11.302348    0.041310    1.118532
    124          1           0      -13.894264   -0.391796    0.462885
    125          1           0      -14.326777    2.311556   -0.344020
    126          1           0      -14.736147    0.776796   -1.052154
    127          1           0      -13.280709    1.671804   -1.475211
    128          1           0      -12.993474    0.320529    2.540203
    129          1           0      -14.488348    0.892118    2.197943
    130          1           0      -13.809024    2.997536    2.466269
    131          1           0      -12.487040    2.839196    1.192206
    132          1           0      -10.929261    1.801103    2.869947
    133          1           0      -12.171723    1.983008    4.138540
    134          1           0      -11.539749    4.440218    2.524730
    135          1           0       -9.489391    2.803055    4.008218
    136          1           0       -9.230253    4.553838    3.982239
    137          1           0       -9.338035    3.684947    2.493718
    138          1           0      -12.626310    3.905694    5.138127
    139          1           0      -12.429777    5.486179    4.329935
    140          1           0      -11.168492    4.784147    5.322271
 ---------------------------------------------------------------------

 SCF Done:  E(RCAM-B3LYP) =  -3007.17320452     A.U. after   19 cycles

 Excitation energies and oscillator strengths:

 Excited State   1:      Singlet-A      1.6692 eV  742.79 nm  f=0.3789  <S**2>=0.000
     245 -> 248        0.16602
     246 -> 247        0.68905
     245 <- 248        0.10576
 This state for optimization and/or second-order correction.
 Total Energy, E(TD-HF/TD-DFT) =  -3007.11186383
 Copying the excited state density for this state as the 1-particle RhoCI density.

 Excited State   2:      Singlet-A      2.2301 eV  555.95 nm  f=0.1487  <S**2>=0.000
     245 -> 247        0.64738
     246 -> 248       -0.27320

 Excited State   3:      Singlet-A      3.4030 eV  364.34 nm  f=0.0028  <S**2>=0.000
     240 -> 247        0.24809
     240 -> 249        0.14578
     241 -> 247       -0.29546
     241 -> 249       -0.10001
     244 -> 247        0.53620

 Excited State   4:      Singlet-A      3.4388 eV  360.54 nm  f=0.0019  <S**2>=0.000
     240 -> 247        0.43807
     240 -> 249        0.21897
     241 -> 247       -0.19751
     241 -> 249       -0.10063
     244 -> 247       -0.40648

 Excited State   5:      Singlet-A      3.5142 eV  352.81 nm  f=0.0407  <S**2>=0.000
     242 -> 247        0.54224
     242 -> 248        0.18900
     242 -> 249       -0.22065
     242 -> 250       -0.24609
     246 -> 248       -0.16655

 The electronic state is 1-A.
 Alpha  occ. eigenvalues --  -46.87720 -19.26508 -19.25840 -19.20073 -19.19993
 Alpha  occ. eigenvalues --  -19.19214 -19.18365 -14.41923 -14.41806 -14.39592
 Alpha  occ. eigenvalues --  -14.39397 -10.40132 -10.39209 -10.36056 -10.34855
 Alpha  occ. eigenvalues --  -10.32397 -10.32326 -10.31763 -10.30641 -10.30529
 Alpha  occ. eigenvalues --  -10.30227 -10.30154 -10.29868 -10.29801 -10.28803
 Alpha  occ. eigenvalues --  -10.28597 -10.28548 -10.28491 -10.28344 -10.28249
 Alpha  occ. eigenvalues --  -10.28072 -10.27743 -10.27387 -10.27233 -10.27053
 Alpha  occ. eigenvalues --  -10.26952 -10.26915 -10.26876 -10.26774 -10.26770
 Alpha  occ. eigenvalues --  -10.26767 -10.26721 -10.26500 -10.26276 -10.26117
 Alpha  occ. eigenvalues --  -10.25984 -10.25892 -10.25726 -10.25683 -10.25540
 Alpha  occ. eigenvalues --  -10.25494 -10.25461 -10.25446 -10.25346 -10.25229
 Alpha  occ. eigenvalues --  -10.25223 -10.25183 -10.25122 -10.24953 -10.24921
 Alpha  occ. eigenvalues --  -10.24854 -10.24473 -10.24054 -10.24035 -10.23998
 Alpha  occ. eigenvalues --  -10.23974  -3.16469  -1.91377  -1.90936  -1.90773
 Alpha  occ. eigenvalues --   -1.18822  -1.17272  -1.10811  -1.09063  -1.08248
 Alpha  occ. eigenvalues --   -1.07438  -1.05083  -1.03845  -1.03534  -1.02589
 Alpha  occ. eigenvalues --   -0.92203  -0.90664  -0.89861  -0.89547  -0.89326
 Alpha  occ. eigenvalues --   -0.88482  -0.88377  -0.88117  -0.87740  -0.87471
 Alpha  occ. eigenvalues --   -0.86562  -0.85837  -0.84666  -0.84123  -0.83173
 Alpha  occ. eigenvalues --   -0.82532  -0.81995  -0.81528  -0.80815  -0.80208
 Alpha  occ. eigenvalues --   -0.79269  -0.78667  -0.77967  -0.77449  -0.76544
 Alpha  occ. eigenvalues --   -0.76410  -0.75811  -0.75450  -0.74590  -0.74081
 Alpha  occ. eigenvalues --   -0.73750  -0.73535  -0.71923  -0.70827  -0.69046
 Alpha  occ. eigenvalues --   -0.68901  -0.68616  -0.67518  -0.67341  -0.66082
 Alpha  occ. eigenvalues --   -0.65577  -0.65476  -0.65160  -0.64793  -0.63939
 Alpha  occ. eigenvalues --   -0.63637  -0.63434  -0.62872  -0.61032  -0.60277
 Alpha  occ. eigenvalues --   -0.59720  -0.59573  -0.59198  -0.59039  -0.58745
 Alpha  occ. eigenvalues --   -0.58189  -0.57316  -0.57153  -0.56263  -0.55737
 Alpha  occ. eigenvalues --   -0.55512  -0.55263  -0.54616  -0.54401  -0.54336
 Alpha  occ. eigenvalues --   -0.54024  -0.53555  -0.53453  -0.52894  -0.52850
 Alpha  occ. eigenvalues --   -0.52517  -0.52217  -0.52124  -0.52062  -0.51864
 Alpha  occ. eigenvalues --   -0.51706  -0.51427  -0.51260  -0.50985  -0.50709
 Alpha  occ. eigenvalues --   -0.50248  -0.49903  -0.49808  -0.49708  -0.49655
 Alpha  occ. eigenvalues --   -0.49530  -0.49374  -0.49262  -0.49063  -0.48956
 Alpha  occ. eigenvalues --   -0.48749  -0.48500  -0.48274  -0.47947  -0.47910
 Alpha  occ. eigenvalues --   -0.47798  -0.47715  -0.47257  -0.47156  -0.46931
 Alpha  occ. eigenvalues --   -0.46602  -0.46563  -0.46288  -0.46149  -0.46040
 Alpha  occ. eigenvalues --   -0.45837  -0.45583  -0.45392  -0.45207  -0.44940
 Alpha  occ. eigenvalues --   -0.44917  -0.44845  -0.44502  -0.44293  -0.44263
 Alpha  occ. eigenvalues --   -0.43972  -0.43664  -0.43388  -0.42997  -0.42969
 Alpha  occ. eigenvalues --   -0.42669  -0.42600  -0.42539  -0.42254  -0.42077
 Alpha  occ. eigenvalues --   -0.41981  -0.41796  -0.41780  -0.41510  -0.41373
 Alpha  occ. eigenvalues --   -0.41083  -0.40842  -0.40713  -0.40506  -0.40136
 Alpha  occ. eigenvalues --   -0.39982  -0.39699  -0.39387  -0.38894  -0.38832
 Alpha  occ. eigenvalues --   -0.38564  -0.38375  -0.37867  -0.37765  -0.37535
 Alpha  occ. eigenvalues --   -0.37503  -0.37227  -0.37023  -0.36495  -0.36133
 Alpha  occ. eigenvalues --   -0.35960  -0.35823  -0.34586  -0.34496  -0.34396
 Alpha  occ. eigenvalues --   -0.34130  -0.33762  -0.33307  -0.31926  -0.31337
 Alpha  occ. eigenvalues --   -0.31072  -0.30216  -0.30038  -0.29956  -0.24385
 Alpha  occ. eigenvalues --   -0.21398
 Alpha virt. eigenvalues --   -0.09183  -0.01669   0.00318   0.02384   0.03665
 Alpha virt. eigenvalues --    0.04705   0.05053   0.05655   0.06664   0.06751
 Alpha virt. eigenvalues --    0.07598   0.08190   0.08252   0.08657   0.08863

 Mulliken charges:
               1
     1  Mg   0.837243
     2  C   -0.009039
     3  C   -0.081024
     4  C   -0.076668
     5  C   -0.086174
     6  N   -0.279371
     7  C   -0.033738
     8  C   -0.048556
     9  C   -0.026170
    10  C   -0.008214
    11  C    0.075662
    12  C    0.107371
    13  C    0.063472
    14  C    0.140665
    15  O   -0.224306
    16  O   -0.313742
    17  N   -0.372167
    18  C    0.195982
    19  C   -0.165473
    20  C   -0.024165
    21  C    0.089931
    22  C    0.097827
    23  C   -0.011221
    24  O   -0.219991
    25  C    0.065088
    26  N   -0.276344
    27  C    0.075306
    28  C   -0.043882
    29  C    0.003043
    30  C    0.028838
    31  C    0.089777
    32  C    0.021033
    33  C   -0.019249
    34  N   -0.402037
    35  C    0.135447
    36  C   -0.179722
    37  C    0.031891
    38  C    0.116406
    39  C    0.127215
    40  C    0.046393
    41  O   -0.160078
    42  C   -0.037474
    43  C    0.189615
    44  O   -0.251594
    45  O   -0.282001
    46  C    0.166810
    47  C    0.295999
    48  C   -0.149695
    49  C   -0.201106
    50  C    0.090126
    51  C    0.114899
    52  C    0.001558
    53  C    0.073671
    54  C   -0.175770
    55  C    0.026210
    56  C    0.040007
    57  C    0.036059
    58  C    0.041506
    59  C   -0.135684
    60  C    0.034778
    61  C    0.047420
    62  C    0.013115
    63  C    0.009635
    64  C   -0.136964
    65  C    0.062236
    66  C    0.054832
    67  H   -0.042032
    68  H    0.004568
    69  H   -0.029017
    70  H    0.013676
    71  H    0.010381
    72  H    0.022045
    73  H    0.021490
    74  H    0.030048
    75  H    0.020945
    76  H   -0.002913
    77  H    0.036143
    78  H    0.002037
    79  H    0.039348
    80  H    0.027977
    81  H    0.009274
    82  H    0.023954
    83  H    0.021365
    84  H    0.038587
    85  H    0.018216
    86  H    0.021043
    87  H    0.021252
    88  H   -0.007099
    89  H    0.022764
    90  H    0.008887
    91  H    0.018010
    92  H    0.002465
    93  H    0.014539
    94  H    0.019902
    95  H    0.039363
    96  H    0.033598
    97  H    0.031942
    98  H    0.041742
    99  H    0.038614
   100  H    0.038786
   101  H    0.060045
   102  H    0.051739
   103  H    0.031876
   104  H   -0.015477
   105  H    0.024896
   106  H    0.008165
   107  H    0.012680
   108  H    0.001873
   109  H   -0.001569
   110  H    0.017231
   111  H   -0.003159
   112  H    0.004880
   113  H    0.000047
   114  H    0.006995
   115  H    0.005672
   116  H    0.002481
   117  H   -0.001248
   118  H    0.000538
   119  H   -0.015657
   120  H   -0.004883
   121  H   -0.001210
   122  H   -0.006956
   123  H   -0.006726
   124  H   -0.010896
   125  H    0.000840
   126  H    0.003272
   127  H    0.001592
   128  H   -0.018111
   129  H   -0.017698
   130  H    0.007780
   131  H    0.013579
   132  H   -0.001043
   133  H    0.006099
   134  H   -0.001302
   135  H    0.009502
   136  H   -0.001072
   137  H    0.004744
   138  H    0.001540
   139  H    0.010947
   140  H   -0.009350
 Sum of Mulliken charges =  -0.00000

 Dipole moment (field-independent basis, Debye):
    X=             -2.7082    Y=              0.0003    Z=             -0.6834  Tot=              2.7930
 Quadrupole moment (field-independent basis, Debye-Ang):
   XX=           -377.2687   YY=           -425.1372   ZZ=           -407.7785
   XY=             -1.5600   XZ=             19.9536   YZ=             -1.9423

 Normal termination of Gaussian 16 at Fri Apr 29 08:43:58 2022.
