 Gaussian 16, Revision A.03,
 Gaussian 16:  ES64L-G16RevA.03 25-Dec-2016

 ---------------------------------
 #p PBE1PBE/Def2SVP td=(nstates=5)
 ---------------------------------

 ----------------------------------------------------
 step_201_chromophore_7 TDDFT with PBE1PBE functional
 ----------------------------------------------------
 Symbolic Z-matrix:
 Charge =  0 Multiplicity = 1

                         Standard orientation:
 ---------------------------------------------------------------------
 Center     Atomic      Atomic             Coordinates (Angstroms)
 Number     Number       Type             X           Y           Z
 ---------------------------------------------------------------------
      1         12           0        5.708812    0.426638   -0.171352
      2          6           0        3.697143   -2.243978    0.335179
      3          6           0        3.031839    2.178307   -1.562107
      4          6           0        7.602403    3.221460   -0.197255
      5          6           0        8.519777   -1.363251    0.958455
      6          7           0        3.624615   -0.096610   -0.750593
      7          6           0        2.998949   -1.158184   -0.192331
      8          6           0        1.431356   -1.052881   -0.530641
      9          6           0        1.308097    0.326048   -1.259878
     10          6           0        2.746136    0.831942   -1.257271
     11          6           0        0.625175    0.350643   -2.663993
     12          6           0        0.584177   -1.302308    0.753120
     13          6           0       -0.511556   -2.335866    0.729316
     14          6           0       -1.950817   -1.963228    1.091555
     15          8           0       -2.286868   -1.166466    1.956748
     16          8           0       -2.860335   -2.638504    0.327280
     17          7           0        5.319556    2.364666   -0.786338
     18          6           0        4.245921    2.889178   -1.389922
     19          6           0        4.364099    4.224866   -1.603088
     20          6           0        5.688581    4.627325   -1.271518
     21          6           0        6.295131    3.371493   -0.750686
     22          6           0        3.330729    5.076444   -2.398278
     23          6           0        6.387722    5.970704   -1.315414
     24          8           0        7.544055    6.212792   -0.957636
     25          6           0        5.688398    7.208138   -1.906853
     26          7           0        7.776027    0.821856    0.271062
     27          6           0        8.259572    2.113952    0.202640
     28          6           0        9.650784    2.208185    0.800851
     29          6           0        9.994065    0.690301    1.024825
     30          6           0        8.651464    0.001849    0.854125
     31          6           0       10.700512    2.974376   -0.021039
     32          6           0       10.635817    0.440488    2.451785
     33          6           0       11.962210   -0.391642    2.486457
     34          7           0        6.147296   -1.413538    0.376258
     35          6           0        7.322100   -2.026850    0.889663
     36          6           0        7.017662   -3.375993    1.215648
     37          6           0        5.687815   -3.529231    0.979149
     38          6           0        5.165436   -2.269958    0.504302
     39          6           0        8.043926   -4.282120    1.871982
     40          6           0        4.603123   -4.475284    0.999219
     41          8           0        4.559214   -5.614846    1.427866
     42          6           0        3.221441   -3.655227    0.607820
     43          6           0        2.586535   -4.310242   -0.543086
     44          8           0        2.971335   -4.238101   -1.719710
     45          8           0        1.595941   -5.047907   -0.103905
     46          6           0        0.810632   -5.716285   -1.135653
     47          6           0       -4.262797   -2.468367    0.561097
     48          6           0       -4.982780   -1.485033   -0.349639
     49          6           0       -6.268182   -1.216705   -0.497975
     50          6           0       -7.393400   -1.951558    0.260352
     51          6           0       -6.697441   -0.196882   -1.524834
     52          6           0       -7.369133   -0.917757   -2.767382
     53          6           0       -8.744038   -0.407743   -3.204651
     54          6           0       -9.872622   -1.429522   -2.848140
     55          6           0      -10.263095   -2.364270   -4.069943
     56          6           0      -11.215196   -0.756367   -2.378373
     57          6           0      -11.593635   -1.114298   -0.847145
     58          6           0      -11.751239    0.121677    0.128508
     59          6           0      -13.273271    0.503754    0.471052
     60          6           0      -13.905477    1.350484   -0.641296
     61          6           0      -13.456696    1.059897    1.888058
     62          6           0      -12.915268    2.474151    2.125408
     63          6           0      -11.755251    2.415620    3.228432
     64          6           0      -11.235042    3.857928    3.395158
     65          6           0       -9.755413    3.729857    3.498785
     66          6           0      -11.939374    4.548156    4.587615
     67          1           0        2.136519    2.639237   -1.985106
     68          1           0        8.128886    4.177103   -0.154464
     69          1           0        9.376864   -1.931436    1.326831
     70          1           0        1.237213   -1.908533   -1.178277
     71          1           0        0.836017    1.059992   -0.607415
     72          1           0        0.453315    1.361673   -3.035259
     73          1           0       -0.316207   -0.178511   -2.517541
     74          1           0        1.291694   -0.180589   -3.343697
     75          1           0        0.319989   -0.326477    1.160025
     76          1           0        1.320282   -1.737529    1.429439
     77          1           0       -0.279173   -3.057770    1.512846
     78          1           0       -0.469180   -3.018430   -0.119750
     79          1           0        3.787524    5.402757   -3.332396
     80          1           0        3.048718    5.903634   -1.745817
     81          1           0        2.445254    4.513729   -2.695198
     82          1           0        4.790705    7.402657   -1.320359
     83          1           0        5.349004    6.825421   -2.869770
     84          1           0        6.398631    8.034659   -1.886807
     85          1           0        9.610097    2.719214    1.763504
     86          1           0       10.530302    0.248600    0.184298
     87          1           0       10.184619    3.564578   -0.778205
     88          1           0       11.254049    2.276009   -0.648444
     89          1           0       11.360972    3.559355    0.618456
     90          1           0        9.921063   -0.177553    2.995235
     91          1           0       10.901277    1.276373    3.099338
     92          1           0       11.619350   -1.423544    2.566010
     93          1           0       12.581631   -0.215683    3.364600
     94          1           0       12.575161   -0.319993    1.587629
     95          1           0        7.364673   -5.022083    2.293511
     96          1           0        8.692415   -3.773721    2.585810
     97          1           0        8.627688   -4.735147    1.071030
     98          1           0        2.603912   -3.648544    1.506968
     99          1           0        0.003210   -5.012968   -1.338262
    100          1           0        0.408874   -6.639141   -0.717718
    101          1           0        1.380915   -6.055849   -2.000648
    102          1           0       -4.591094   -2.103460    1.534233
    103          1           0       -4.738937   -3.386412    0.216902
    104          1           0       -4.314654   -0.924869   -1.004742
    105          1           0       -7.970791   -1.227531    0.833965
    106          1           0       -6.949060   -2.708686    0.905352
    107          1           0       -8.081560   -2.389915   -0.463392
    108          1           0       -5.854283    0.416050   -1.843473
    109          1           0       -7.429684    0.469377   -1.069224
    110          1           0       -7.407774   -2.001249   -2.663224
    111          1           0       -6.825433   -0.654289   -3.674611
    112          1           0       -8.808753   -0.264960   -4.283097
    113          1           0       -9.015652    0.458375   -2.600991
    114          1           0       -9.597759   -2.173153   -2.100615
    115          1           0       -9.479318   -2.403044   -4.826078
    116          1           0      -11.221334   -2.141777   -4.539186
    117          1           0      -10.488042   -3.369492   -3.713154
    118          1           0      -12.045415   -0.870389   -3.074915
    119          1           0      -11.015447    0.313049   -2.456936
    120          1           0      -10.823393   -1.807693   -0.508503
    121          1           0      -12.542172   -1.648738   -0.796432
    122          1           0      -11.281551    0.968922   -0.371290
    123          1           0      -11.302348    0.041310    1.118532
    124          1           0      -13.894264   -0.391796    0.462885
    125          1           0      -14.326777    2.311556   -0.344020
    126          1           0      -14.736147    0.776796   -1.052154
    127          1           0      -13.280709    1.671804   -1.475211
    128          1           0      -12.993474    0.320529    2.540203
    129          1           0      -14.488348    0.892118    2.197943
    130          1           0      -13.809024    2.997536    2.466269
    131          1           0      -12.487040    2.839196    1.192206
    132          1           0      -10.929261    1.801103    2.869947
    133          1           0      -12.171723    1.983008    4.138540
    134          1           0      -11.539749    4.440218    2.524730
    135          1           0       -9.489391    2.803055    4.008218
    136          1           0       -9.230253    4.553838    3.982239
    137          1           0       -9.338035    3.684947    2.493718
    138          1           0      -12.626310    3.905694    5.138127
    139          1           0      -12.429777    5.486179    4.329935
    140          1           0      -11.168492    4.784147    5.322271
 ---------------------------------------------------------------------

 SCF Done:  E(RPBE1PBE) =  -3005.36075374     A.U. after   15 cycles

 Excitation energies and oscillator strengths:

 Excited State   1:      Singlet-A      1.8251 eV  679.32 nm  f=0.3604  <S**2>=0.000
     245 -> 248        0.16080
     246 -> 247        0.69666
     246 <- 247       -0.11571
 This state for optimization and/or second-order correction.
 Total Energy, E(TD-HF/TD-DFT) =  -3005.29368146
 Copying the excited state density for this state as the 1-particle RhoCI density.

 Excited State   2:      Singlet-A      2.2405 eV  553.38 nm  f=0.1452  <S**2>=0.000
     245 -> 247        0.65671
     246 -> 248       -0.24948

 Excited State   3:      Singlet-A      2.8795 eV  430.58 nm  f=0.0002  <S**2>=0.000
     244 -> 247        0.68146
     244 -> 248        0.10035
     244 -> 249        0.11021

 Excited State   4:      Singlet-A      2.9767 eV  416.51 nm  f=0.0005  <S**2>=0.000
     241 -> 247        0.65164
     241 -> 249       -0.15628
     242 -> 247        0.18690

 Excited State   5:      Singlet-A      3.0776 eV  402.86 nm  f=0.0035  <S**2>=0.000
     241 -> 247       -0.17806
     242 -> 247        0.67282

 The electronic state is 1-A.
 Alpha  occ. eigenvalues --  -46.91130 -19.27028 -19.26530 -19.20256 -19.20134
 Alpha  occ. eigenvalues --  -19.19374 -19.18779 -14.41557 -14.41244 -14.39190
 Alpha  occ. eigenvalues --  -14.39160 -10.37142 -10.36086 -10.33061 -10.32175
 Alpha  occ. eigenvalues --  -10.29741 -10.29556 -10.29422 -10.28448 -10.28210
 Alpha  occ. eigenvalues --  -10.28142 -10.27734 -10.27666 -10.27360 -10.26607
 Alpha  occ. eigenvalues --  -10.26508 -10.26392 -10.26090 -10.25946 -10.25717
 Alpha  occ. eigenvalues --  -10.25715 -10.25547 -10.25201 -10.24971 -10.24951
 Alpha  occ. eigenvalues --  -10.24902 -10.24619 -10.24540 -10.24369 -10.24297
 Alpha  occ. eigenvalues --  -10.24261 -10.24169 -10.24033 -10.23752 -10.23688
 Alpha  occ. eigenvalues --  -10.23661 -10.23404 -10.23372 -10.23306 -10.23159
 Alpha  occ. eigenvalues --  -10.23051 -10.22934 -10.22915 -10.22883 -10.22810
 Alpha  occ. eigenvalues --  -10.22810 -10.22746 -10.22707 -10.22602 -10.22474
 Alpha  occ. eigenvalues --  -10.22450 -10.21910 -10.21617 -10.21416 -10.21369
 Alpha  occ. eigenvalues --  -10.21357  -3.13455  -1.86306  -1.85843  -1.85683
 Alpha  occ. eigenvalues --   -1.13531  -1.12100  -1.05408  -1.03961  -1.03103
 Alpha  occ. eigenvalues --   -1.02126  -0.99619  -0.98497  -0.98272  -0.97343
 Alpha  occ. eigenvalues --   -0.86440  -0.84810  -0.84060  -0.83653  -0.83619
 Alpha  occ. eigenvalues --   -0.82665  -0.82585  -0.82366  -0.82123  -0.81589
 Alpha  occ. eigenvalues --   -0.81022  -0.80169  -0.78923  -0.78345  -0.77434
 Alpha  occ. eigenvalues --   -0.76749  -0.76278  -0.75833  -0.75035  -0.74488
 Alpha  occ. eigenvalues --   -0.73418  -0.72894  -0.72331  -0.71783  -0.70855
 Alpha  occ. eigenvalues --   -0.70592  -0.69892  -0.69764  -0.68709  -0.68424
 Alpha  occ. eigenvalues --   -0.68072  -0.67837  -0.66366  -0.65200  -0.63379
 Alpha  occ. eigenvalues --   -0.63192  -0.62967  -0.62001  -0.61607  -0.60506
 Alpha  occ. eigenvalues --   -0.59991  -0.59829  -0.59641  -0.59348  -0.58424
 Alpha  occ. eigenvalues --   -0.57796  -0.57580  -0.57394  -0.55296  -0.54807
 Alpha  occ. eigenvalues --   -0.54332  -0.53915  -0.53721  -0.53411  -0.53100
 Alpha  occ. eigenvalues --   -0.52811  -0.51945  -0.51511  -0.50859  -0.50289
 Alpha  occ. eigenvalues --   -0.50109  -0.49750  -0.49244  -0.48966  -0.48738
 Alpha  occ. eigenvalues --   -0.48554  -0.48123  -0.47943  -0.47534  -0.47290
 Alpha  occ. eigenvalues --   -0.47068  -0.46831  -0.46618  -0.46495  -0.46371
 Alpha  occ. eigenvalues --   -0.46228  -0.45954  -0.45807  -0.45496  -0.45228
 Alpha  occ. eigenvalues --   -0.44791  -0.44463  -0.44371  -0.44349  -0.44254
 Alpha  occ. eigenvalues --   -0.44139  -0.43928  -0.43820  -0.43729  -0.43548
 Alpha  occ. eigenvalues --   -0.43402  -0.43172  -0.42965  -0.42614  -0.42543
 Alpha  occ. eigenvalues --   -0.42491  -0.42318  -0.41884  -0.41745  -0.41630
 Alpha  occ. eigenvalues --   -0.41370  -0.41249  -0.40900  -0.40786  -0.40593
 Alpha  occ. eigenvalues --   -0.40444  -0.40334  -0.40123  -0.39958  -0.39688
 Alpha  occ. eigenvalues --   -0.39565  -0.39531  -0.39210  -0.39175  -0.38991
 Alpha  occ. eigenvalues --   -0.38799  -0.38495  -0.38127  -0.37841  -0.37778
 Alpha  occ. eigenvalues --   -0.37603  -0.37380  -0.37314  -0.37114  -0.36884
 Alpha  occ. eigenvalues --   -0.36789  -0.36661  -0.36562  -0.36353  -0.36121
 Alpha  occ. eigenvalues --   -0.36026  -0.35639  -0.35525  -0.35449  -0.35050
 Alpha  occ. eigenvalues --   -0.34817  -0.34518  -0.34173  -0.33832  -0.33615
 Alpha  occ. eigenvalues --   -0.33414  -0.33374  -0.32668  -0.32527  -0.32487
 Alpha  occ. eigenvalues --   -0.32357  -0.32151  -0.32050  -0.31377  -0.31050
 Alpha  occ. eigenvalues --   -0.31015  -0.30770  -0.29527  -0.29479  -0.29224
 Alpha  occ. eigenvalues --   -0.29095  -0.28827  -0.28721  -0.27452  -0.26776
 Alpha  occ. eigenvalues --   -0.26099  -0.25758  -0.25317  -0.25142  -0.21338
 Alpha  occ. eigenvalues --   -0.19053
 Alpha virt. eigenvalues --   -0.11628  -0.05278  -0.03903  -0.02030   0.00210
 Alpha virt. eigenvalues --    0.00527   0.01078   0.01585   0.02357   0.03007
 Alpha virt. eigenvalues --    0.03605   0.04709   0.04934   0.05043   0.05433

 Mulliken charges:
               1
     1  Mg   0.993597
     2  C   -0.006563
     3  C   -0.072614
     4  C   -0.066627
     5  C   -0.074018
     6  N   -0.383095
     7  C    0.026779
     8  C   -0.112334
     9  C   -0.108272
    10  C    0.039607
    11  C    0.014231
    12  C    0.057399
    13  C   -0.024540
    14  C    0.216862
    15  O   -0.259104
    16  O   -0.350183
    17  N   -0.490438
    18  C    0.214471
    19  C   -0.178714
    20  C   -0.077409
    21  C    0.127890
    22  C    0.034553
    23  C    0.040463
    24  O   -0.255697
    25  C   -0.012189
    26  N   -0.387384
    27  C    0.107210
    28  C   -0.120406
    29  C   -0.083334
    30  C    0.075631
    31  C    0.033814
    32  C   -0.036563
    33  C   -0.090207
    34  N   -0.534251
    35  C    0.144063
    36  C   -0.186737
    37  C   -0.033081
    38  C    0.171826
    39  C    0.069434
    40  C    0.144877
    41  O   -0.205449
    42  C   -0.146692
    43  C    0.280737
    44  O   -0.287278
    45  O   -0.316855
    46  C    0.110743
    47  C    0.253224
    48  C   -0.154226
    49  C   -0.251757
    50  C    0.026528
    51  C    0.053289
    52  C   -0.061682
    53  C    0.014733
    54  C   -0.261570
    55  C   -0.029608
    56  C   -0.009022
    57  C   -0.027457
    58  C   -0.015579
    59  C   -0.223114
    60  C   -0.018605
    61  C   -0.004867
    62  C   -0.052925
    63  C   -0.048089
    64  C   -0.229442
    65  C   -0.004715
    66  C   -0.001073
    67  H   -0.007872
    68  H    0.035677
    69  H    0.003651
    70  H    0.053828
    71  H    0.048704
    72  H    0.048309
    73  H    0.051386
    74  H    0.058236
    75  H    0.051030
    76  H    0.034191
    77  H    0.069303
    78  H    0.040409
    79  H    0.067353
    80  H    0.057261
    81  H    0.037701
    82  H    0.052183
    83  H    0.049529
    84  H    0.066098
    85  H    0.055737
    86  H    0.057707
    87  H    0.048479
    88  H    0.021680
    89  H    0.050014
    90  H    0.043352
    91  H    0.048475
    92  H    0.030603
    93  H    0.042171
    94  H    0.047059
    95  H    0.067546
    96  H    0.058190
    97  H    0.060079
    98  H    0.078439
    99  H    0.060161
   100  H    0.060236
   101  H    0.080481
   102  H    0.078229
   103  H    0.059388
   104  H    0.014775
   105  H    0.052652
   106  H    0.035707
   107  H    0.043082
   108  H    0.032659
   109  H    0.031498
   110  H    0.049527
   111  H    0.030630
   112  H    0.036802
   113  H    0.032916
   114  H    0.046929
   115  H    0.032864
   116  H    0.029306
   117  H    0.026589
   118  H    0.031267
   119  H    0.015859
   120  H    0.028412
   121  H    0.031342
   122  H    0.025134
   123  H    0.026511
   124  H    0.027421
   125  H    0.027941
   126  H    0.030491
   127  H    0.028529
   128  H    0.015153
   129  H    0.015002
   130  H    0.040694
   131  H    0.046493
   132  H    0.033275
   133  H    0.038154
   134  H    0.035959
   135  H    0.037507
   136  H    0.027059
   137  H    0.034134
   138  H    0.028110
   139  H    0.037867
   140  H    0.018557
 Sum of Mulliken charges =  -0.00000

 Dipole moment (field-independent basis, Debye):
    X=             -2.7732    Y=              0.4303    Z=             -0.8438  Tot=              2.9305
 Quadrupole moment (field-independent basis, Debye-Ang):
   XX=           -372.2955   YY=           -422.3191   ZZ=           -404.9849
   XY=              1.0075   XZ=             20.0028   YZ=             -2.3379

 Normal termination of Gaussian 16 at Fri Apr 29 08:59:52 2022.
