 Gaussian 16, Revision A.03,
 Gaussian 16:  ES64L-G16RevA.03 25-Dec-2016

 --------------------------------
 #p wB97XD/Def2SVP td=(nstates=5)
 --------------------------------

 ---------------------------------------------------
 step_201_chromophore_7 TDDFT with wB97XD functional
 ---------------------------------------------------
 Symbolic Z-matrix:
 Charge =  0 Multiplicity = 1

                         Standard orientation:
 ---------------------------------------------------------------------
 Center     Atomic      Atomic             Coordinates (Angstroms)
 Number     Number       Type             X           Y           Z
 ---------------------------------------------------------------------
      1         12           0        5.708812    0.426638   -0.171352
      2          6           0        3.697143   -2.243978    0.335179
      3          6           0        3.031839    2.178307   -1.562107
      4          6           0        7.602403    3.221460   -0.197255
      5          6           0        8.519777   -1.363251    0.958455
      6          7           0        3.624615   -0.096610   -0.750593
      7          6           0        2.998949   -1.158184   -0.192331
      8          6           0        1.431356   -1.052881   -0.530641
      9          6           0        1.308097    0.326048   -1.259878
     10          6           0        2.746136    0.831942   -1.257271
     11          6           0        0.625175    0.350643   -2.663993
     12          6           0        0.584177   -1.302308    0.753120
     13          6           0       -0.511556   -2.335866    0.729316
     14          6           0       -1.950817   -1.963228    1.091555
     15          8           0       -2.286868   -1.166466    1.956748
     16          8           0       -2.860335   -2.638504    0.327280
     17          7           0        5.319556    2.364666   -0.786338
     18          6           0        4.245921    2.889178   -1.389922
     19          6           0        4.364099    4.224866   -1.603088
     20          6           0        5.688581    4.627325   -1.271518
     21          6           0        6.295131    3.371493   -0.750686
     22          6           0        3.330729    5.076444   -2.398278
     23          6           0        6.387722    5.970704   -1.315414
     24          8           0        7.544055    6.212792   -0.957636
     25          6           0        5.688398    7.208138   -1.906853
     26          7           0        7.776027    0.821856    0.271062
     27          6           0        8.259572    2.113952    0.202640
     28          6           0        9.650784    2.208185    0.800851
     29          6           0        9.994065    0.690301    1.024825
     30          6           0        8.651464    0.001849    0.854125
     31          6           0       10.700512    2.974376   -0.021039
     32          6           0       10.635817    0.440488    2.451785
     33          6           0       11.962210   -0.391642    2.486457
     34          7           0        6.147296   -1.413538    0.376258
     35          6           0        7.322100   -2.026850    0.889663
     36          6           0        7.017662   -3.375993    1.215648
     37          6           0        5.687815   -3.529231    0.979149
     38          6           0        5.165436   -2.269958    0.504302
     39          6           0        8.043926   -4.282120    1.871982
     40          6           0        4.603123   -4.475284    0.999219
     41          8           0        4.559214   -5.614846    1.427866
     42          6           0        3.221441   -3.655227    0.607820
     43          6           0        2.586535   -4.310242   -0.543086
     44          8           0        2.971335   -4.238101   -1.719710
     45          8           0        1.595941   -5.047907   -0.103905
     46          6           0        0.810632   -5.716285   -1.135653
     47          6           0       -4.262797   -2.468367    0.561097
     48          6           0       -4.982780   -1.485033   -0.349639
     49          6           0       -6.268182   -1.216705   -0.497975
     50          6           0       -7.393400   -1.951558    0.260352
     51          6           0       -6.697441   -0.196882   -1.524834
     52          6           0       -7.369133   -0.917757   -2.767382
     53          6           0       -8.744038   -0.407743   -3.204651
     54          6           0       -9.872622   -1.429522   -2.848140
     55          6           0      -10.263095   -2.364270   -4.069943
     56          6           0      -11.215196   -0.756367   -2.378373
     57          6           0      -11.593635   -1.114298   -0.847145
     58          6           0      -11.751239    0.121677    0.128508
     59          6           0      -13.273271    0.503754    0.471052
     60          6           0      -13.905477    1.350484   -0.641296
     61          6           0      -13.456696    1.059897    1.888058
     62          6           0      -12.915268    2.474151    2.125408
     63          6           0      -11.755251    2.415620    3.228432
     64          6           0      -11.235042    3.857928    3.395158
     65          6           0       -9.755413    3.729857    3.498785
     66          6           0      -11.939374    4.548156    4.587615
     67          1           0        2.136519    2.639237   -1.985106
     68          1           0        8.128886    4.177103   -0.154464
     69          1           0        9.376864   -1.931436    1.326831
     70          1           0        1.237213   -1.908533   -1.178277
     71          1           0        0.836017    1.059992   -0.607415
     72          1           0        0.453315    1.361673   -3.035259
     73          1           0       -0.316207   -0.178511   -2.517541
     74          1           0        1.291694   -0.180589   -3.343697
     75          1           0        0.319989   -0.326477    1.160025
     76          1           0        1.320282   -1.737529    1.429439
     77          1           0       -0.279173   -3.057770    1.512846
     78          1           0       -0.469180   -3.018430   -0.119750
     79          1           0        3.787524    5.402757   -3.332396
     80          1           0        3.048718    5.903634   -1.745817
     81          1           0        2.445254    4.513729   -2.695198
     82          1           0        4.790705    7.402657   -1.320359
     83          1           0        5.349004    6.825421   -2.869770
     84          1           0        6.398631    8.034659   -1.886807
     85          1           0        9.610097    2.719214    1.763504
     86          1           0       10.530302    0.248600    0.184298
     87          1           0       10.184619    3.564578   -0.778205
     88          1           0       11.254049    2.276009   -0.648444
     89          1           0       11.360972    3.559355    0.618456
     90          1           0        9.921063   -0.177553    2.995235
     91          1           0       10.901277    1.276373    3.099338
     92          1           0       11.619350   -1.423544    2.566010
     93          1           0       12.581631   -0.215683    3.364600
     94          1           0       12.575161   -0.319993    1.587629
     95          1           0        7.364673   -5.022083    2.293511
     96          1           0        8.692415   -3.773721    2.585810
     97          1           0        8.627688   -4.735147    1.071030
     98          1           0        2.603912   -3.648544    1.506968
     99          1           0        0.003210   -5.012968   -1.338262
    100          1           0        0.408874   -6.639141   -0.717718
    101          1           0        1.380915   -6.055849   -2.000648
    102          1           0       -4.591094   -2.103460    1.534233
    103          1           0       -4.738937   -3.386412    0.216902
    104          1           0       -4.314654   -0.924869   -1.004742
    105          1           0       -7.970791   -1.227531    0.833965
    106          1           0       -6.949060   -2.708686    0.905352
    107          1           0       -8.081560   -2.389915   -0.463392
    108          1           0       -5.854283    0.416050   -1.843473
    109          1           0       -7.429684    0.469377   -1.069224
    110          1           0       -7.407774   -2.001249   -2.663224
    111          1           0       -6.825433   -0.654289   -3.674611
    112          1           0       -8.808753   -0.264960   -4.283097
    113          1           0       -9.015652    0.458375   -2.600991
    114          1           0       -9.597759   -2.173153   -2.100615
    115          1           0       -9.479318   -2.403044   -4.826078
    116          1           0      -11.221334   -2.141777   -4.539186
    117          1           0      -10.488042   -3.369492   -3.713154
    118          1           0      -12.045415   -0.870389   -3.074915
    119          1           0      -11.015447    0.313049   -2.456936
    120          1           0      -10.823393   -1.807693   -0.508503
    121          1           0      -12.542172   -1.648738   -0.796432
    122          1           0      -11.281551    0.968922   -0.371290
    123          1           0      -11.302348    0.041310    1.118532
    124          1           0      -13.894264   -0.391796    0.462885
    125          1           0      -14.326777    2.311556   -0.344020
    126          1           0      -14.736147    0.776796   -1.052154
    127          1           0      -13.280709    1.671804   -1.475211
    128          1           0      -12.993474    0.320529    2.540203
    129          1           0      -14.488348    0.892118    2.197943
    130          1           0      -13.809024    2.997536    2.466269
    131          1           0      -12.487040    2.839196    1.192206
    132          1           0      -10.929261    1.801103    2.869947
    133          1           0      -12.171723    1.983008    4.138540
    134          1           0      -11.539749    4.440218    2.524730
    135          1           0       -9.489391    2.803055    4.008218
    136          1           0       -9.230253    4.553838    3.982239
    137          1           0       -9.338035    3.684947    2.493718
    138          1           0      -12.626310    3.905694    5.138127
    139          1           0      -12.429777    5.486179    4.329935
    140          1           0      -11.168492    4.784147    5.322271
 ---------------------------------------------------------------------

 SCF Done:  E(RwB97XD) =  -3007.87081924     A.U. after   19 cycles

 Excitation energies and oscillator strengths:

 Excited State   1:      Singlet-A      1.6141 eV  768.15 nm  f=0.3786  <S**2>=0.000
     245 -> 248        0.17101
     246 -> 247        0.68684
     245 <- 248        0.11471
 This state for optimization and/or second-order correction.
 Total Energy, E(TD-HF/TD-DFT) =  -3007.81150382
 Copying the excited state density for this state as the 1-particle RhoCI density.

 Excited State   2:      Singlet-A      2.1743 eV  570.23 nm  f=0.1452  <S**2>=0.000
     245 -> 247        0.64571
     246 -> 248       -0.27579

 Excited State   3:      Singlet-A      3.4253 eV  361.97 nm  f=0.0037  <S**2>=0.000
     240 -> 247        0.16011
     240 -> 249        0.13708
     241 -> 247        0.42666
     241 -> 249        0.17756
     242 -> 247        0.28000
     243 -> 247       -0.35347

 Excited State   4:      Singlet-A      3.4684 eV  357.47 nm  f=0.0011  <S**2>=0.000
     240 -> 247        0.35486
     240 -> 249        0.17321
     241 -> 247        0.23797
     241 -> 249        0.14923
     242 -> 247       -0.29599
     243 -> 247        0.36342

 Excited State   5:      Singlet-A      3.5498 eV  349.27 nm  f=0.1417  <S**2>=0.000
     240 -> 247       -0.11406
     241 -> 247        0.12358
     242 -> 247        0.35421
     242 -> 248        0.12859
     242 -> 249       -0.14971
     242 -> 250       -0.17098
     243 -> 247        0.27512
     243 -> 248        0.12015
     243 -> 249       -0.15155
     243 -> 250       -0.16822
     245 -> 247       -0.12317
     246 -> 248       -0.31490

 The electronic state is 1-A.
 Alpha  occ. eigenvalues --  -46.94073 -19.31730 -19.31117 -19.25203 -19.24966
 Alpha  occ. eigenvalues --  -19.24207 -19.23351 -14.46509 -14.46443 -14.44237
 Alpha  occ. eigenvalues --  -14.43986 -10.43968 -10.43064 -10.40160 -10.38789
 Alpha  occ. eigenvalues --  -10.36230 -10.36159 -10.35846 -10.34662 -10.34518
 Alpha  occ. eigenvalues --  -10.34314 -10.34162 -10.33967 -10.33785 -10.32892
 Alpha  occ. eigenvalues --  -10.32664 -10.32639 -10.32536 -10.32524 -10.32191
 Alpha  occ. eigenvalues --  -10.32094 -10.31819 -10.31381 -10.31282 -10.31087
 Alpha  occ. eigenvalues --  -10.31002 -10.30936 -10.30821 -10.30793 -10.30745
 Alpha  occ. eigenvalues --  -10.30725 -10.30571 -10.30492 -10.30121 -10.30057
 Alpha  occ. eigenvalues --  -10.30012 -10.30011 -10.29723 -10.29672 -10.29431
 Alpha  occ. eigenvalues --  -10.29403 -10.29382 -10.29331 -10.29264 -10.29171
 Alpha  occ. eigenvalues --  -10.29168 -10.29088 -10.29039 -10.28879 -10.28853
 Alpha  occ. eigenvalues --  -10.28799 -10.28326 -10.27971 -10.27834 -10.27794
 Alpha  occ. eigenvalues --  -10.27793  -3.20228  -1.93833  -1.93371  -1.93206
 Alpha  occ. eigenvalues --   -1.21040  -1.19496  -1.13130  -1.11231  -1.10472
 Alpha  occ. eigenvalues --   -1.09640  -1.07152  -1.05885  -1.05532  -1.04612
 Alpha  occ. eigenvalues --   -0.94202  -0.92482  -0.91719  -0.91308  -0.91275
 Alpha  occ. eigenvalues --   -0.90358  -0.90255  -0.90016  -0.89672  -0.89246
 Alpha  occ. eigenvalues --   -0.88470  -0.87751  -0.86607  -0.85987  -0.85058
 Alpha  occ. eigenvalues --   -0.84447  -0.83907  -0.83447  -0.82685  -0.82122
 Alpha  occ. eigenvalues --   -0.81099  -0.80595  -0.79890  -0.79383  -0.78479
 Alpha  occ. eigenvalues --   -0.78276  -0.77581  -0.77398  -0.76394  -0.76005
 Alpha  occ. eigenvalues --   -0.75673  -0.75464  -0.73891  -0.72768  -0.71003
 Alpha  occ. eigenvalues --   -0.70814  -0.70567  -0.69474  -0.69229  -0.68052
 Alpha  occ. eigenvalues --   -0.67495  -0.67404  -0.67150  -0.66780  -0.65912
 Alpha  occ. eigenvalues --   -0.65467  -0.65238  -0.64874  -0.62889  -0.62273
 Alpha  occ. eigenvalues --   -0.61742  -0.61460  -0.61152  -0.60950  -0.60747
 Alpha  occ. eigenvalues --   -0.60175  -0.59315  -0.59053  -0.58247  -0.57719
 Alpha  occ. eigenvalues --   -0.57515  -0.57188  -0.56597  -0.56336  -0.56218
 Alpha  occ. eigenvalues --   -0.55948  -0.55532  -0.55361  -0.54856  -0.54707
 Alpha  occ. eigenvalues --   -0.54429  -0.54141  -0.54076  -0.54002  -0.53770
 Alpha  occ. eigenvalues --   -0.53591  -0.53369  -0.53178  -0.52867  -0.52587
 Alpha  occ. eigenvalues --   -0.52116  -0.51916  -0.51741  -0.51641  -0.51550
 Alpha  occ. eigenvalues --   -0.51451  -0.51259  -0.51151  -0.50992  -0.50836
 Alpha  occ. eigenvalues --   -0.50650  -0.50421  -0.50203  -0.49847  -0.49801
 Alpha  occ. eigenvalues --   -0.49722  -0.49608  -0.49241  -0.49112  -0.48881
 Alpha  occ. eigenvalues --   -0.48530  -0.48500  -0.48144  -0.48120  -0.47863
 Alpha  occ. eigenvalues --   -0.47690  -0.47526  -0.47328  -0.47183  -0.46892
 Alpha  occ. eigenvalues --   -0.46772  -0.46719  -0.46388  -0.46289  -0.46186
 Alpha  occ. eigenvalues --   -0.45892  -0.45593  -0.45333  -0.44946  -0.44900
 Alpha  occ. eigenvalues --   -0.44585  -0.44526  -0.44446  -0.44162  -0.43973
 Alpha  occ. eigenvalues --   -0.43882  -0.43736  -0.43648  -0.43372  -0.43238
 Alpha  occ. eigenvalues --   -0.43069  -0.42696  -0.42611  -0.42424  -0.42031
 Alpha  occ. eigenvalues --   -0.41862  -0.41572  -0.41246  -0.40824  -0.40674
 Alpha  occ. eigenvalues --   -0.40432  -0.40302  -0.39720  -0.39588  -0.39458
 Alpha  occ. eigenvalues --   -0.39394  -0.39282  -0.39168  -0.38355  -0.38047
 Alpha  occ. eigenvalues --   -0.37876  -0.37736  -0.36537  -0.36349  -0.36344
 Alpha  occ. eigenvalues --   -0.36116  -0.35591  -0.35587  -0.34162  -0.33464
 Alpha  occ. eigenvalues --   -0.33234  -0.32116  -0.32088  -0.32063  -0.26317
 Alpha  occ. eigenvalues --   -0.23222
 Alpha virt. eigenvalues --   -0.07555   0.00266   0.02352   0.04504   0.06678
 Alpha virt. eigenvalues --    0.06955   0.07285   0.08292   0.09034   0.09374
 Alpha virt. eigenvalues --    0.10170   0.11512   0.11616   0.11707   0.12245

 Mulliken charges:
               1
     1  Mg   0.981855
     2  C   -0.020361
     3  C   -0.086062
     4  C   -0.079497
     5  C   -0.092777
     6  N   -0.350086
     7  C    0.008467
     8  C   -0.092567
     9  C   -0.079036
    10  C    0.020284
    11  C    0.025899
    12  C    0.071055
    13  C   -0.000752
    14  C    0.204137
    15  O   -0.255269
    16  O   -0.347583
    17  N   -0.456822
    18  C    0.207148
    19  C   -0.174830
    20  C   -0.071959
    21  C    0.113169
    22  C    0.049077
    23  C    0.035841
    24  O   -0.252002
    25  C    0.004569
    26  N   -0.350286
    27  C    0.094390
    28  C   -0.094621
    29  C   -0.056226
    30  C    0.063776
    31  C    0.043155
    32  C   -0.023827
    33  C   -0.073156
    34  N   -0.497730
    35  C    0.143657
    36  C   -0.182447
    37  C   -0.024614
    38  C    0.155977
    39  C    0.080149
    40  C    0.125179
    41  O   -0.194760
    42  C   -0.104723
    43  C    0.253495
    44  O   -0.280195
    45  O   -0.313218
    46  C    0.126450
    47  C    0.267488
    48  C   -0.165447
    49  C   -0.234848
    50  C    0.045145
    51  C    0.069574
    52  C   -0.046168
    53  C    0.034636
    54  C   -0.229043
    55  C   -0.017846
    56  C    0.006653
    57  C   -0.008080
    58  C    0.003694
    59  C   -0.190659
    60  C   -0.013366
    61  C    0.010599
    62  C   -0.036911
    63  C   -0.028558
    64  C   -0.200585
    65  C    0.010266
    66  C    0.007480
    67  H   -0.020627
    68  H    0.028496
    69  H   -0.004158
    70  H    0.038310
    71  H    0.037813
    72  H    0.043852
    73  H    0.044140
    74  H    0.051914
    75  H    0.047019
    76  H    0.019975
    77  H    0.063338
    78  H    0.025615
    79  H    0.060483
    80  H    0.049763
    81  H    0.033322
    82  H    0.045386
    83  H    0.040825
    84  H    0.064661
    85  H    0.045353
    86  H    0.046104
    87  H    0.042319
    88  H    0.015035
    89  H    0.045623
    90  H    0.032770
    91  H    0.042370
    92  H    0.022151
    93  H    0.037880
    94  H    0.041011
    95  H    0.063772
    96  H    0.054758
    97  H    0.056764
    98  H    0.071221
    99  H    0.056216
   100  H    0.057106
   101  H    0.077334
   102  H    0.073910
   103  H    0.053850
   104  H    0.010669
   105  H    0.047158
   106  H    0.030285
   107  H    0.031270
   108  H    0.027392
   109  H    0.022121
   110  H    0.038232
   111  H    0.024028
   112  H    0.029813
   113  H    0.019818
   114  H    0.025416
   115  H    0.026749
   116  H    0.022519
   117  H    0.020936
   118  H    0.023884
   119  H    0.002487
   120  H    0.018418
   121  H    0.022614
   122  H    0.012541
   123  H    0.015401
   124  H    0.015367
   125  H    0.021998
   126  H    0.025808
   127  H    0.022014
   128  H    0.004046
   129  H    0.008462
   130  H    0.033237
   131  H    0.034496
   132  H    0.019555
   133  H    0.029176
   134  H    0.025149
   135  H    0.030201
   136  H    0.021842
   137  H    0.027524
   138  H    0.022006
   139  H    0.033274
   140  H    0.012072
 Sum of Mulliken charges =  -0.00000

 Dipole moment (field-independent basis, Debye):
    X=             -2.6914    Y=             -0.1085    Z=             -0.6656  Tot=              2.7746
 Quadrupole moment (field-independent basis, Debye-Ang):
   XX=           -371.3066   YY=           -421.0413   ZZ=           -404.6669
   XY=             -2.0463   XZ=             21.0074   YZ=             -2.3848

 Normal termination of Gaussian 16 at Fri Apr 29 09:30:50 2022.
