 Gaussian 16, Revision A.03,
 Gaussian 16:  ES64L-G16RevA.03 25-Dec-2016

 --------------------
 #p ZINDO=(nstates=5)
 --------------------

 ----------------------------
 step_201_chromophore_7 ZINDO
 ----------------------------
 Symbolic Z-matrix:
 Charge =  0 Multiplicity = 1

                         Standard orientation:
 ---------------------------------------------------------------------
 Center     Atomic      Atomic             Coordinates (Angstroms)
 Number     Number       Type             X           Y           Z
 ---------------------------------------------------------------------
      1         12           0        5.708812    0.426638   -0.171352
      2          6           0        3.697143   -2.243978    0.335179
      3          6           0        3.031839    2.178307   -1.562107
      4          6           0        7.602403    3.221460   -0.197255
      5          6           0        8.519777   -1.363251    0.958455
      6          7           0        3.624615   -0.096610   -0.750593
      7          6           0        2.998949   -1.158184   -0.192331
      8          6           0        1.431356   -1.052881   -0.530641
      9          6           0        1.308097    0.326048   -1.259878
     10          6           0        2.746136    0.831942   -1.257271
     11          6           0        0.625175    0.350643   -2.663993
     12          6           0        0.584177   -1.302308    0.753120
     13          6           0       -0.511556   -2.335866    0.729316
     14          6           0       -1.950817   -1.963228    1.091555
     15          8           0       -2.286868   -1.166466    1.956748
     16          8           0       -2.860335   -2.638504    0.327280
     17          7           0        5.319556    2.364666   -0.786338
     18          6           0        4.245921    2.889178   -1.389922
     19          6           0        4.364099    4.224866   -1.603088
     20          6           0        5.688581    4.627325   -1.271518
     21          6           0        6.295131    3.371493   -0.750686
     22          6           0        3.330729    5.076444   -2.398278
     23          6           0        6.387722    5.970704   -1.315414
     24          8           0        7.544055    6.212792   -0.957636
     25          6           0        5.688398    7.208138   -1.906853
     26          7           0        7.776027    0.821856    0.271062
     27          6           0        8.259572    2.113952    0.202640
     28          6           0        9.650784    2.208185    0.800851
     29          6           0        9.994065    0.690301    1.024825
     30          6           0        8.651464    0.001849    0.854125
     31          6           0       10.700512    2.974376   -0.021039
     32          6           0       10.635817    0.440488    2.451785
     33          6           0       11.962210   -0.391642    2.486457
     34          7           0        6.147296   -1.413538    0.376258
     35          6           0        7.322100   -2.026850    0.889663
     36          6           0        7.017662   -3.375993    1.215648
     37          6           0        5.687815   -3.529231    0.979149
     38          6           0        5.165436   -2.269958    0.504302
     39          6           0        8.043926   -4.282120    1.871982
     40          6           0        4.603123   -4.475284    0.999219
     41          8           0        4.559214   -5.614846    1.427866
     42          6           0        3.221441   -3.655227    0.607820
     43          6           0        2.586535   -4.310242   -0.543086
     44          8           0        2.971335   -4.238101   -1.719710
     45          8           0        1.595941   -5.047907   -0.103905
     46          6           0        0.810632   -5.716285   -1.135653
     47          6           0       -4.262797   -2.468367    0.561097
     48          6           0       -4.982780   -1.485033   -0.349639
     49          6           0       -6.268182   -1.216705   -0.497975
     50          6           0       -7.393400   -1.951558    0.260352
     51          6           0       -6.697441   -0.196882   -1.524834
     52          6           0       -7.369133   -0.917757   -2.767382
     53          6           0       -8.744038   -0.407743   -3.204651
     54          6           0       -9.872622   -1.429522   -2.848140
     55          6           0      -10.263095   -2.364270   -4.069943
     56          6           0      -11.215196   -0.756367   -2.378373
     57          6           0      -11.593635   -1.114298   -0.847145
     58          6           0      -11.751239    0.121677    0.128508
     59          6           0      -13.273271    0.503754    0.471052
     60          6           0      -13.905477    1.350484   -0.641296
     61          6           0      -13.456696    1.059897    1.888058
     62          6           0      -12.915268    2.474151    2.125408
     63          6           0      -11.755251    2.415620    3.228432
     64          6           0      -11.235042    3.857928    3.395158
     65          6           0       -9.755413    3.729857    3.498785
     66          6           0      -11.939374    4.548156    4.587615
     67          1           0        2.136519    2.639237   -1.985106
     68          1           0        8.128886    4.177103   -0.154464
     69          1           0        9.376864   -1.931436    1.326831
     70          1           0        1.237213   -1.908533   -1.178277
     71          1           0        0.836017    1.059992   -0.607415
     72          1           0        0.453315    1.361673   -3.035259
     73          1           0       -0.316207   -0.178511   -2.517541
     74          1           0        1.291694   -0.180589   -3.343697
     75          1           0        0.319989   -0.326477    1.160025
     76          1           0        1.320282   -1.737529    1.429439
     77          1           0       -0.279173   -3.057770    1.512846
     78          1           0       -0.469180   -3.018430   -0.119750
     79          1           0        3.787524    5.402757   -3.332396
     80          1           0        3.048718    5.903634   -1.745817
     81          1           0        2.445254    4.513729   -2.695198
     82          1           0        4.790705    7.402657   -1.320359
     83          1           0        5.349004    6.825421   -2.869770
     84          1           0        6.398631    8.034659   -1.886807
     85          1           0        9.610097    2.719214    1.763504
     86          1           0       10.530302    0.248600    0.184298
     87          1           0       10.184619    3.564578   -0.778205
     88          1           0       11.254049    2.276009   -0.648444
     89          1           0       11.360972    3.559355    0.618456
     90          1           0        9.921063   -0.177553    2.995235
     91          1           0       10.901277    1.276373    3.099338
     92          1           0       11.619350   -1.423544    2.566010
     93          1           0       12.581631   -0.215683    3.364600
     94          1           0       12.575161   -0.319993    1.587629
     95          1           0        7.364673   -5.022083    2.293511
     96          1           0        8.692415   -3.773721    2.585810
     97          1           0        8.627688   -4.735147    1.071030
     98          1           0        2.603912   -3.648544    1.506968
     99          1           0        0.003210   -5.012968   -1.338262
    100          1           0        0.408874   -6.639141   -0.717718
    101          1           0        1.380915   -6.055849   -2.000648
    102          1           0       -4.591094   -2.103460    1.534233
    103          1           0       -4.738937   -3.386412    0.216902
    104          1           0       -4.314654   -0.924869   -1.004742
    105          1           0       -7.970791   -1.227531    0.833965
    106          1           0       -6.949060   -2.708686    0.905352
    107          1           0       -8.081560   -2.389915   -0.463392
    108          1           0       -5.854283    0.416050   -1.843473
    109          1           0       -7.429684    0.469377   -1.069224
    110          1           0       -7.407774   -2.001249   -2.663224
    111          1           0       -6.825433   -0.654289   -3.674611
    112          1           0       -8.808753   -0.264960   -4.283097
    113          1           0       -9.015652    0.458375   -2.600991
    114          1           0       -9.597759   -2.173153   -2.100615
    115          1           0       -9.479318   -2.403044   -4.826078
    116          1           0      -11.221334   -2.141777   -4.539186
    117          1           0      -10.488042   -3.369492   -3.713154
    118          1           0      -12.045415   -0.870389   -3.074915
    119          1           0      -11.015447    0.313049   -2.456936
    120          1           0      -10.823393   -1.807693   -0.508503
    121          1           0      -12.542172   -1.648738   -0.796432
    122          1           0      -11.281551    0.968922   -0.371290
    123          1           0      -11.302348    0.041310    1.118532
    124          1           0      -13.894264   -0.391796    0.462885
    125          1           0      -14.326777    2.311556   -0.344020
    126          1           0      -14.736147    0.776796   -1.052154
    127          1           0      -13.280709    1.671804   -1.475211
    128          1           0      -12.993474    0.320529    2.540203
    129          1           0      -14.488348    0.892118    2.197943
    130          1           0      -13.809024    2.997536    2.466269
    131          1           0      -12.487040    2.839196    1.192206
    132          1           0      -10.929261    1.801103    2.869947
    133          1           0      -12.171723    1.983008    4.138540
    134          1           0      -11.539749    4.440218    2.524730
    135          1           0       -9.489391    2.803055    4.008218
    136          1           0       -9.230253    4.553838    3.982239
    137          1           0       -9.338035    3.684947    2.493718
    138          1           0      -12.626310    3.905694    5.138127
    139          1           0      -12.429777    5.486179    4.329935
    140          1           0      -11.168492    4.784147    5.322271
 ---------------------------------------------------------------------

 SCF Done:  E(RZINDO/S) =  -474.425487506     A.U. after   20 cycles

 Excitation energies and oscillator strengths:

 Excited State   1:      Singlet-A      1.2488 eV  992.86 nm  f=0.5816  <S**2>=0.000
     175 ->178        -0.17629
     176 ->177         0.66733
 This state for optimization and/or second-order correction.
 Total Energy, E(CIS/TDA) =  -474.379596712
 Copying the excited state density for this state as the 1-particle RhoCI density.

 Excited State   2:      Singlet-A      1.9311 eV  642.04 nm  f=0.0797  <S**2>=0.000
     175 ->177         0.56993
     176 ->178         0.38438

 Excited State   3:      Singlet-A      2.9028 eV  427.12 nm  f=0.0422  <S**2>=0.000
     167 ->177         0.12434
     167 ->179        -0.17463
     168 ->177         0.33536
     168 ->178        -0.10826
     168 ->179        -0.37400
     168 ->180         0.10193
     168 ->182         0.13750
     168 ->185         0.14016
     169 ->177        -0.11404
     176 ->178        -0.12180

 Excited State   4:      Singlet-A      2.9290 eV  423.30 nm  f=0.0140  <S**2>=0.000
     171 ->177         0.26544
     171 ->178        -0.13860
     171 ->179         0.25108
     171 ->180         0.37837
     171 ->182         0.18836
     171 ->185        -0.21296
     171 ->188         0.20412
     171 ->201        -0.10087

 Excited State   5:      Singlet-A      2.9833 eV  415.60 nm  f=0.7069  <S**2>=0.000
     170 ->177        -0.10270
     172 ->177        -0.10862
     175 ->177        -0.31340
     176 ->178         0.51453
     176 ->179         0.24060

 The electronic state is 1-A.
 Alpha  occ. eigenvalues --   -1.86681  -1.81597  -1.80601  -1.76154  -1.73422
 Alpha  occ. eigenvalues --   -1.70915  -1.64168  -1.61375  -1.59045  -1.57452
 Alpha  occ. eigenvalues --   -1.55004  -1.51849  -1.49612  -1.48719  -1.46196
 Alpha  occ. eigenvalues --   -1.44520  -1.43617  -1.41930  -1.38865  -1.37569
 Alpha  occ. eigenvalues --   -1.36379  -1.35514  -1.32023  -1.31203  -1.29040
 Alpha  occ. eigenvalues --   -1.26363  -1.25328  -1.21665  -1.20103  -1.19025
 Alpha  occ. eigenvalues --   -1.17860  -1.17191  -1.16354  -1.15474  -1.13351
 Alpha  occ. eigenvalues --   -1.12700  -1.10021  -1.09885  -1.05416  -1.04193
 Alpha  occ. eigenvalues --   -1.02949  -1.01590  -0.99761  -0.98581  -0.97491
 Alpha  occ. eigenvalues --   -0.96460  -0.95918  -0.93505  -0.92722  -0.91395
 Alpha  occ. eigenvalues --   -0.90930  -0.90877  -0.89579  -0.88235  -0.85792
 Alpha  occ. eigenvalues --   -0.84832  -0.84224  -0.82784  -0.81318  -0.80082
 Alpha  occ. eigenvalues --   -0.79726  -0.78793  -0.77144  -0.77069  -0.76800
 Alpha  occ. eigenvalues --   -0.75789  -0.75385  -0.74724  -0.74405  -0.73629
 Alpha  occ. eigenvalues --   -0.72653  -0.72464  -0.72003  -0.71343  -0.70479
 Alpha  occ. eigenvalues --   -0.70350  -0.68802  -0.68585  -0.68059  -0.67671
 Alpha  occ. eigenvalues --   -0.67642  -0.67074  -0.66734  -0.66355  -0.65632
 Alpha  occ. eigenvalues --   -0.65318  -0.65167  -0.64837  -0.64527  -0.63965
 Alpha  occ. eigenvalues --   -0.63581  -0.63078  -0.62770  -0.62336  -0.61929
 Alpha  occ. eigenvalues --   -0.61308  -0.60936  -0.60635  -0.59840  -0.59767
 Alpha  occ. eigenvalues --   -0.59171  -0.58895  -0.58781  -0.58607  -0.58347
 Alpha  occ. eigenvalues --   -0.57705  -0.57386  -0.57205  -0.56894  -0.56538
 Alpha  occ. eigenvalues --   -0.56471  -0.55614  -0.55322  -0.55112  -0.54976
 Alpha  occ. eigenvalues --   -0.54072  -0.53933  -0.53775  -0.53446  -0.53302
 Alpha  occ. eigenvalues --   -0.52661  -0.52395  -0.52055  -0.51663  -0.51336
 Alpha  occ. eigenvalues --   -0.51204  -0.51039  -0.50759  -0.50652  -0.50442
 Alpha  occ. eigenvalues --   -0.49937  -0.49499  -0.49473  -0.49403  -0.49164
 Alpha  occ. eigenvalues --   -0.48948  -0.48455  -0.48068  -0.48018  -0.47856
 Alpha  occ. eigenvalues --   -0.47664  -0.47386  -0.47028  -0.46976  -0.46557
 Alpha  occ. eigenvalues --   -0.46348  -0.46194  -0.45915  -0.45665  -0.45644
 Alpha  occ. eigenvalues --   -0.45584  -0.44688  -0.44642  -0.44340  -0.43732
 Alpha  occ. eigenvalues --   -0.43676  -0.43571  -0.42714  -0.42433  -0.41908
 Alpha  occ. eigenvalues --   -0.41488  -0.41395  -0.41278  -0.39285  -0.39045
 Alpha  occ. eigenvalues --   -0.38861  -0.36812  -0.36059  -0.35094  -0.34430
 Alpha  occ. eigenvalues --   -0.33821  -0.32510  -0.32295  -0.32058  -0.26762
 Alpha  occ. eigenvalues --   -0.21985
 Alpha virt. eigenvalues --   -0.08781  -0.01801  -0.00802   0.01472   0.01753
 Alpha virt. eigenvalues --    0.02000   0.03198   0.03642   0.04791   0.05596
 Alpha virt. eigenvalues --    0.06304   0.06771   0.07125   0.07402   0.08046

 Mulliken charges:
               1
     1  Mg   0.427935
     2  C   -0.080085
     3  C   -0.085937
     4  C   -0.037199
     5  C   -0.051212
     6  N   -0.290522
     7  C    0.149622
     8  C    0.002291
     9  C    0.004222
    10  C    0.101103
    11  C   -0.046574
    12  C   -0.019905
    13  C    0.009900
    14  C    0.472677
    15  O   -0.522743
    16  O   -0.266723
    17  N   -0.318024
    18  C    0.116928
    19  C   -0.018629
    20  C   -0.060709
    21  C    0.095449
    22  C   -0.053907
    23  C    0.318742
    24  O   -0.540640
    25  C   -0.035486
    26  N   -0.262225
    27  C    0.101635
    28  C   -0.000048
    29  C    0.001049
    30  C    0.157005
    31  C   -0.055744
    32  C   -0.038465
    33  C   -0.064922
    34  N   -0.318963
    35  C    0.101299
    36  C    0.061030
    37  C   -0.036130
    38  C    0.148485
    39  C   -0.044045
    40  C    0.329954
    41  O   -0.502826
    42  C    0.052929
    43  C    0.498753
    44  O   -0.549216
    45  O   -0.248097
    46  C    0.074073
    47  C    0.102967
    48  C   -0.080281
    49  C   -0.019592
    50  C   -0.048336
    51  C   -0.017113
    52  C   -0.037472
    53  C   -0.032734
    54  C   -0.023735
    55  C   -0.068650
    56  C   -0.045906
    57  C   -0.041045
    58  C   -0.039905
    59  C   -0.011214
    60  C   -0.058989
    61  C   -0.038065
    62  C   -0.041885
    63  C   -0.037911
    64  C   -0.006633
    65  C   -0.046916
    66  C   -0.060587
    67  H    0.025548
    68  H    0.050816
    69  H    0.028418
    70  H    0.035403
    71  H    0.030247
    72  H    0.028161
    73  H    0.018857
    74  H    0.029001
    75  H    0.039689
    76  H    0.016565
    77  H    0.039303
    78  H    0.038117
    79  H    0.027537
    80  H    0.027667
    81  H    0.021036
    82  H    0.032770
    83  H    0.037887
    84  H    0.048915
    85  H    0.033311
    86  H    0.046016
    87  H    0.029600
    88  H    0.014361
    89  H    0.027900
    90  H    0.016327
    91  H    0.031247
    92  H    0.009459
    93  H    0.022552
    94  H    0.022734
    95  H    0.037719
    96  H    0.038257
    97  H    0.038840
    98  H    0.051984
    99  H    0.039181
   100  H    0.029998
   101  H    0.059371
   102  H    0.067951
   103  H    0.040817
   104  H    0.022099
   105  H    0.028483
   106  H    0.023316
   107  H    0.029802
   108  H    0.024992
   109  H    0.023360
   110  H    0.030256
   111  H    0.013599
   112  H    0.029903
   113  H    0.024843
   114  H    0.026826
   115  H    0.017822
   116  H    0.019237
   117  H    0.010362
   118  H    0.027838
   119  H    0.011758
   120  H    0.021011
   121  H    0.020696
   122  H    0.019416
   123  H    0.022281
   124  H    0.012616
   125  H    0.013429
   126  H    0.012021
   127  H    0.017494
   128  H    0.006102
   129  H    0.012104
   130  H    0.028116
   131  H    0.030184
   132  H    0.022214
   133  H    0.027263
   134  H    0.021301
   135  H    0.019956
   136  H    0.011264
   137  H    0.011163
   138  H    0.020017
   139  H    0.019987
   140  H    0.011204
 Sum of Mulliken charges =  -0.00000

 Dipole moment (field-independent basis, Debye):
    X=             -3.2903    Y=             -2.1208    Z=              0.4929  Tot=              3.9455
 N-N= 4.263931436049D+03 E-N= 0.000000000000D+00  KE=-9.202091223857D+03
 Leave Link  601 at Fri Apr 29 09:44:01 2022, MaxMem=  6710886400 cpu:               0.8 elap:               0.1
 (Enter /sw/apps/gaussian-16.0/g16/l9999.exe)
 1\1\GINC-BP1-COMPUTE082\SP\RZINDO CIS\STO-3G\C55H74Mg1N4O6\OF15641\29-
 Apr-2022\0\\#p ZINDO=(nstates=5)\\step_201_chromophore_7 ZINDO\\0,1\Mg
 ,0,26.286,-0.498,30.26\C,0,28.326,-0.511,32.957\C,0,23.534,0.,32.345\C
 ,0,24.362,0.011,27.533\C,0,28.966,-1.277,28.117\N,0,25.97,-0.487,32.46
 3\C,0,27.001,-0.253,33.307\C,0,26.398,0.048,34.766\C,0,24.852,0.063,34
 .525\C,0,24.747,-0.216,33.03\C,0,23.966,-0.868,35.412\C,0,27.075,1.31,
 35.38\C,0,27.683,1.23,36.756\C,0,27.243,2.187,37.866\O,0,26.948,3.365,

 Normal termination of Gaussian 16 at Fri Apr 29 09:44:01 2022.
