 Gaussian 16, Revision A.03,
 Gaussian 16:  ES64L-G16RevA.03 25-Dec-2016

 ------------------------------
 #p blyp/Def2SVP td=(nstates=5)
 ------------------------------

 --------------------------------------------------
 step_851_chromophore_17 TDDFT with blyp functional
 --------------------------------------------------
 Symbolic Z-matrix:
 Charge =  0 Multiplicity = 1

                         Standard orientation:
 ---------------------------------------------------------------------
 Center     Atomic      Atomic             Coordinates (Angstroms)
 Number     Number       Type             X           Y           Z
 ---------------------------------------------------------------------
      1         12           0        3.916683    1.356505   -0.668270
      2          6           0        3.653243   -2.257963   -0.661510
      3          6           0        1.563480    1.416089   -3.122464
      4          6           0        3.339225    4.675926   -0.090484
      5          6           0        5.886973    1.125610    2.118166
      6          7           0        2.606145   -0.297854   -1.643263
      7          6           0        2.756312   -1.698363   -1.706900
      8          6           0        1.879684   -2.344008   -2.704702
      9          6           0        1.480342   -1.144436   -3.651227
     10          6           0        1.953416    0.124122   -2.799703
     11          6           0        2.104591   -1.206506   -5.049769
     12          6           0        0.663144   -3.056691   -2.112084
     13          6           0        0.262050   -4.514443   -2.356386
     14          6           0       -0.560220   -5.318634   -1.287076
     15          8           0       -0.335783   -6.351941   -0.749431
     16          8           0       -1.672060   -4.581166   -1.029765
     17          7           0        2.679978    2.903513   -1.542473
     18          6           0        1.795194    2.656956   -2.521957
     19          6           0        1.145278    3.920834   -2.986985
     20          6           0        1.598571    4.913185   -2.106149
     21          6           0        2.590325    4.214854   -1.171856
     22          6           0        0.193196    4.029658   -4.100077
     23          6           0        1.135322    6.364713   -2.130537
     24          8           0        0.273222    6.782619   -2.919250
     25          6           0        1.795106    7.351796   -1.298641
     26          7           0        4.562089    2.792217    0.845019
     27          6           0        4.262671    4.095999    0.817190
     28          6           0        4.863346    4.807192    1.942375
     29          6           0        5.739896    3.637893    2.631994
     30          6           0        5.402885    2.436226    1.829312
     31          6           0        5.681149    6.052058    1.499434
     32          6           0        5.471828    3.509452    4.182638
     33          6           0        6.482060    4.169148    5.160471
     34          7           0        4.799235   -0.194281    0.418561
     35          6           0        5.614612   -0.140994    1.584610
     36          6           0        6.017575   -1.534379    1.954620
     37          6           0        5.194014   -2.308606    1.087192
     38          6           0        4.513999   -1.489068    0.197085
     39          6           0        6.941985   -1.992921    3.029371
     40          6           0        4.822887   -3.708495    0.833962
     41          8           0        5.067191   -4.764684    1.385417
     42          6           0        3.867163   -3.693135   -0.354894
     43          6           0        4.478705   -4.524570   -1.492410
     44          8           0        5.355437   -4.086743   -2.264269
     45          8           0        3.752758   -5.668623   -1.737155
     46          6           0        4.020319   -6.378482   -2.990839
     47          6           0       -2.708667   -5.154249   -0.163320
     48          6           0       -3.297086   -4.085537    0.680500
     49          6           0       -4.443850   -4.215285    1.457586
     50          6           0       -5.160492   -5.536013    1.416200
     51          6           0       -5.055496   -2.983317    2.259920
     52          6           0       -4.902859   -3.034059    3.746975
     53          6           0       -4.098509   -1.821095    4.253135
     54          6           0       -5.042404   -0.754662    4.834253
     55          6           0       -4.623170   -0.384253    6.266954
     56          6           0       -5.231996    0.491090    3.929699
     57          6           0       -6.514096    0.501868    3.052369
     58          6           0       -6.336078    1.211413    1.693312
     59          6           0       -7.594538    1.127971    0.792623
     60          6           0       -7.564152   -0.135792   -0.127142
     61          6           0       -7.947588    2.411223   -0.033694
     62          6           0       -9.457840    2.776850   -0.054098
     63          6           0      -10.250007    1.887018   -1.001899
     64          6           0      -11.164128    2.628323   -1.960591
     65          6           0      -12.624675    2.172803   -1.934000
     66          6           0      -10.623264    2.597791   -3.381636
     67          1           0        0.911380    1.527717   -3.990631
     68          1           0        3.076418    5.684652    0.235279
     69          1           0        6.522927    1.021349    2.999826
     70          1           0        2.500861   -3.107812   -3.172198
     71          1           0        0.402265   -1.126250   -3.808422
     72          1           0        2.733902   -2.095955   -5.018475
     73          1           0        2.754678   -0.357284   -5.259921
     74          1           0        1.346743   -1.354483   -5.819126
     75          1           0       -0.158508   -2.505184   -2.571077
     76          1           0        0.528958   -2.828265   -1.054047
     77          1           0        1.167148   -5.060120   -2.623844
     78          1           0       -0.394385   -4.595060   -3.221862
     79          1           0       -0.725368    3.539825   -3.777447
     80          1           0        0.662267    3.517700   -4.939572
     81          1           0        0.046399    5.073284   -4.379024
     82          1           0        1.696656    7.035637   -0.260093
     83          1           0        1.155240    8.234216   -1.256016
     84          1           0        2.792765    7.694029   -1.574621
     85          1           0        4.162218    5.095700    2.724323
     86          1           0        6.774133    3.965240    2.521306
     87          1           0        5.371893    6.519769    0.564119
     88          1           0        6.726635    5.752014    1.441571
     89          1           0        5.483562    6.823217    2.244182
     90          1           0        5.395379    2.444635    4.406793
     91          1           0        4.484593    3.879630    4.460234
     92          1           0        6.649285    3.475784    5.985745
     93          1           0        6.066073    5.123476    5.482647
     94          1           0        7.348164    4.331683    4.518872
     95          1           0        7.346945   -2.998432    2.917758
     96          1           0        6.280794   -1.911033    3.892179
     97          1           0        7.779753   -1.313126    3.184857
     98          1           0        2.983609   -4.297937   -0.153497
     99          1           0        3.500733   -5.694238   -3.660312
    100          1           0        3.626217   -7.392973   -2.924949
    101          1           0        5.075679   -6.469522   -3.248318
    102          1           0       -2.413863   -5.918678    0.554664
    103          1           0       -3.424163   -5.611971   -0.846869
    104          1           0       -2.735976   -3.152995    0.623440
    105          1           0       -5.842666   -5.478526    2.264926
    106          1           0       -4.510889   -6.383146    1.640333
    107          1           0       -5.751297   -5.543783    0.500545
    108          1           0       -6.125184   -3.176407    2.181356
    109          1           0       -4.816232   -2.005382    1.842310
    110          1           0       -4.288412   -3.920488    3.906101
    111          1           0       -5.863698   -3.074422    4.260163
    112          1           0       -3.497722   -1.353846    3.473123
    113          1           0       -3.411008   -2.092678    5.054005
    114          1           0       -6.006689   -1.183007    5.108028
    115          1           0       -3.876258    0.406157    6.195514
    116          1           0       -4.202917   -1.285083    6.714961
    117          1           0       -5.348180   -0.037388    7.002542
    118          1           0       -4.260487    0.711115    3.486823
    119          1           0       -5.355162    1.349042    4.590486
    120          1           0       -7.178291    1.131992    3.644031
    121          1           0       -6.915260   -0.495179    2.872604
    122          1           0       -5.490314    0.753123    1.180847
    123          1           0       -5.978135    2.211449    1.938904
    124          1           0       -8.473375    0.879711    1.388416
    125          1           0       -7.585382    0.088099   -1.194190
    126          1           0       -8.333153   -0.820088    0.231834
    127          1           0       -6.616078   -0.635336    0.070914
    128          1           0       -7.625962    2.280847   -1.067129
    129          1           0       -7.370742    3.236438    0.383713
    130          1           0       -9.585944    3.813354   -0.366524
    131          1           0       -9.846741    2.817838    0.963059
    132          1           0      -10.859815    1.234106   -0.377071
    133          1           0       -9.637549    1.181917   -1.564652
    134          1           0      -11.156705    3.706566   -1.794706
    135          1           0      -12.876487    1.476705   -1.134768
    136          1           0      -12.973709    1.838255   -2.911101
    137          1           0      -13.281151    3.031552   -1.796566
    138          1           0      -11.380297    2.613407   -4.166043
    139          1           0      -10.130149    1.657275   -3.627363
    140          1           0       -9.924992    3.426039   -3.496440
 ---------------------------------------------------------------------

 SCF Done:  E(RB-LYP) =  -3007.35141328     A.U. after   20 cycles

 Excitation energies and oscillator strengths:

 Excited State   1:      Singlet-A      1.8212 eV  680.77 nm  f=0.2545  <S**2>=0.000
     245 -> 248        0.23050
     246 -> 247        0.66921
     246 <- 247       -0.12497
 This state for optimization and/or second-order correction.
 Total Energy, E(TD-HF/TD-DFT) =  -3007.28448390
 Copying the excited state density for this state as the 1-particle RhoCI density.

 Excited State   2:      Singlet-A      1.9515 eV  635.34 nm  f=0.0290  <S**2>=0.000
     244 -> 247       -0.37085
     245 -> 247        0.55057
     246 -> 248       -0.21693

 Excited State   3:      Singlet-A      2.0587 eV  602.23 nm  f=0.0140  <S**2>=0.000
     244 -> 247        0.59363
     245 -> 247        0.31034
     246 -> 248       -0.20022

 Excited State   4:      Singlet-A      2.1082 eV  588.09 nm  f=0.0001  <S**2>=0.000
     243 -> 247        0.70628

 Excited State   5:      Singlet-A      2.2255 eV  557.11 nm  f=0.0000  <S**2>=0.000
     242 -> 247        0.70709

 The electronic state is 1-A.
 Alpha  occ. eigenvalues --  -46.28979 -18.82282 -18.81812 -18.76960 -18.76287
 Alpha  occ. eigenvalues --  -18.75576 -18.75264 -14.03470 -14.03172 -14.01614
 Alpha  occ. eigenvalues --  -14.01025 -10.04154 -10.03945  -9.99923  -9.99097
 Alpha  occ. eigenvalues --   -9.97999  -9.97750  -9.97177  -9.96708  -9.96621
 Alpha  occ. eigenvalues --   -9.96499  -9.96302  -9.96079  -9.95513  -9.94700
 Alpha  occ. eigenvalues --   -9.94664  -9.94568  -9.94512  -9.94170  -9.93974
 Alpha  occ. eigenvalues --   -9.93866  -9.93858  -9.93667  -9.93151  -9.93149
 Alpha  occ. eigenvalues --   -9.93145  -9.93130  -9.93124  -9.92784  -9.92781
 Alpha  occ. eigenvalues --   -9.92677  -9.92629  -9.92545  -9.92471  -9.92400
 Alpha  occ. eigenvalues --   -9.92298  -9.92063  -9.91755  -9.91646  -9.91640
 Alpha  occ. eigenvalues --   -9.91604  -9.91487  -9.91442  -9.91316  -9.91224
 Alpha  occ. eigenvalues --   -9.91079  -9.91066  -9.91063  -9.90913  -9.90855
 Alpha  occ. eigenvalues --   -9.90845  -9.90584  -9.90471  -9.90459  -9.90352
 Alpha  occ. eigenvalues --   -9.90310  -2.93285  -1.73697  -1.73178  -1.72996
 Alpha  occ. eigenvalues --   -0.98793  -0.97092  -0.91339  -0.90933  -0.90881
 Alpha  occ. eigenvalues --   -0.88563  -0.87324  -0.85798  -0.85196  -0.84032
 Alpha  occ. eigenvalues --   -0.75161  -0.73679  -0.73250  -0.72795  -0.72239
 Alpha  occ. eigenvalues --   -0.72100  -0.71985  -0.71024  -0.70808  -0.70268
 Alpha  occ. eigenvalues --   -0.69822  -0.69478  -0.68462  -0.67663  -0.67589
 Alpha  occ. eigenvalues --   -0.66905  -0.66558  -0.65786  -0.65317  -0.64601
 Alpha  occ. eigenvalues --   -0.64269  -0.62709  -0.62342  -0.61823  -0.60571
 Alpha  occ. eigenvalues --   -0.60299  -0.59965  -0.59844  -0.59437  -0.59028
 Alpha  occ. eigenvalues --   -0.58058  -0.57388  -0.56827  -0.55540  -0.54463
 Alpha  occ. eigenvalues --   -0.53712  -0.53533  -0.53041  -0.52154  -0.51911
 Alpha  occ. eigenvalues --   -0.51537  -0.50935  -0.50723  -0.50226  -0.49951
 Alpha  occ. eigenvalues --   -0.49665  -0.49426  -0.48764  -0.48391  -0.46639
 Alpha  occ. eigenvalues --   -0.46392  -0.45941  -0.45778  -0.45344  -0.44276
 Alpha  occ. eigenvalues --   -0.43777  -0.43432  -0.43252  -0.42761  -0.42552
 Alpha  occ. eigenvalues --   -0.42464  -0.42205  -0.41545  -0.41238  -0.41101
 Alpha  occ. eigenvalues --   -0.41033  -0.40570  -0.40430  -0.40330  -0.40156
 Alpha  occ. eigenvalues --   -0.39897  -0.39686  -0.39369  -0.39331  -0.39242
 Alpha  occ. eigenvalues --   -0.38961  -0.38792  -0.38693  -0.38542  -0.38496
 Alpha  occ. eigenvalues --   -0.38363  -0.38244  -0.37945  -0.37826  -0.37402
 Alpha  occ. eigenvalues --   -0.37331  -0.37149  -0.36878  -0.36698  -0.36375
 Alpha  occ. eigenvalues --   -0.36299  -0.36164  -0.36044  -0.35790  -0.35729
 Alpha  occ. eigenvalues --   -0.35324  -0.35252  -0.35173  -0.35139  -0.34622
 Alpha  occ. eigenvalues --   -0.34435  -0.34316  -0.34231  -0.33947  -0.33851
 Alpha  occ. eigenvalues --   -0.33773  -0.33767  -0.33508  -0.33198  -0.32974
 Alpha  occ. eigenvalues --   -0.32882  -0.32655  -0.32463  -0.32342  -0.32319
 Alpha  occ. eigenvalues --   -0.32172  -0.31870  -0.31724  -0.31581  -0.31189
 Alpha  occ. eigenvalues --   -0.31050  -0.30834  -0.30767  -0.30623  -0.30490
 Alpha  occ. eigenvalues --   -0.30389  -0.30301  -0.30048  -0.29870  -0.29654
 Alpha  occ. eigenvalues --   -0.29508  -0.29411  -0.29265  -0.29221  -0.28973
 Alpha  occ. eigenvalues --   -0.28877  -0.28592  -0.28307  -0.27711  -0.27525
 Alpha  occ. eigenvalues --   -0.27411  -0.26985  -0.26945  -0.26481  -0.26228
 Alpha  occ. eigenvalues --   -0.26053  -0.25991  -0.25691  -0.25650  -0.25477
 Alpha  occ. eigenvalues --   -0.25169  -0.24821  -0.24722  -0.24222  -0.23984
 Alpha  occ. eigenvalues --   -0.23792  -0.22147  -0.21924  -0.21175  -0.20770
 Alpha  occ. eigenvalues --   -0.20242  -0.19244  -0.18729  -0.18393  -0.16979
 Alpha  occ. eigenvalues --   -0.15652
 Alpha virt. eigenvalues --   -0.11066  -0.07631  -0.06231  -0.04899  -0.03523
 Alpha virt. eigenvalues --   -0.03163  -0.02396  -0.01913  -0.01601  -0.00407
 Alpha virt. eigenvalues --    0.00482   0.01706   0.02048   0.02600   0.02699

 Mulliken charges:
               1
     1  Mg   0.687475
     2  C   -0.004442
     3  C   -0.071044
     4  C   -0.044065
     5  C   -0.063112
     6  N   -0.240460
     7  C   -0.068121
     8  C    0.059172
     9  C   -0.042207
    10  C    0.069784
    11  C    0.144913
    12  C    0.138372
    13  C    0.118809
    14  C    0.049112
    15  O   -0.133092
    16  O   -0.279905
    17  N   -0.242769
    18  C    0.108987
    19  C   -0.171252
    20  C    0.051190
    21  C    0.103307
    22  C    0.205604
    23  C   -0.082752
    24  O   -0.175684
    25  C    0.145320
    26  N   -0.185595
    27  C   -0.023758
    28  C    0.022861
    29  C    0.034475
    30  C    0.044497
    31  C    0.124203
    32  C    0.039406
    33  C    0.084116
    34  N   -0.286645
    35  C    0.076420
    36  C   -0.145995
    37  C    0.036729
    38  C    0.135744
    39  C    0.170191
    40  C   -0.040196
    41  O   -0.122015
    42  C    0.050805
    43  C    0.110705
    44  O   -0.215710
    45  O   -0.269214
    46  C    0.220767
    47  C    0.324944
    48  C   -0.131544
    49  C   -0.200523
    50  C    0.169849
    51  C    0.134682
    52  C    0.098843
    53  C    0.127224
    54  C   -0.089238
    55  C    0.074479
    56  C    0.126917
    57  C    0.056853
    58  C    0.095802
    59  C   -0.068378
    60  C    0.105801
    61  C    0.109324
    62  C    0.075063
    63  C    0.136301
    64  C   -0.089371
    65  C    0.116503
    66  C    0.086605
    67  H   -0.071147
    68  H   -0.081053
    69  H   -0.066628
    70  H   -0.018207
    71  H   -0.017611
    72  H   -0.017816
    73  H   -0.003066
    74  H   -0.005725
    75  H   -0.034115
    76  H   -0.009048
    77  H   -0.019772
    78  H   -0.006751
    79  H    0.010097
    80  H   -0.004614
    81  H    0.009282
    82  H    0.004079
    83  H   -0.025117
    84  H    0.030510
    85  H   -0.016991
    86  H   -0.024840
    87  H   -0.003329
    88  H   -0.008365
    89  H   -0.012904
    90  H   -0.026662
    91  H   -0.030078
    92  H    0.004794
    93  H   -0.001260
    94  H   -0.012632
    95  H    0.018946
    96  H    0.011828
    97  H   -0.006744
    98  H   -0.003919
    99  H    0.009270
   100  H    0.029736
   101  H    0.025984
   102  H    0.016491
   103  H   -0.003996
   104  H   -0.036028
   105  H   -0.026659
   106  H    0.005601
   107  H    0.017999
   108  H   -0.042856
   109  H   -0.001494
   110  H   -0.030737
   111  H   -0.022532
   112  H   -0.036122
   113  H   -0.044968
   114  H   -0.041948
   115  H   -0.024168
   116  H   -0.023222
   117  H   -0.017952
   118  H   -0.038047
   119  H   -0.052740
   120  H   -0.022695
   121  H   -0.018847
   122  H   -0.034282
   123  H   -0.038453
   124  H   -0.038682
   125  H   -0.002923
   126  H   -0.016078
   127  H   -0.032597
   128  H   -0.033492
   129  H   -0.046816
   130  H   -0.039880
   131  H   -0.034347
   132  H   -0.045773
   133  H   -0.031755
   134  H   -0.031194
   135  H   -0.016049
   136  H   -0.027402
   137  H   -0.030036
   138  H   -0.025256
   139  H   -0.027602
   140  H   -0.013661
 Sum of Mulliken charges =  -0.00000

 Dipole moment (field-independent basis, Debye):
    X=             -1.1920    Y=              2.5966    Z=              0.5533  Tot=              2.9102
 Quadrupole moment (field-independent basis, Debye-Ang):
   XX=           -395.1542   YY=           -427.2769   ZZ=           -389.3981
   XY=             42.5421   XZ=             -0.2910   YZ=             33.3277

 Normal termination of Gaussian 16 at Thu May  5 12:38:28 2022.
