 Gaussian 16, Revision A.03,
 Gaussian 16:  ES64L-G16RevA.03 25-Dec-2016

 -----------------------------------
 #p cam-b3lyp/Def2SVP td=(nstates=5)
 -----------------------------------

 -------------------------------------------------------
 step_851_chromophore_17 TDDFT with cam-b3lyp functional
 -------------------------------------------------------
 Symbolic Z-matrix:
 Charge =  0 Multiplicity = 1

                         Standard orientation:
 ---------------------------------------------------------------------
 Center     Atomic      Atomic             Coordinates (Angstroms)
 Number     Number       Type             X           Y           Z
 ---------------------------------------------------------------------
      1         12           0        3.916683    1.356505   -0.668270
      2          6           0        3.653243   -2.257963   -0.661510
      3          6           0        1.563480    1.416089   -3.122464
      4          6           0        3.339225    4.675926   -0.090484
      5          6           0        5.886973    1.125610    2.118166
      6          7           0        2.606145   -0.297854   -1.643263
      7          6           0        2.756312   -1.698363   -1.706900
      8          6           0        1.879684   -2.344008   -2.704702
      9          6           0        1.480342   -1.144436   -3.651227
     10          6           0        1.953416    0.124122   -2.799703
     11          6           0        2.104591   -1.206506   -5.049769
     12          6           0        0.663144   -3.056691   -2.112084
     13          6           0        0.262050   -4.514443   -2.356386
     14          6           0       -0.560220   -5.318634   -1.287076
     15          8           0       -0.335783   -6.351941   -0.749431
     16          8           0       -1.672060   -4.581166   -1.029765
     17          7           0        2.679978    2.903513   -1.542473
     18          6           0        1.795194    2.656956   -2.521957
     19          6           0        1.145278    3.920834   -2.986985
     20          6           0        1.598571    4.913185   -2.106149
     21          6           0        2.590325    4.214854   -1.171856
     22          6           0        0.193196    4.029658   -4.100077
     23          6           0        1.135322    6.364713   -2.130537
     24          8           0        0.273222    6.782619   -2.919250
     25          6           0        1.795106    7.351796   -1.298641
     26          7           0        4.562089    2.792217    0.845019
     27          6           0        4.262671    4.095999    0.817190
     28          6           0        4.863346    4.807192    1.942375
     29          6           0        5.739896    3.637893    2.631994
     30          6           0        5.402885    2.436226    1.829312
     31          6           0        5.681149    6.052058    1.499434
     32          6           0        5.471828    3.509452    4.182638
     33          6           0        6.482060    4.169148    5.160471
     34          7           0        4.799235   -0.194281    0.418561
     35          6           0        5.614612   -0.140994    1.584610
     36          6           0        6.017575   -1.534379    1.954620
     37          6           0        5.194014   -2.308606    1.087192
     38          6           0        4.513999   -1.489068    0.197085
     39          6           0        6.941985   -1.992921    3.029371
     40          6           0        4.822887   -3.708495    0.833962
     41          8           0        5.067191   -4.764684    1.385417
     42          6           0        3.867163   -3.693135   -0.354894
     43          6           0        4.478705   -4.524570   -1.492410
     44          8           0        5.355437   -4.086743   -2.264269
     45          8           0        3.752758   -5.668623   -1.737155
     46          6           0        4.020319   -6.378482   -2.990839
     47          6           0       -2.708667   -5.154249   -0.163320
     48          6           0       -3.297086   -4.085537    0.680500
     49          6           0       -4.443850   -4.215285    1.457586
     50          6           0       -5.160492   -5.536013    1.416200
     51          6           0       -5.055496   -2.983317    2.259920
     52          6           0       -4.902859   -3.034059    3.746975
     53          6           0       -4.098509   -1.821095    4.253135
     54          6           0       -5.042404   -0.754662    4.834253
     55          6           0       -4.623170   -0.384253    6.266954
     56          6           0       -5.231996    0.491090    3.929699
     57          6           0       -6.514096    0.501868    3.052369
     58          6           0       -6.336078    1.211413    1.693312
     59          6           0       -7.594538    1.127971    0.792623
     60          6           0       -7.564152   -0.135792   -0.127142
     61          6           0       -7.947588    2.411223   -0.033694
     62          6           0       -9.457840    2.776850   -0.054098
     63          6           0      -10.250007    1.887018   -1.001899
     64          6           0      -11.164128    2.628323   -1.960591
     65          6           0      -12.624675    2.172803   -1.934000
     66          6           0      -10.623264    2.597791   -3.381636
     67          1           0        0.911380    1.527717   -3.990631
     68          1           0        3.076418    5.684652    0.235279
     69          1           0        6.522927    1.021349    2.999826
     70          1           0        2.500861   -3.107812   -3.172198
     71          1           0        0.402265   -1.126250   -3.808422
     72          1           0        2.733902   -2.095955   -5.018475
     73          1           0        2.754678   -0.357284   -5.259921
     74          1           0        1.346743   -1.354483   -5.819126
     75          1           0       -0.158508   -2.505184   -2.571077
     76          1           0        0.528958   -2.828265   -1.054047
     77          1           0        1.167148   -5.060120   -2.623844
     78          1           0       -0.394385   -4.595060   -3.221862
     79          1           0       -0.725368    3.539825   -3.777447
     80          1           0        0.662267    3.517700   -4.939572
     81          1           0        0.046399    5.073284   -4.379024
     82          1           0        1.696656    7.035637   -0.260093
     83          1           0        1.155240    8.234216   -1.256016
     84          1           0        2.792765    7.694029   -1.574621
     85          1           0        4.162218    5.095700    2.724323
     86          1           0        6.774133    3.965240    2.521306
     87          1           0        5.371893    6.519769    0.564119
     88          1           0        6.726635    5.752014    1.441571
     89          1           0        5.483562    6.823217    2.244182
     90          1           0        5.395379    2.444635    4.406793
     91          1           0        4.484593    3.879630    4.460234
     92          1           0        6.649285    3.475784    5.985745
     93          1           0        6.066073    5.123476    5.482647
     94          1           0        7.348164    4.331683    4.518872
     95          1           0        7.346945   -2.998432    2.917758
     96          1           0        6.280794   -1.911033    3.892179
     97          1           0        7.779753   -1.313126    3.184857
     98          1           0        2.983609   -4.297937   -0.153497
     99          1           0        3.500733   -5.694238   -3.660312
    100          1           0        3.626217   -7.392973   -2.924949
    101          1           0        5.075679   -6.469522   -3.248318
    102          1           0       -2.413863   -5.918678    0.554664
    103          1           0       -3.424163   -5.611971   -0.846869
    104          1           0       -2.735976   -3.152995    0.623440
    105          1           0       -5.842666   -5.478526    2.264926
    106          1           0       -4.510889   -6.383146    1.640333
    107          1           0       -5.751297   -5.543783    0.500545
    108          1           0       -6.125184   -3.176407    2.181356
    109          1           0       -4.816232   -2.005382    1.842310
    110          1           0       -4.288412   -3.920488    3.906101
    111          1           0       -5.863698   -3.074422    4.260163
    112          1           0       -3.497722   -1.353846    3.473123
    113          1           0       -3.411008   -2.092678    5.054005
    114          1           0       -6.006689   -1.183007    5.108028
    115          1           0       -3.876258    0.406157    6.195514
    116          1           0       -4.202917   -1.285083    6.714961
    117          1           0       -5.348180   -0.037388    7.002542
    118          1           0       -4.260487    0.711115    3.486823
    119          1           0       -5.355162    1.349042    4.590486
    120          1           0       -7.178291    1.131992    3.644031
    121          1           0       -6.915260   -0.495179    2.872604
    122          1           0       -5.490314    0.753123    1.180847
    123          1           0       -5.978135    2.211449    1.938904
    124          1           0       -8.473375    0.879711    1.388416
    125          1           0       -7.585382    0.088099   -1.194190
    126          1           0       -8.333153   -0.820088    0.231834
    127          1           0       -6.616078   -0.635336    0.070914
    128          1           0       -7.625962    2.280847   -1.067129
    129          1           0       -7.370742    3.236438    0.383713
    130          1           0       -9.585944    3.813354   -0.366524
    131          1           0       -9.846741    2.817838    0.963059
    132          1           0      -10.859815    1.234106   -0.377071
    133          1           0       -9.637549    1.181917   -1.564652
    134          1           0      -11.156705    3.706566   -1.794706
    135          1           0      -12.876487    1.476705   -1.134768
    136          1           0      -12.973709    1.838255   -2.911101
    137          1           0      -13.281151    3.031552   -1.796566
    138          1           0      -11.380297    2.613407   -4.166043
    139          1           0      -10.130149    1.657275   -3.627363
    140          1           0       -9.924992    3.426039   -3.496440
 ---------------------------------------------------------------------

 SCF Done:  E(RCAM-B3LYP) =  -3007.14073626     A.U. after   19 cycles

 Excitation energies and oscillator strengths:

 Excited State   1:      Singlet-A      1.7643 eV  702.73 nm  f=0.3277  <S**2>=0.000
     245 -> 248        0.21260
     246 -> 247        0.67453
     245 <- 248        0.10950
 This state for optimization and/or second-order correction.
 Total Energy, E(TD-HF/TD-DFT) =  -3007.07589864
 Copying the excited state density for this state as the 1-particle RhoCI density.

 Excited State   2:      Singlet-A      2.2201 eV  558.47 nm  f=0.0340  <S**2>=0.000
     245 -> 247        0.59465
     246 -> 248       -0.37133

 Excited State   3:      Singlet-A      3.3460 eV  370.54 nm  f=0.7348  <S**2>=0.000
     243 -> 247        0.12210
     245 -> 247        0.35359
     246 -> 248        0.58502
     245 <- 247       -0.10859

 Excited State   4:      Singlet-A      3.6076 eV  343.67 nm  f=0.0355  <S**2>=0.000
     241 -> 247       -0.21185
     242 -> 247        0.10050
     243 -> 247        0.62727

 Excited State   5:      Singlet-A      3.6287 eV  341.67 nm  f=0.0344  <S**2>=0.000
     241 -> 247        0.39496
     241 -> 249       -0.23112
     241 -> 251        0.23612
     242 -> 247        0.35763
     242 -> 249       -0.11224
     242 -> 251        0.13005
     243 -> 247        0.13001

 The electronic state is 1-A.
 Alpha  occ. eigenvalues --  -46.90684 -19.25132 -19.24582 -19.19879 -19.19312
 Alpha  occ. eigenvalues --  -19.19001 -19.18372 -14.42336 -14.42126 -14.40289
 Alpha  occ. eigenvalues --  -14.39348 -10.39387 -10.39322 -10.35310 -10.34266
 Alpha  occ. eigenvalues --  -10.31953 -10.31744 -10.31683 -10.31428 -10.31191
 Alpha  occ. eigenvalues --  -10.30809 -10.30795 -10.30173 -10.30151 -10.28923
 Alpha  occ. eigenvalues --  -10.28904 -10.28680 -10.28651 -10.28561 -10.28337
 Alpha  occ. eigenvalues --  -10.27872 -10.27851 -10.27798 -10.27793 -10.27332
 Alpha  occ. eigenvalues --  -10.27318 -10.27309 -10.26987 -10.26898 -10.26606
 Alpha  occ. eigenvalues --  -10.26532 -10.26396 -10.26377 -10.26128 -10.26087
 Alpha  occ. eigenvalues --  -10.25915 -10.25893 -10.25782 -10.25591 -10.25574
 Alpha  occ. eigenvalues --  -10.25368 -10.25142 -10.25106 -10.25035 -10.24946
 Alpha  occ. eigenvalues --  -10.24812 -10.24732 -10.24724 -10.24542 -10.24517
 Alpha  occ. eigenvalues --  -10.24456 -10.24177 -10.24069 -10.24052 -10.23920
 Alpha  occ. eigenvalues --  -10.23888  -3.18876  -1.93770  -1.93328  -1.93170
 Alpha  occ. eigenvalues --   -1.17251  -1.15491  -1.09686  -1.09508  -1.08696
 Alpha  occ. eigenvalues --   -1.06423  -1.05108  -1.03603  -1.02702  -1.01560
 Alpha  occ. eigenvalues --   -0.92197  -0.90511  -0.90012  -0.89571  -0.89048
 Alpha  occ. eigenvalues --   -0.88780  -0.88598  -0.87594  -0.87492  -0.87033
 Alpha  occ. eigenvalues --   -0.86277  -0.85819  -0.84769  -0.83930  -0.83797
 Alpha  occ. eigenvalues --   -0.83077  -0.82769  -0.81688  -0.81068  -0.80440
 Alpha  occ. eigenvalues --   -0.80016  -0.78306  -0.77900  -0.77589  -0.75976
 Alpha  occ. eigenvalues --   -0.75608  -0.75319  -0.75141  -0.74737  -0.74267
 Alpha  occ. eigenvalues --   -0.73014  -0.72300  -0.71798  -0.70334  -0.69030
 Alpha  occ. eigenvalues --   -0.68376  -0.68082  -0.67594  -0.66452  -0.66005
 Alpha  occ. eigenvalues --   -0.65813  -0.65067  -0.64639  -0.64266  -0.63812
 Alpha  occ. eigenvalues --   -0.63589  -0.63407  -0.62642  -0.62022  -0.60231
 Alpha  occ. eigenvalues --   -0.59994  -0.59504  -0.59181  -0.58862  -0.57750
 Alpha  occ. eigenvalues --   -0.57221  -0.56827  -0.56564  -0.55867  -0.55708
 Alpha  occ. eigenvalues --   -0.55615  -0.55254  -0.54333  -0.54257  -0.54110
 Alpha  occ. eigenvalues --   -0.53725  -0.53266  -0.53142  -0.53044  -0.52989
 Alpha  occ. eigenvalues --   -0.52643  -0.52374  -0.52063  -0.51866  -0.51770
 Alpha  occ. eigenvalues --   -0.51446  -0.51306  -0.51271  -0.51021  -0.50944
 Alpha  occ. eigenvalues --   -0.50820  -0.50555  -0.50237  -0.50188  -0.49887
 Alpha  occ. eigenvalues --   -0.49642  -0.49519  -0.49244  -0.49071  -0.48819
 Alpha  occ. eigenvalues --   -0.48677  -0.48503  -0.48121  -0.47991  -0.47791
 Alpha  occ. eigenvalues --   -0.47603  -0.47432  -0.47290  -0.47057  -0.46621
 Alpha  occ. eigenvalues --   -0.46573  -0.46175  -0.46030  -0.45954  -0.45541
 Alpha  occ. eigenvalues --   -0.45498  -0.45428  -0.45374  -0.44860  -0.44735
 Alpha  occ. eigenvalues --   -0.44671  -0.44454  -0.44167  -0.43948  -0.43829
 Alpha  occ. eigenvalues --   -0.43816  -0.43597  -0.43237  -0.43164  -0.42906
 Alpha  occ. eigenvalues --   -0.42598  -0.42310  -0.42199  -0.42122  -0.41865
 Alpha  occ. eigenvalues --   -0.41760  -0.41731  -0.41548  -0.41484  -0.41023
 Alpha  occ. eigenvalues --   -0.40819  -0.40792  -0.40436  -0.40327  -0.40154
 Alpha  occ. eigenvalues --   -0.39967  -0.39582  -0.39453  -0.38602  -0.38285
 Alpha  occ. eigenvalues --   -0.38278  -0.37825  -0.37811  -0.37776  -0.37037
 Alpha  occ. eigenvalues --   -0.36932  -0.36714  -0.36690  -0.36652  -0.36246
 Alpha  occ. eigenvalues --   -0.36151  -0.35790  -0.35387  -0.34831  -0.34621
 Alpha  occ. eigenvalues --   -0.33992  -0.33663  -0.33203  -0.31336  -0.31085
 Alpha  occ. eigenvalues --   -0.30390  -0.30265  -0.29427  -0.28732  -0.23735
 Alpha  occ. eigenvalues --   -0.20875
 Alpha virt. eigenvalues --   -0.07902  -0.02802   0.00222   0.01488   0.02096
 Alpha virt. eigenvalues --    0.04284   0.04953   0.05543   0.06312   0.06610
 Alpha virt. eigenvalues --    0.07757   0.07947   0.08310   0.08901   0.09090

 Mulliken charges:
               1
     1  Mg   0.815639
     2  C   -0.032080
     3  C   -0.090023
     4  C   -0.063026
     5  C   -0.067401
     6  N   -0.303669
     7  C   -0.023383
     8  C    0.007527
     9  C   -0.090086
    10  C    0.084991
    11  C    0.085632
    12  C    0.080948
    13  C    0.058613
    14  C    0.129440
    15  O   -0.175238
    16  O   -0.344271
    17  N   -0.328684
    18  C    0.121635
    19  C   -0.168431
    20  C   -0.019832
    21  C    0.130566
    22  C    0.140144
    23  C    0.002552
    24  O   -0.215807
    25  C    0.053672
    26  N   -0.257603
    27  C    0.003946
    28  C   -0.035995
    29  C   -0.019171
    30  C    0.058958
    31  C    0.066997
    32  C   -0.016317
    33  C    0.025782
    34  N   -0.374277
    35  C    0.077219
    36  C   -0.138603
    37  C   -0.049071
    38  C    0.172218
    39  C    0.116955
    40  C    0.057247
    41  O   -0.161530
    42  C   -0.018656
    43  C    0.199082
    44  O   -0.252445
    45  O   -0.333798
    46  C    0.181562
    47  C    0.289081
    48  C   -0.143563
    49  C   -0.220739
    50  C    0.097579
    51  C    0.083093
    52  C    0.039916
    53  C    0.068515
    54  C   -0.145188
    55  C    0.020364
    56  C    0.068887
    57  C    0.007436
    58  C    0.046110
    59  C   -0.125362
    60  C    0.048353
    61  C    0.057070
    62  C    0.021542
    63  C    0.076546
    64  C   -0.152019
    65  C    0.055829
    66  C    0.030970
    67  H   -0.034753
    68  H   -0.048201
    69  H   -0.031793
    70  H    0.012457
    71  H    0.017583
    72  H    0.007972
    73  H    0.023300
    74  H    0.019008
    75  H   -0.001879
    76  H    0.023181
    77  H    0.008111
    78  H    0.024377
    79  H    0.037976
    80  H    0.021124
    81  H    0.044026
    82  H    0.032070
    83  H    0.013227
    84  H    0.059997
    85  H    0.017098
    86  H    0.007405
    87  H    0.020543
    88  H    0.016369
    89  H    0.011827
    90  H    0.003321
    91  H   -0.001623
    92  H    0.028165
    93  H    0.020336
    94  H    0.008457
    95  H    0.045905
    96  H    0.037210
    97  H    0.017679
    98  H    0.038924
    99  H    0.026887
   100  H    0.052847
   101  H    0.051242
   102  H    0.045978
   103  H    0.022827
   104  H   -0.001101
   105  H   -0.000800
   106  H    0.030398
   107  H    0.043092
   108  H   -0.013025
   109  H    0.021283
   110  H    0.000811
   111  H    0.006070
   112  H   -0.007552
   113  H   -0.012051
   114  H   -0.010005
   115  H   -0.001105
   116  H    0.000967
   117  H    0.007214
   118  H   -0.009628
   119  H   -0.020676
   120  H    0.005008
   121  H    0.003259
   122  H   -0.007937
   123  H   -0.009797
   124  H   -0.006700
   125  H    0.019231
   126  H    0.007655
   127  H   -0.008553
   128  H   -0.006805
   129  H   -0.015943
   130  H   -0.010208
   131  H   -0.005303
   132  H   -0.015428
   133  H   -0.005167
   134  H    0.000791
   135  H    0.008224
   136  H   -0.002543
   137  H   -0.004666
   138  H   -0.000124
   139  H   -0.004071
   140  H    0.009650
 Sum of Mulliken charges =  -0.00000

 Dipole moment (field-independent basis, Debye):
    X=             -1.4045    Y=              3.3333    Z=              0.2919  Tot=              3.6288
 Quadrupole moment (field-independent basis, Debye-Ang):
   XX=           -396.4298   YY=           -423.4268   ZZ=           -386.8385
   XY=             44.6555   XZ=             -0.0051   YZ=             34.2005

 Normal termination of Gaussian 16 at Thu May  5 11:17:48 2022.
