 Gaussian 16, Revision A.03,
 Gaussian 16:  ES64L-G16RevA.03 25-Dec-2016

 ---------------------------------
 #p PBE1PBE/Def2SVP td=(nstates=5)
 ---------------------------------

 -----------------------------------------------------
 step_851_chromophore_17 TDDFT with PBE1PBE functional
 -----------------------------------------------------
 Symbolic Z-matrix:
 Charge =  0 Multiplicity = 1

                         Standard orientation:
 ---------------------------------------------------------------------
 Center     Atomic      Atomic             Coordinates (Angstroms)
 Number     Number       Type             X           Y           Z
 ---------------------------------------------------------------------
      1         12           0        3.916683    1.356505   -0.668270
      2          6           0        3.653243   -2.257963   -0.661510
      3          6           0        1.563480    1.416089   -3.122464
      4          6           0        3.339225    4.675926   -0.090484
      5          6           0        5.886973    1.125610    2.118166
      6          7           0        2.606145   -0.297854   -1.643263
      7          6           0        2.756312   -1.698363   -1.706900
      8          6           0        1.879684   -2.344008   -2.704702
      9          6           0        1.480342   -1.144436   -3.651227
     10          6           0        1.953416    0.124122   -2.799703
     11          6           0        2.104591   -1.206506   -5.049769
     12          6           0        0.663144   -3.056691   -2.112084
     13          6           0        0.262050   -4.514443   -2.356386
     14          6           0       -0.560220   -5.318634   -1.287076
     15          8           0       -0.335783   -6.351941   -0.749431
     16          8           0       -1.672060   -4.581166   -1.029765
     17          7           0        2.679978    2.903513   -1.542473
     18          6           0        1.795194    2.656956   -2.521957
     19          6           0        1.145278    3.920834   -2.986985
     20          6           0        1.598571    4.913185   -2.106149
     21          6           0        2.590325    4.214854   -1.171856
     22          6           0        0.193196    4.029658   -4.100077
     23          6           0        1.135322    6.364713   -2.130537
     24          8           0        0.273222    6.782619   -2.919250
     25          6           0        1.795106    7.351796   -1.298641
     26          7           0        4.562089    2.792217    0.845019
     27          6           0        4.262671    4.095999    0.817190
     28          6           0        4.863346    4.807192    1.942375
     29          6           0        5.739896    3.637893    2.631994
     30          6           0        5.402885    2.436226    1.829312
     31          6           0        5.681149    6.052058    1.499434
     32          6           0        5.471828    3.509452    4.182638
     33          6           0        6.482060    4.169148    5.160471
     34          7           0        4.799235   -0.194281    0.418561
     35          6           0        5.614612   -0.140994    1.584610
     36          6           0        6.017575   -1.534379    1.954620
     37          6           0        5.194014   -2.308606    1.087192
     38          6           0        4.513999   -1.489068    0.197085
     39          6           0        6.941985   -1.992921    3.029371
     40          6           0        4.822887   -3.708495    0.833962
     41          8           0        5.067191   -4.764684    1.385417
     42          6           0        3.867163   -3.693135   -0.354894
     43          6           0        4.478705   -4.524570   -1.492410
     44          8           0        5.355437   -4.086743   -2.264269
     45          8           0        3.752758   -5.668623   -1.737155
     46          6           0        4.020319   -6.378482   -2.990839
     47          6           0       -2.708667   -5.154249   -0.163320
     48          6           0       -3.297086   -4.085537    0.680500
     49          6           0       -4.443850   -4.215285    1.457586
     50          6           0       -5.160492   -5.536013    1.416200
     51          6           0       -5.055496   -2.983317    2.259920
     52          6           0       -4.902859   -3.034059    3.746975
     53          6           0       -4.098509   -1.821095    4.253135
     54          6           0       -5.042404   -0.754662    4.834253
     55          6           0       -4.623170   -0.384253    6.266954
     56          6           0       -5.231996    0.491090    3.929699
     57          6           0       -6.514096    0.501868    3.052369
     58          6           0       -6.336078    1.211413    1.693312
     59          6           0       -7.594538    1.127971    0.792623
     60          6           0       -7.564152   -0.135792   -0.127142
     61          6           0       -7.947588    2.411223   -0.033694
     62          6           0       -9.457840    2.776850   -0.054098
     63          6           0      -10.250007    1.887018   -1.001899
     64          6           0      -11.164128    2.628323   -1.960591
     65          6           0      -12.624675    2.172803   -1.934000
     66          6           0      -10.623264    2.597791   -3.381636
     67          1           0        0.911380    1.527717   -3.990631
     68          1           0        3.076418    5.684652    0.235279
     69          1           0        6.522927    1.021349    2.999826
     70          1           0        2.500861   -3.107812   -3.172198
     71          1           0        0.402265   -1.126250   -3.808422
     72          1           0        2.733902   -2.095955   -5.018475
     73          1           0        2.754678   -0.357284   -5.259921
     74          1           0        1.346743   -1.354483   -5.819126
     75          1           0       -0.158508   -2.505184   -2.571077
     76          1           0        0.528958   -2.828265   -1.054047
     77          1           0        1.167148   -5.060120   -2.623844
     78          1           0       -0.394385   -4.595060   -3.221862
     79          1           0       -0.725368    3.539825   -3.777447
     80          1           0        0.662267    3.517700   -4.939572
     81          1           0        0.046399    5.073284   -4.379024
     82          1           0        1.696656    7.035637   -0.260093
     83          1           0        1.155240    8.234216   -1.256016
     84          1           0        2.792765    7.694029   -1.574621
     85          1           0        4.162218    5.095700    2.724323
     86          1           0        6.774133    3.965240    2.521306
     87          1           0        5.371893    6.519769    0.564119
     88          1           0        6.726635    5.752014    1.441571
     89          1           0        5.483562    6.823217    2.244182
     90          1           0        5.395379    2.444635    4.406793
     91          1           0        4.484593    3.879630    4.460234
     92          1           0        6.649285    3.475784    5.985745
     93          1           0        6.066073    5.123476    5.482647
     94          1           0        7.348164    4.331683    4.518872
     95          1           0        7.346945   -2.998432    2.917758
     96          1           0        6.280794   -1.911033    3.892179
     97          1           0        7.779753   -1.313126    3.184857
     98          1           0        2.983609   -4.297937   -0.153497
     99          1           0        3.500733   -5.694238   -3.660312
    100          1           0        3.626217   -7.392973   -2.924949
    101          1           0        5.075679   -6.469522   -3.248318
    102          1           0       -2.413863   -5.918678    0.554664
    103          1           0       -3.424163   -5.611971   -0.846869
    104          1           0       -2.735976   -3.152995    0.623440
    105          1           0       -5.842666   -5.478526    2.264926
    106          1           0       -4.510889   -6.383146    1.640333
    107          1           0       -5.751297   -5.543783    0.500545
    108          1           0       -6.125184   -3.176407    2.181356
    109          1           0       -4.816232   -2.005382    1.842310
    110          1           0       -4.288412   -3.920488    3.906101
    111          1           0       -5.863698   -3.074422    4.260163
    112          1           0       -3.497722   -1.353846    3.473123
    113          1           0       -3.411008   -2.092678    5.054005
    114          1           0       -6.006689   -1.183007    5.108028
    115          1           0       -3.876258    0.406157    6.195514
    116          1           0       -4.202917   -1.285083    6.714961
    117          1           0       -5.348180   -0.037388    7.002542
    118          1           0       -4.260487    0.711115    3.486823
    119          1           0       -5.355162    1.349042    4.590486
    120          1           0       -7.178291    1.131992    3.644031
    121          1           0       -6.915260   -0.495179    2.872604
    122          1           0       -5.490314    0.753123    1.180847
    123          1           0       -5.978135    2.211449    1.938904
    124          1           0       -8.473375    0.879711    1.388416
    125          1           0       -7.585382    0.088099   -1.194190
    126          1           0       -8.333153   -0.820088    0.231834
    127          1           0       -6.616078   -0.635336    0.070914
    128          1           0       -7.625962    2.280847   -1.067129
    129          1           0       -7.370742    3.236438    0.383713
    130          1           0       -9.585944    3.813354   -0.366524
    131          1           0       -9.846741    2.817838    0.963059
    132          1           0      -10.859815    1.234106   -0.377071
    133          1           0       -9.637549    1.181917   -1.564652
    134          1           0      -11.156705    3.706566   -1.794706
    135          1           0      -12.876487    1.476705   -1.134768
    136          1           0      -12.973709    1.838255   -2.911101
    137          1           0      -13.281151    3.031552   -1.796566
    138          1           0      -11.380297    2.613407   -4.166043
    139          1           0      -10.130149    1.657275   -3.627363
    140          1           0       -9.924992    3.426039   -3.496440
 ---------------------------------------------------------------------

 SCF Done:  E(RPBE1PBE) =  -3005.33156998     A.U. after   15 cycles

 Excitation energies and oscillator strengths:

 Excited State   1:      Singlet-A      1.9014 eV  652.08 nm  f=0.3208  <S**2>=0.000
     245 -> 248        0.20769
     246 -> 247        0.67977
 This state for optimization and/or second-order correction.
 Total Energy, E(TD-HF/TD-DFT) =  -3005.26169657
 Copying the excited state density for this state as the 1-particle RhoCI density.

 Excited State   2:      Singlet-A      2.2283 eV  556.41 nm  f=0.0419  <S**2>=0.000
     245 -> 247        0.61690
     246 -> 248       -0.33356

 Excited State   3:      Singlet-A      3.0928 eV  400.88 nm  f=0.0981  <S**2>=0.000
     242 -> 247        0.55847
     242 -> 249       -0.13628
     242 -> 250        0.11422
     243 -> 247       -0.16336
     245 -> 247       -0.14059
     246 -> 248       -0.30266

 Excited State   4:      Singlet-A      3.1512 eV  393.45 nm  f=0.2501  <S**2>=0.000
     239 -> 247       -0.10843
     242 -> 247        0.18257
     243 -> 247       -0.39101
     245 -> 247        0.21480
     246 -> 248        0.45422
     246 -> 249        0.16172

 Excited State   5:      Singlet-A      3.2395 eV  382.73 nm  f=0.0896  <S**2>=0.000
     240 -> 247       -0.20848
     241 -> 247        0.14662
     242 -> 247        0.29932
     243 -> 247        0.50261
     245 -> 247        0.12456
     246 -> 248        0.18704
     246 -> 249        0.13467

 The electronic state is 1-A.
 Alpha  occ. eigenvalues --  -46.94054 -19.25851 -19.25322 -19.20172 -19.19617
 Alpha  occ. eigenvalues --  -19.19107 -19.18675 -14.41931 -14.41548 -14.39795
 Alpha  occ. eigenvalues --  -14.39084 -10.36506 -10.36386 -10.32306 -10.31494
 Alpha  occ. eigenvalues --  -10.29567 -10.29228 -10.29104 -10.29044 -10.28735
 Alpha  occ. eigenvalues --  -10.28657 -10.28423 -10.28093 -10.27628 -10.26727
 Alpha  occ. eigenvalues --  -10.26656 -10.26484 -10.26475 -10.26290 -10.26028
 Alpha  occ. eigenvalues --  -10.25776 -10.25610 -10.25375 -10.25360 -10.25021
 Alpha  occ. eigenvalues --  -10.25006 -10.24924 -10.24640 -10.24451 -10.24245
 Alpha  occ. eigenvalues --  -10.24098 -10.24018 -10.23872 -10.23567 -10.23479
 Alpha  occ. eigenvalues --  -10.23377 -10.23322 -10.23120 -10.23096 -10.23047
 Alpha  occ. eigenvalues --  -10.22921 -10.22893 -10.22817 -10.22642 -10.22586
 Alpha  occ. eigenvalues --  -10.22346 -10.22282 -10.22257 -10.22057 -10.22049
 Alpha  occ. eigenvalues --  -10.22034 -10.21589 -10.21562 -10.21457 -10.21294
 Alpha  occ. eigenvalues --  -10.21259  -3.15836  -1.88667  -1.88205  -1.88050
 Alpha  occ. eigenvalues --   -1.12118  -1.10324  -1.04508  -1.04098  -1.03626
 Alpha  occ. eigenvalues --   -1.01286  -0.99715  -0.98142  -0.97422  -0.96179
 Alpha  occ. eigenvalues --   -0.86634  -0.84629  -0.84253  -0.83651  -0.83321
 Alpha  occ. eigenvalues --   -0.82917  -0.82892  -0.81749  -0.81703  -0.81273
 Alpha  occ. eigenvalues --   -0.80634  -0.80044  -0.78947  -0.78142  -0.78083
 Alpha  occ. eigenvalues --   -0.77197  -0.76977  -0.75972  -0.75385  -0.74676
 Alpha  occ. eigenvalues --   -0.74248  -0.72628  -0.72283  -0.71814  -0.70352
 Alpha  occ. eigenvalues --   -0.69963  -0.69395  -0.69304  -0.68828  -0.68432
 Alpha  occ. eigenvalues --   -0.67426  -0.66699  -0.66256  -0.64640  -0.63405
 Alpha  occ. eigenvalues --   -0.62778  -0.62285  -0.62049  -0.60689  -0.60386
 Alpha  occ. eigenvalues --   -0.60250  -0.59306  -0.59240  -0.58838  -0.58175
 Alpha  occ. eigenvalues --   -0.57794  -0.57557  -0.56793  -0.56652  -0.54675
 Alpha  occ. eigenvalues --   -0.54456  -0.54051  -0.53781  -0.53448  -0.52348
 Alpha  occ. eigenvalues --   -0.51681  -0.51363  -0.51021  -0.50412  -0.50250
 Alpha  occ. eigenvalues --   -0.50064  -0.49829  -0.48870  -0.48806  -0.48642
 Alpha  occ. eigenvalues --   -0.48183  -0.47822  -0.47631  -0.47403  -0.47323
 Alpha  occ. eigenvalues --   -0.47269  -0.47032  -0.46678  -0.46464  -0.46242
 Alpha  occ. eigenvalues --   -0.45960  -0.45916  -0.45813  -0.45523  -0.45428
 Alpha  occ. eigenvalues --   -0.45347  -0.45072  -0.44928  -0.44697  -0.44538
 Alpha  occ. eigenvalues --   -0.44171  -0.44075  -0.43862  -0.43681  -0.43392
 Alpha  occ. eigenvalues --   -0.43329  -0.43145  -0.42772  -0.42578  -0.42482
 Alpha  occ. eigenvalues --   -0.42274  -0.42033  -0.41906  -0.41632  -0.41366
 Alpha  occ. eigenvalues --   -0.41180  -0.40920  -0.40687  -0.40654  -0.40363
 Alpha  occ. eigenvalues --   -0.40216  -0.40146  -0.40042  -0.39552  -0.39477
 Alpha  occ. eigenvalues --   -0.39414  -0.39206  -0.39002  -0.38807  -0.38658
 Alpha  occ. eigenvalues --   -0.38531  -0.38378  -0.38035  -0.37812  -0.37735
 Alpha  occ. eigenvalues --   -0.37336  -0.37157  -0.36925  -0.36836  -0.36747
 Alpha  occ. eigenvalues --   -0.36583  -0.36465  -0.36391  -0.36348  -0.35938
 Alpha  occ. eigenvalues --   -0.35615  -0.35529  -0.35338  -0.35119  -0.35029
 Alpha  occ. eigenvalues --   -0.34758  -0.34384  -0.34330  -0.33432  -0.33326
 Alpha  occ. eigenvalues --   -0.33072  -0.32818  -0.32602  -0.32555  -0.32023
 Alpha  occ. eigenvalues --   -0.31913  -0.31750  -0.31476  -0.31442  -0.31142
 Alpha  occ. eigenvalues --   -0.31082  -0.30584  -0.30258  -0.30014  -0.29585
 Alpha  occ. eigenvalues --   -0.29078  -0.28886  -0.28278  -0.26658  -0.25922
 Alpha  occ. eigenvalues --   -0.25867  -0.25301  -0.25133  -0.24038  -0.20668
 Alpha  occ. eigenvalues --   -0.18537
 Alpha virt. eigenvalues --   -0.10505  -0.06142  -0.03973  -0.02343  -0.01225
 Alpha virt. eigenvalues --   -0.00145   0.00416   0.01112   0.01742   0.02569
 Alpha virt. eigenvalues --    0.03509   0.04347   0.04865   0.05564   0.05645

 Mulliken charges:
               1
     1  Mg   0.951738
     2  C   -0.029848
     3  C   -0.072817
     4  C   -0.067531
     5  C   -0.068253
     6  N   -0.387991
     7  C    0.049501
     8  C   -0.077541
     9  C   -0.163600
    10  C    0.110431
    11  C    0.030321
    12  C    0.038504
    13  C   -0.025480
    14  C    0.198199
    15  O   -0.212537
    16  O   -0.373575
    17  N   -0.441879
    18  C    0.140866
    19  C   -0.189680
    20  C   -0.065135
    21  C    0.160701
    22  C    0.074003
    23  C    0.053187
    24  O   -0.252847
    25  C   -0.019561
    26  N   -0.369312
    27  C    0.051691
    28  C   -0.116615
    29  C   -0.096273
    30  C    0.102027
    31  C    0.011039
    32  C   -0.073259
    33  C   -0.048435
    34  N   -0.497054
    35  C    0.100078
    36  C   -0.150878
    37  C   -0.100506
    38  C    0.215534
    39  C    0.064015
    40  C    0.150923
    41  O   -0.208298
    42  C   -0.126370
    43  C    0.288806
    44  O   -0.284384
    45  O   -0.366803
    46  C    0.124650
    47  C    0.248238
    48  C   -0.147519
    49  C   -0.263108
    50  C    0.025558
    51  C    0.019307
    52  C   -0.027938
    53  C    0.014506
    54  C   -0.226545
    55  C   -0.040606
    56  C    0.016506
    57  C   -0.060713
    58  C   -0.009743
    59  C   -0.203009
    60  C   -0.012272
    61  C   -0.003844
    62  C   -0.043383
    63  C    0.023951
    64  C   -0.247881
    65  C   -0.003084
    66  C   -0.026306
    67  H   -0.002428
    68  H   -0.013931
    69  H    0.001196
    70  H    0.056176
    71  H    0.051990
    72  H    0.035609
    73  H    0.050655
    74  H    0.045888
    75  H    0.032602
    76  H    0.054967
    77  H    0.047234
    78  H    0.057257
    79  H    0.066200
    80  H    0.048228
    81  H    0.071763
    82  H    0.057331
    83  H    0.041228
    84  H    0.085271
    85  H    0.053742
    86  H    0.044829
    87  H    0.048075
    88  H    0.042979
    89  H    0.039462
    90  H    0.036656
    91  H    0.031018
    92  H    0.055360
    93  H    0.048219
    94  H    0.036436
    95  H    0.072486
    96  H    0.066141
    97  H    0.044969
    98  H    0.077085
    99  H    0.049229
   100  H    0.074172
   101  H    0.072755
   102  H    0.071928
   103  H    0.049913
   104  H    0.029105
   105  H    0.028637
   106  H    0.057220
   107  H    0.070922
   108  H    0.021773
   109  H    0.053689
   110  H    0.035876
   111  H    0.036676
   112  H    0.024246
   113  H    0.020527
   114  H    0.028298
   115  H    0.027634
   116  H    0.028849
   117  H    0.034860
   118  H    0.021034
   119  H    0.013443
   120  H    0.038827
   121  H    0.036818
   122  H    0.025026
   123  H    0.022210
   124  H    0.031548
   125  H    0.043802
   126  H    0.034598
   127  H    0.021795
   128  H    0.027308
   129  H    0.017424
   130  H    0.022789
   131  H    0.027047
   132  H    0.017469
   133  H    0.027976
   134  H    0.037949
   135  H    0.034701
   136  H    0.024411
   137  H    0.023328
   138  H    0.027125
   139  H    0.022987
   140  H    0.037522
 Sum of Mulliken charges =  -0.00000

 Dipole moment (field-independent basis, Debye):
    X=             -1.2750    Y=              3.1285    Z=              0.4928  Tot=              3.4141
 Quadrupole moment (field-independent basis, Debye-Ang):
   XX=           -392.0505   YY=           -420.6646   ZZ=           -382.8522
   XY=             44.8580   XZ=              1.3329   YZ=             35.4813

 Normal termination of Gaussian 16 at Thu May  5 11:44:29 2022.
