 Gaussian 16, Revision A.03,
 Gaussian 16:  ES64L-G16RevA.03 25-Dec-2016

 --------------------------------
 #p wB97XD/Def2SVP td=(nstates=5)
 --------------------------------

 ----------------------------------------------------
 step_851_chromophore_17 TDDFT with wB97XD functional
 ----------------------------------------------------
 Symbolic Z-matrix:
 Charge =  0 Multiplicity = 1

                         Standard orientation:
 ---------------------------------------------------------------------
 Center     Atomic      Atomic             Coordinates (Angstroms)
 Number     Number       Type             X           Y           Z
 ---------------------------------------------------------------------
      1         12           0        3.916683    1.356505   -0.668270
      2          6           0        3.653243   -2.257963   -0.661510
      3          6           0        1.563480    1.416089   -3.122464
      4          6           0        3.339225    4.675926   -0.090484
      5          6           0        5.886973    1.125610    2.118166
      6          7           0        2.606145   -0.297854   -1.643263
      7          6           0        2.756312   -1.698363   -1.706900
      8          6           0        1.879684   -2.344008   -2.704702
      9          6           0        1.480342   -1.144436   -3.651227
     10          6           0        1.953416    0.124122   -2.799703
     11          6           0        2.104591   -1.206506   -5.049769
     12          6           0        0.663144   -3.056691   -2.112084
     13          6           0        0.262050   -4.514443   -2.356386
     14          6           0       -0.560220   -5.318634   -1.287076
     15          8           0       -0.335783   -6.351941   -0.749431
     16          8           0       -1.672060   -4.581166   -1.029765
     17          7           0        2.679978    2.903513   -1.542473
     18          6           0        1.795194    2.656956   -2.521957
     19          6           0        1.145278    3.920834   -2.986985
     20          6           0        1.598571    4.913185   -2.106149
     21          6           0        2.590325    4.214854   -1.171856
     22          6           0        0.193196    4.029658   -4.100077
     23          6           0        1.135322    6.364713   -2.130537
     24          8           0        0.273222    6.782619   -2.919250
     25          6           0        1.795106    7.351796   -1.298641
     26          7           0        4.562089    2.792217    0.845019
     27          6           0        4.262671    4.095999    0.817190
     28          6           0        4.863346    4.807192    1.942375
     29          6           0        5.739896    3.637893    2.631994
     30          6           0        5.402885    2.436226    1.829312
     31          6           0        5.681149    6.052058    1.499434
     32          6           0        5.471828    3.509452    4.182638
     33          6           0        6.482060    4.169148    5.160471
     34          7           0        4.799235   -0.194281    0.418561
     35          6           0        5.614612   -0.140994    1.584610
     36          6           0        6.017575   -1.534379    1.954620
     37          6           0        5.194014   -2.308606    1.087192
     38          6           0        4.513999   -1.489068    0.197085
     39          6           0        6.941985   -1.992921    3.029371
     40          6           0        4.822887   -3.708495    0.833962
     41          8           0        5.067191   -4.764684    1.385417
     42          6           0        3.867163   -3.693135   -0.354894
     43          6           0        4.478705   -4.524570   -1.492410
     44          8           0        5.355437   -4.086743   -2.264269
     45          8           0        3.752758   -5.668623   -1.737155
     46          6           0        4.020319   -6.378482   -2.990839
     47          6           0       -2.708667   -5.154249   -0.163320
     48          6           0       -3.297086   -4.085537    0.680500
     49          6           0       -4.443850   -4.215285    1.457586
     50          6           0       -5.160492   -5.536013    1.416200
     51          6           0       -5.055496   -2.983317    2.259920
     52          6           0       -4.902859   -3.034059    3.746975
     53          6           0       -4.098509   -1.821095    4.253135
     54          6           0       -5.042404   -0.754662    4.834253
     55          6           0       -4.623170   -0.384253    6.266954
     56          6           0       -5.231996    0.491090    3.929699
     57          6           0       -6.514096    0.501868    3.052369
     58          6           0       -6.336078    1.211413    1.693312
     59          6           0       -7.594538    1.127971    0.792623
     60          6           0       -7.564152   -0.135792   -0.127142
     61          6           0       -7.947588    2.411223   -0.033694
     62          6           0       -9.457840    2.776850   -0.054098
     63          6           0      -10.250007    1.887018   -1.001899
     64          6           0      -11.164128    2.628323   -1.960591
     65          6           0      -12.624675    2.172803   -1.934000
     66          6           0      -10.623264    2.597791   -3.381636
     67          1           0        0.911380    1.527717   -3.990631
     68          1           0        3.076418    5.684652    0.235279
     69          1           0        6.522927    1.021349    2.999826
     70          1           0        2.500861   -3.107812   -3.172198
     71          1           0        0.402265   -1.126250   -3.808422
     72          1           0        2.733902   -2.095955   -5.018475
     73          1           0        2.754678   -0.357284   -5.259921
     74          1           0        1.346743   -1.354483   -5.819126
     75          1           0       -0.158508   -2.505184   -2.571077
     76          1           0        0.528958   -2.828265   -1.054047
     77          1           0        1.167148   -5.060120   -2.623844
     78          1           0       -0.394385   -4.595060   -3.221862
     79          1           0       -0.725368    3.539825   -3.777447
     80          1           0        0.662267    3.517700   -4.939572
     81          1           0        0.046399    5.073284   -4.379024
     82          1           0        1.696656    7.035637   -0.260093
     83          1           0        1.155240    8.234216   -1.256016
     84          1           0        2.792765    7.694029   -1.574621
     85          1           0        4.162218    5.095700    2.724323
     86          1           0        6.774133    3.965240    2.521306
     87          1           0        5.371893    6.519769    0.564119
     88          1           0        6.726635    5.752014    1.441571
     89          1           0        5.483562    6.823217    2.244182
     90          1           0        5.395379    2.444635    4.406793
     91          1           0        4.484593    3.879630    4.460234
     92          1           0        6.649285    3.475784    5.985745
     93          1           0        6.066073    5.123476    5.482647
     94          1           0        7.348164    4.331683    4.518872
     95          1           0        7.346945   -2.998432    2.917758
     96          1           0        6.280794   -1.911033    3.892179
     97          1           0        7.779753   -1.313126    3.184857
     98          1           0        2.983609   -4.297937   -0.153497
     99          1           0        3.500733   -5.694238   -3.660312
    100          1           0        3.626217   -7.392973   -2.924949
    101          1           0        5.075679   -6.469522   -3.248318
    102          1           0       -2.413863   -5.918678    0.554664
    103          1           0       -3.424163   -5.611971   -0.846869
    104          1           0       -2.735976   -3.152995    0.623440
    105          1           0       -5.842666   -5.478526    2.264926
    106          1           0       -4.510889   -6.383146    1.640333
    107          1           0       -5.751297   -5.543783    0.500545
    108          1           0       -6.125184   -3.176407    2.181356
    109          1           0       -4.816232   -2.005382    1.842310
    110          1           0       -4.288412   -3.920488    3.906101
    111          1           0       -5.863698   -3.074422    4.260163
    112          1           0       -3.497722   -1.353846    3.473123
    113          1           0       -3.411008   -2.092678    5.054005
    114          1           0       -6.006689   -1.183007    5.108028
    115          1           0       -3.876258    0.406157    6.195514
    116          1           0       -4.202917   -1.285083    6.714961
    117          1           0       -5.348180   -0.037388    7.002542
    118          1           0       -4.260487    0.711115    3.486823
    119          1           0       -5.355162    1.349042    4.590486
    120          1           0       -7.178291    1.131992    3.644031
    121          1           0       -6.915260   -0.495179    2.872604
    122          1           0       -5.490314    0.753123    1.180847
    123          1           0       -5.978135    2.211449    1.938904
    124          1           0       -8.473375    0.879711    1.388416
    125          1           0       -7.585382    0.088099   -1.194190
    126          1           0       -8.333153   -0.820088    0.231834
    127          1           0       -6.616078   -0.635336    0.070914
    128          1           0       -7.625962    2.280847   -1.067129
    129          1           0       -7.370742    3.236438    0.383713
    130          1           0       -9.585944    3.813354   -0.366524
    131          1           0       -9.846741    2.817838    0.963059
    132          1           0      -10.859815    1.234106   -0.377071
    133          1           0       -9.637549    1.181917   -1.564652
    134          1           0      -11.156705    3.706566   -1.794706
    135          1           0      -12.876487    1.476705   -1.134768
    136          1           0      -12.973709    1.838255   -2.911101
    137          1           0      -13.281151    3.031552   -1.796566
    138          1           0      -11.380297    2.613407   -4.166043
    139          1           0      -10.130149    1.657275   -3.627363
    140          1           0       -9.924992    3.426039   -3.496440
 ---------------------------------------------------------------------

 SCF Done:  E(RwB97XD) =  -3007.83821788     A.U. after   20 cycles

 Excitation energies and oscillator strengths:

 Excited State   1:      Singlet-A      1.7112 eV  724.53 nm  f=0.3250  <S**2>=0.000
     245 -> 248        0.21806
     246 -> 247        0.67261
     245 <- 248        0.11959
 This state for optimization and/or second-order correction.
 Total Energy, E(TD-HF/TD-DFT) =  -3007.77533153
 Copying the excited state density for this state as the 1-particle RhoCI density.

 Excited State   2:      Singlet-A      2.1677 eV  571.97 nm  f=0.0337  <S**2>=0.000
     245 -> 247        0.59399
     246 -> 248       -0.37143

 Excited State   3:      Singlet-A      3.3686 eV  368.05 nm  f=0.7549  <S**2>=0.000
     243 -> 247        0.14407
     245 -> 247        0.35182
     246 -> 248        0.58433
     245 <- 247       -0.11419

 Excited State   4:      Singlet-A      3.6369 eV  340.90 nm  f=0.0435  <S**2>=0.000
     239 -> 247       -0.16031
     239 -> 249        0.15807
     240 -> 247       -0.21933
     240 -> 249        0.20318
     240 -> 250       -0.12708
     241 -> 247        0.19625
     243 -> 247        0.49268

 Excited State   5:      Singlet-A      3.6440 eV  340.24 nm  f=0.0204  <S**2>=0.000
     239 -> 247        0.18185
     239 -> 249       -0.16384
     239 -> 250        0.10830
     240 -> 247        0.30651
     240 -> 248        0.13737
     240 -> 249       -0.28263
     240 -> 250        0.15605
     241 -> 247        0.14373
     243 -> 247        0.37335

 The electronic state is 1-A.
 Alpha  occ. eigenvalues --  -46.97003 -19.30356 -19.29838 -19.24806 -19.24266
 Alpha  occ. eigenvalues --  -19.24058 -19.23385 -14.46932 -14.46694 -14.44881
 Alpha  occ. eigenvalues --  -14.43933 -10.43258 -10.43124 -10.39287 -10.38245
 Alpha  occ. eigenvalues --  -10.35781 -10.35700 -10.35568 -10.35518 -10.35283
 Alpha  occ. eigenvalues --  -10.34831 -10.34758 -10.34250 -10.34160 -10.33031
 Alpha  occ. eigenvalues --  -10.32870 -10.32751 -10.32726 -10.32703 -10.32460
 Alpha  occ. eigenvalues --  -10.31937 -10.31915 -10.31827 -10.31770 -10.31364
 Alpha  occ. eigenvalues --  -10.31345 -10.31336 -10.30976 -10.30957 -10.30650
 Alpha  occ. eigenvalues --  -10.30413 -10.30333 -10.30211 -10.29987 -10.29922
 Alpha  occ. eigenvalues --  -10.29766 -10.29727 -10.29708 -10.29537 -10.29502
 Alpha  occ. eigenvalues --  -10.29336 -10.29070 -10.29046 -10.29042 -10.28878
 Alpha  occ. eigenvalues --  -10.28708 -10.28649 -10.28644 -10.28437 -10.28428
 Alpha  occ. eigenvalues --  -10.28367 -10.27997 -10.27977 -10.27872 -10.27724
 Alpha  occ. eigenvalues --  -10.27696  -3.22692  -1.96264  -1.95801  -1.95643
 Alpha  occ. eigenvalues --   -1.19437  -1.17667  -1.11888  -1.11739  -1.10910
 Alpha  occ. eigenvalues --   -1.08610  -1.07102  -1.05663  -1.04696  -1.03562
 Alpha  occ. eigenvalues --   -0.94165  -0.92284  -0.91858  -0.91322  -0.90989
 Alpha  occ. eigenvalues --   -0.90573  -0.90449  -0.89447  -0.89363  -0.89002
 Alpha  occ. eigenvalues --   -0.88191  -0.87683  -0.86619  -0.85823  -0.85699
 Alpha  occ. eigenvalues --   -0.84910  -0.84673  -0.83594  -0.82994  -0.82308
 Alpha  occ. eigenvalues --   -0.81884  -0.80219  -0.79853  -0.79545  -0.77935
 Alpha  occ. eigenvalues --   -0.77548  -0.77097  -0.76969  -0.76527  -0.76091
 Alpha  occ. eigenvalues --   -0.74961  -0.74251  -0.73799  -0.72247  -0.70945
 Alpha  occ. eigenvalues --   -0.70362  -0.69930  -0.69621  -0.68314  -0.67894
 Alpha  occ. eigenvalues --   -0.67796  -0.66921  -0.66641  -0.66272  -0.65693
 Alpha  occ. eigenvalues --   -0.65441  -0.65213  -0.64445  -0.64016  -0.62149
 Alpha  occ. eigenvalues --   -0.61950  -0.61477  -0.61157  -0.60857  -0.59746
 Alpha  occ. eigenvalues --   -0.59152  -0.58808  -0.58470  -0.57792  -0.57653
 Alpha  occ. eigenvalues --   -0.57490  -0.57189  -0.56228  -0.56197  -0.56039
 Alpha  occ. eigenvalues --   -0.55591  -0.55168  -0.55038  -0.54984  -0.54828
 Alpha  occ. eigenvalues --   -0.54569  -0.54315  -0.53981  -0.53798  -0.53630
 Alpha  occ. eigenvalues --   -0.53325  -0.53251  -0.53174  -0.52957  -0.52864
 Alpha  occ. eigenvalues --   -0.52716  -0.52413  -0.52163  -0.52044  -0.51802
 Alpha  occ. eigenvalues --   -0.51618  -0.51406  -0.51167  -0.50973  -0.50694
 Alpha  occ. eigenvalues --   -0.50576  -0.50428  -0.50043  -0.49849  -0.49707
 Alpha  occ. eigenvalues --   -0.49504  -0.49414  -0.49222  -0.48912  -0.48567
 Alpha  occ. eigenvalues --   -0.48519  -0.48104  -0.47900  -0.47866  -0.47476
 Alpha  occ. eigenvalues --   -0.47365  -0.47289  -0.47262  -0.46681  -0.46646
 Alpha  occ. eigenvalues --   -0.46582  -0.46391  -0.46121  -0.45863  -0.45779
 Alpha  occ. eigenvalues --   -0.45684  -0.45551  -0.45147  -0.45021  -0.44875
 Alpha  occ. eigenvalues --   -0.44470  -0.44305  -0.44148  -0.43982  -0.43793
 Alpha  occ. eigenvalues --   -0.43692  -0.43602  -0.43490  -0.43408  -0.42930
 Alpha  occ. eigenvalues --   -0.42659  -0.42630  -0.42323  -0.42177  -0.42061
 Alpha  occ. eigenvalues --   -0.41823  -0.41427  -0.41383  -0.40461  -0.40188
 Alpha  occ. eigenvalues --   -0.40116  -0.39741  -0.39673  -0.39607  -0.39071
 Alpha  occ. eigenvalues --   -0.38912  -0.38726  -0.38539  -0.38496  -0.38172
 Alpha  occ. eigenvalues --   -0.38072  -0.37612  -0.37217  -0.36823  -0.36433
 Alpha  occ. eigenvalues --   -0.35925  -0.35775  -0.35279  -0.33330  -0.33248
 Alpha  occ. eigenvalues --   -0.32538  -0.32288  -0.31564  -0.30769  -0.25654
 Alpha  occ. eigenvalues --   -0.22677
 Alpha virt. eigenvalues --   -0.06229  -0.00907   0.02285   0.04170   0.04763
 Alpha virt. eigenvalues --    0.06611   0.07210   0.07808   0.08669   0.09191
 Alpha virt. eigenvalues --    0.10312   0.10744   0.11555   0.12271   0.12353

 Mulliken charges:
               1
     1  Mg   0.946694
     2  C   -0.037708
     3  C   -0.095326
     4  C   -0.076953
     5  C   -0.078144
     6  N   -0.363394
     7  C    0.017224
     8  C   -0.040487
     9  C   -0.136736
    10  C    0.102245
    11  C    0.038795
    12  C    0.043166
    13  C    0.001318
    14  C    0.188480
    15  O   -0.210452
    16  O   -0.372642
    17  N   -0.409726
    18  C    0.135996
    19  C   -0.180079
    20  C   -0.062520
    21  C    0.155238
    22  C    0.087526
    23  C    0.051090
    24  O   -0.246900
    25  C   -0.010899
    26  N   -0.331125
    27  C    0.036595
    28  C   -0.090555
    29  C   -0.066112
    30  C    0.083704
    31  C    0.021399
    32  C   -0.059918
    33  C   -0.029707
    34  N   -0.461704
    35  C    0.087435
    36  C   -0.147658
    37  C   -0.096645
    38  C    0.200750
    39  C    0.073400
    40  C    0.132544
    41  O   -0.199342
    42  C   -0.083750
    43  C    0.262199
    44  O   -0.279286
    45  O   -0.364332
    46  C    0.140298
    47  C    0.261206
    48  C   -0.158373
    49  C   -0.249533
    50  C    0.040868
    51  C    0.042275
    52  C   -0.009626
    53  C    0.029264
    54  C   -0.199474
    55  C   -0.026434
    56  C    0.027426
    57  C   -0.038903
    58  C    0.008286
    59  C   -0.179263
    60  C    0.000859
    61  C    0.017689
    62  C   -0.026377
    63  C    0.039845
    64  C   -0.216806
    65  C    0.009025
    66  C   -0.014738
    67  H   -0.009652
    68  H   -0.027177
    69  H   -0.005088
    70  H    0.035373
    71  H    0.042713
    72  H    0.029975
    73  H    0.044889
    74  H    0.041557
    75  H    0.022815
    76  H    0.047837
    77  H    0.032940
    78  H    0.050984
    79  H    0.062277
    80  H    0.042916
    81  H    0.069030
    82  H    0.052843
    83  H    0.039947
    84  H    0.083097
    85  H    0.043048
    86  H    0.029502
    87  H    0.041026
    88  H    0.037686
    89  H    0.034327
    90  H    0.026565
    91  H    0.022713
    92  H    0.050520
    93  H    0.041895
    94  H    0.028375
    95  H    0.069599
    96  H    0.059934
    97  H    0.039417
    98  H    0.069532
    99  H    0.043456
   100  H    0.071583
   101  H    0.069249
   102  H    0.066175
   103  H    0.044876
   104  H    0.026661
   105  H    0.021833
   106  H    0.052314
   107  H    0.065763
   108  H    0.011532
   109  H    0.039601
   110  H    0.026739
   111  H    0.029099
   112  H    0.014427
   113  H    0.012884
   114  H    0.014150
   115  H    0.020148
   116  H    0.021582
   117  H    0.030133
   118  H    0.012483
   119  H    0.004927
   120  H    0.030638
   121  H    0.023068
   122  H    0.013609
   123  H    0.014030
   124  H    0.016882
   125  H    0.038288
   126  H    0.029768
   127  H    0.013089
   128  H    0.015436
   129  H    0.009576
   130  H    0.013665
   131  H    0.019849
   132  H    0.008496
   133  H    0.011737
   134  H    0.026185
   135  H    0.029009
   136  H    0.017905
   137  H    0.017512
   138  H    0.020986
   139  H    0.016300
   140  H    0.031734
 Sum of Mulliken charges =  -0.00000

 Dipole moment (field-independent basis, Debye):
    X=             -1.4516    Y=              3.4768    Z=              0.2433  Tot=              3.7755
 Quadrupole moment (field-independent basis, Debye-Ang):
   XX=           -392.9733   YY=           -419.0154   ZZ=           -382.3571
   XY=             45.2738   XZ=              0.5897   YZ=             34.6639

 Normal termination of Gaussian 16 at Thu May  5 12:26:26 2022.
