 Gaussian 16, Revision A.03,
 Gaussian 16:  ES64L-G16RevA.03 25-Dec-2016

 --------------------
 #p ZINDO=(nstates=5)
 --------------------

 -----------------------------
 step_851_chromophore_17 ZINDO
 -----------------------------
 Symbolic Z-matrix:
 Charge =  0 Multiplicity = 1

                         Standard orientation:
 ---------------------------------------------------------------------
 Center     Atomic      Atomic             Coordinates (Angstroms)
 Number     Number       Type             X           Y           Z
 ---------------------------------------------------------------------
      1         12           0        3.916683    1.356505   -0.668270
      2          6           0        3.653243   -2.257963   -0.661510
      3          6           0        1.563480    1.416089   -3.122464
      4          6           0        3.339225    4.675926   -0.090484
      5          6           0        5.886973    1.125610    2.118166
      6          7           0        2.606145   -0.297854   -1.643263
      7          6           0        2.756312   -1.698363   -1.706900
      8          6           0        1.879684   -2.344008   -2.704702
      9          6           0        1.480342   -1.144436   -3.651227
     10          6           0        1.953416    0.124122   -2.799703
     11          6           0        2.104591   -1.206506   -5.049769
     12          6           0        0.663144   -3.056691   -2.112084
     13          6           0        0.262050   -4.514443   -2.356386
     14          6           0       -0.560220   -5.318634   -1.287076
     15          8           0       -0.335783   -6.351941   -0.749431
     16          8           0       -1.672060   -4.581166   -1.029765
     17          7           0        2.679978    2.903513   -1.542473
     18          6           0        1.795194    2.656956   -2.521957
     19          6           0        1.145278    3.920834   -2.986985
     20          6           0        1.598571    4.913185   -2.106149
     21          6           0        2.590325    4.214854   -1.171856
     22          6           0        0.193196    4.029658   -4.100077
     23          6           0        1.135322    6.364713   -2.130537
     24          8           0        0.273222    6.782619   -2.919250
     25          6           0        1.795106    7.351796   -1.298641
     26          7           0        4.562089    2.792217    0.845019
     27          6           0        4.262671    4.095999    0.817190
     28          6           0        4.863346    4.807192    1.942375
     29          6           0        5.739896    3.637893    2.631994
     30          6           0        5.402885    2.436226    1.829312
     31          6           0        5.681149    6.052058    1.499434
     32          6           0        5.471828    3.509452    4.182638
     33          6           0        6.482060    4.169148    5.160471
     34          7           0        4.799235   -0.194281    0.418561
     35          6           0        5.614612   -0.140994    1.584610
     36          6           0        6.017575   -1.534379    1.954620
     37          6           0        5.194014   -2.308606    1.087192
     38          6           0        4.513999   -1.489068    0.197085
     39          6           0        6.941985   -1.992921    3.029371
     40          6           0        4.822887   -3.708495    0.833962
     41          8           0        5.067191   -4.764684    1.385417
     42          6           0        3.867163   -3.693135   -0.354894
     43          6           0        4.478705   -4.524570   -1.492410
     44          8           0        5.355437   -4.086743   -2.264269
     45          8           0        3.752758   -5.668623   -1.737155
     46          6           0        4.020319   -6.378482   -2.990839
     47          6           0       -2.708667   -5.154249   -0.163320
     48          6           0       -3.297086   -4.085537    0.680500
     49          6           0       -4.443850   -4.215285    1.457586
     50          6           0       -5.160492   -5.536013    1.416200
     51          6           0       -5.055496   -2.983317    2.259920
     52          6           0       -4.902859   -3.034059    3.746975
     53          6           0       -4.098509   -1.821095    4.253135
     54          6           0       -5.042404   -0.754662    4.834253
     55          6           0       -4.623170   -0.384253    6.266954
     56          6           0       -5.231996    0.491090    3.929699
     57          6           0       -6.514096    0.501868    3.052369
     58          6           0       -6.336078    1.211413    1.693312
     59          6           0       -7.594538    1.127971    0.792623
     60          6           0       -7.564152   -0.135792   -0.127142
     61          6           0       -7.947588    2.411223   -0.033694
     62          6           0       -9.457840    2.776850   -0.054098
     63          6           0      -10.250007    1.887018   -1.001899
     64          6           0      -11.164128    2.628323   -1.960591
     65          6           0      -12.624675    2.172803   -1.934000
     66          6           0      -10.623264    2.597791   -3.381636
     67          1           0        0.911380    1.527717   -3.990631
     68          1           0        3.076418    5.684652    0.235279
     69          1           0        6.522927    1.021349    2.999826
     70          1           0        2.500861   -3.107812   -3.172198
     71          1           0        0.402265   -1.126250   -3.808422
     72          1           0        2.733902   -2.095955   -5.018475
     73          1           0        2.754678   -0.357284   -5.259921
     74          1           0        1.346743   -1.354483   -5.819126
     75          1           0       -0.158508   -2.505184   -2.571077
     76          1           0        0.528958   -2.828265   -1.054047
     77          1           0        1.167148   -5.060120   -2.623844
     78          1           0       -0.394385   -4.595060   -3.221862
     79          1           0       -0.725368    3.539825   -3.777447
     80          1           0        0.662267    3.517700   -4.939572
     81          1           0        0.046399    5.073284   -4.379024
     82          1           0        1.696656    7.035637   -0.260093
     83          1           0        1.155240    8.234216   -1.256016
     84          1           0        2.792765    7.694029   -1.574621
     85          1           0        4.162218    5.095700    2.724323
     86          1           0        6.774133    3.965240    2.521306
     87          1           0        5.371893    6.519769    0.564119
     88          1           0        6.726635    5.752014    1.441571
     89          1           0        5.483562    6.823217    2.244182
     90          1           0        5.395379    2.444635    4.406793
     91          1           0        4.484593    3.879630    4.460234
     92          1           0        6.649285    3.475784    5.985745
     93          1           0        6.066073    5.123476    5.482647
     94          1           0        7.348164    4.331683    4.518872
     95          1           0        7.346945   -2.998432    2.917758
     96          1           0        6.280794   -1.911033    3.892179
     97          1           0        7.779753   -1.313126    3.184857
     98          1           0        2.983609   -4.297937   -0.153497
     99          1           0        3.500733   -5.694238   -3.660312
    100          1           0        3.626217   -7.392973   -2.924949
    101          1           0        5.075679   -6.469522   -3.248318
    102          1           0       -2.413863   -5.918678    0.554664
    103          1           0       -3.424163   -5.611971   -0.846869
    104          1           0       -2.735976   -3.152995    0.623440
    105          1           0       -5.842666   -5.478526    2.264926
    106          1           0       -4.510889   -6.383146    1.640333
    107          1           0       -5.751297   -5.543783    0.500545
    108          1           0       -6.125184   -3.176407    2.181356
    109          1           0       -4.816232   -2.005382    1.842310
    110          1           0       -4.288412   -3.920488    3.906101
    111          1           0       -5.863698   -3.074422    4.260163
    112          1           0       -3.497722   -1.353846    3.473123
    113          1           0       -3.411008   -2.092678    5.054005
    114          1           0       -6.006689   -1.183007    5.108028
    115          1           0       -3.876258    0.406157    6.195514
    116          1           0       -4.202917   -1.285083    6.714961
    117          1           0       -5.348180   -0.037388    7.002542
    118          1           0       -4.260487    0.711115    3.486823
    119          1           0       -5.355162    1.349042    4.590486
    120          1           0       -7.178291    1.131992    3.644031
    121          1           0       -6.915260   -0.495179    2.872604
    122          1           0       -5.490314    0.753123    1.180847
    123          1           0       -5.978135    2.211449    1.938904
    124          1           0       -8.473375    0.879711    1.388416
    125          1           0       -7.585382    0.088099   -1.194190
    126          1           0       -8.333153   -0.820088    0.231834
    127          1           0       -6.616078   -0.635336    0.070914
    128          1           0       -7.625962    2.280847   -1.067129
    129          1           0       -7.370742    3.236438    0.383713
    130          1           0       -9.585944    3.813354   -0.366524
    131          1           0       -9.846741    2.817838    0.963059
    132          1           0      -10.859815    1.234106   -0.377071
    133          1           0       -9.637549    1.181917   -1.564652
    134          1           0      -11.156705    3.706566   -1.794706
    135          1           0      -12.876487    1.476705   -1.134768
    136          1           0      -12.973709    1.838255   -2.911101
    137          1           0      -13.281151    3.031552   -1.796566
    138          1           0      -11.380297    2.613407   -4.166043
    139          1           0      -10.130149    1.657275   -3.627363
    140          1           0       -9.924992    3.426039   -3.496440
 ---------------------------------------------------------------------

 SCF Done:  E(RZINDO/S) =  -474.289588427     A.U. after   19 cycles

 Excitation energies and oscillator strengths:

 Excited State   1:      Singlet-A      1.2894 eV  961.54 nm  f=0.5276  <S**2>=0.000
     175 ->178         0.20235
     176 ->177         0.65821
 This state for optimization and/or second-order correction.
 Total Energy, E(CIS/TDA) =  -474.242202700
 Copying the excited state density for this state as the 1-particle RhoCI density.

 Excited State   2:      Singlet-A      1.8581 eV  667.28 nm  f=0.0019  <S**2>=0.000
     175 ->177        -0.48070
     176 ->178         0.49360

 Excited State   3:      Singlet-A      2.8919 eV  428.73 nm  f=0.3870  <S**2>=0.000
     175 ->177         0.25537
     176 ->178         0.26549
     176 ->179        -0.17493
     176 ->180         0.54133

 Excited State   4:      Singlet-A      2.9070 eV  426.50 nm  f=0.0076  <S**2>=0.000
     168 ->177        -0.27236
     168 ->178         0.17028
     168 ->179        -0.41074
     168 ->181        -0.31717
     168 ->185         0.19332
     168 ->187        -0.10743
     176 ->180         0.15507

 Excited State   5:      Singlet-A      2.9560 eV  419.43 nm  f=0.6548  <S**2>=0.000
     175 ->177        -0.31456
     176 ->178        -0.33527
     176 ->179         0.28650
     176 ->180         0.41379

 The electronic state is 1-A.
 Alpha  occ. eigenvalues --   -1.82876  -1.80764  -1.78723  -1.73924  -1.70986
 Alpha  occ. eigenvalues --   -1.70436  -1.65431  -1.62454  -1.60125  -1.59037
 Alpha  occ. eigenvalues --   -1.55033  -1.51416  -1.47770  -1.47161  -1.46702
 Alpha  occ. eigenvalues --   -1.45679  -1.42527  -1.40425  -1.40071  -1.39037
 Alpha  occ. eigenvalues --   -1.36180  -1.34805  -1.33274  -1.32071  -1.28595
 Alpha  occ. eigenvalues --   -1.28100  -1.27180  -1.23991  -1.21158  -1.17717
 Alpha  occ. eigenvalues --   -1.15842  -1.15412  -1.15329  -1.14285  -1.12350
 Alpha  occ. eigenvalues --   -1.11708  -1.10795  -1.09832  -1.05525  -1.03326
 Alpha  occ. eigenvalues --   -1.02332  -1.01413  -0.98391  -0.97561  -0.97088
 Alpha  occ. eigenvalues --   -0.95018  -0.94596  -0.94439  -0.93131  -0.92365
 Alpha  occ. eigenvalues --   -0.91671  -0.90955  -0.89136  -0.88738  -0.88331
 Alpha  occ. eigenvalues --   -0.86512  -0.85287  -0.83571  -0.82535  -0.80552
 Alpha  occ. eigenvalues --   -0.79880  -0.78960  -0.76718  -0.76419  -0.76047
 Alpha  occ. eigenvalues --   -0.75437  -0.74873  -0.74149  -0.73464  -0.73148
 Alpha  occ. eigenvalues --   -0.72968  -0.72502  -0.71550  -0.71140  -0.70892
 Alpha  occ. eigenvalues --   -0.70753  -0.69925  -0.68686  -0.68625  -0.68057
 Alpha  occ. eigenvalues --   -0.67822  -0.66990  -0.66810  -0.66447  -0.66262
 Alpha  occ. eigenvalues --   -0.65490  -0.64865  -0.64614  -0.64421  -0.63957
 Alpha  occ. eigenvalues --   -0.63765  -0.63245  -0.63073  -0.62660  -0.62251
 Alpha  occ. eigenvalues --   -0.61986  -0.61383  -0.60494  -0.60156  -0.59977
 Alpha  occ. eigenvalues --   -0.59660  -0.59524  -0.58935  -0.58655  -0.58268
 Alpha  occ. eigenvalues --   -0.58256  -0.57988  -0.57783  -0.56776  -0.56534
 Alpha  occ. eigenvalues --   -0.56181  -0.56062  -0.55692  -0.55111  -0.54896
 Alpha  occ. eigenvalues --   -0.54402  -0.54256  -0.52885  -0.52734  -0.52363
 Alpha  occ. eigenvalues --   -0.52322  -0.51993  -0.51667  -0.51138  -0.51010
 Alpha  occ. eigenvalues --   -0.50859  -0.50556  -0.50428  -0.50315  -0.50038
 Alpha  occ. eigenvalues --   -0.49784  -0.49411  -0.49309  -0.49106  -0.48832
 Alpha  occ. eigenvalues --   -0.48285  -0.48068  -0.47953  -0.47868  -0.47485
 Alpha  occ. eigenvalues --   -0.47269  -0.47066  -0.46587  -0.46225  -0.46215
 Alpha  occ. eigenvalues --   -0.45875  -0.45841  -0.45770  -0.45332  -0.45100
 Alpha  occ. eigenvalues --   -0.45034  -0.44680  -0.44647  -0.44350  -0.44243
 Alpha  occ. eigenvalues --   -0.43765  -0.43395  -0.43039  -0.42825  -0.42624
 Alpha  occ. eigenvalues --   -0.42469  -0.42016  -0.40961  -0.38878  -0.38784
 Alpha  occ. eigenvalues --   -0.38102  -0.37557  -0.35740  -0.35044  -0.34241
 Alpha  occ. eigenvalues --   -0.33882  -0.32329  -0.31879  -0.31055  -0.26467
 Alpha  occ. eigenvalues --   -0.21440
 Alpha virt. eigenvalues --   -0.07800  -0.02922  -0.00604   0.00826   0.01058
 Alpha virt. eigenvalues --    0.02261   0.02368   0.02851   0.04403   0.04505
 Alpha virt. eigenvalues --    0.05773   0.06648   0.07019   0.07400   0.07913

 Mulliken charges:
               1
     1  Mg   0.441925
     2  C   -0.058517
     3  C   -0.087447
     4  C   -0.082348
     5  C   -0.047896
     6  N   -0.314599
     7  C    0.116483
     8  C    0.029478
     9  C    0.002671
    10  C    0.141804
    11  C   -0.051914
    12  C   -0.021562
    13  C    0.007118
    14  C    0.471213
    15  O   -0.493780
    16  O   -0.282177
    17  N   -0.311660
    18  C    0.137288
    19  C    0.050906
    20  C   -0.056433
    21  C    0.117039
    22  C   -0.032865
    23  C    0.340653
    24  O   -0.528638
    25  C   -0.029461
    26  N   -0.249861
    27  C    0.145904
    28  C   -0.000914
    29  C   -0.001154
    30  C    0.096591
    31  C   -0.053091
    32  C   -0.041352
    33  C   -0.061642
    34  N   -0.329403
    35  C    0.057952
    36  C    0.039759
    37  C   -0.060795
    38  C    0.134260
    39  C   -0.029597
    40  C    0.334468
    41  O   -0.526028
    42  C    0.062440
    43  C    0.479132
    44  O   -0.535780
    45  O   -0.266095
    46  C    0.075446
    47  C    0.109108
    48  C   -0.092693
    49  C   -0.032910
    50  C   -0.041757
    51  C   -0.020678
    52  C   -0.026248
    53  C   -0.031647
    54  C   -0.015364
    55  C   -0.062210
    56  C   -0.038184
    57  C   -0.033240
    58  C   -0.029982
    59  C   -0.015991
    60  C   -0.064047
    61  C   -0.032760
    62  C   -0.031274
    63  C   -0.024239
    64  C   -0.004139
    65  C   -0.059300
    66  C   -0.057039
    67  H    0.019138
    68  H    0.013297
    69  H    0.017253
    70  H    0.037275
    71  H    0.032335
    72  H    0.020977
    73  H    0.029155
    74  H    0.022687
    75  H    0.012801
    76  H    0.029842
    77  H    0.031364
    78  H    0.035629
    79  H    0.041506
    80  H    0.027328
    81  H    0.048643
    82  H    0.031494
    83  H    0.026819
    84  H    0.052147
    85  H    0.037550
    86  H    0.032019
    87  H    0.023385
    88  H    0.028739
    89  H    0.016388
    90  H    0.017383
    91  H    0.015644
    92  H    0.029540
    93  H    0.022879
    94  H    0.023409
    95  H    0.042528
    96  H    0.036725
    97  H    0.023591
    98  H    0.056357
    99  H    0.038097
   100  H    0.040323
   101  H    0.051357
   102  H    0.061796
   103  H    0.040357
   104  H    0.031986
   105  H    0.011124
   106  H    0.037881
   107  H    0.039664
   108  H    0.012340
   109  H    0.034285
   110  H    0.019308
   111  H    0.029165
   112  H    0.022230
   113  H    0.017197
   114  H    0.016470
   115  H    0.011878
   116  H    0.011864
   117  H    0.017905
   118  H    0.024254
   119  H    0.006626
   120  H    0.020691
   121  H    0.025604
   122  H    0.015512
   123  H    0.017042
   124  H    0.017471
   125  H    0.027570
   126  H    0.020363
   127  H    0.011145
   128  H    0.019547
   129  H    0.011379
   130  H    0.012403
   131  H    0.019618
   132  H    0.009713
   133  H    0.023876
   134  H    0.019818
   135  H    0.022163
   136  H    0.019561
   137  H    0.008697
   138  H    0.015054
   139  H    0.011626
   140  H    0.016290
 Sum of Mulliken charges =  -0.00000

 Dipole moment (field-independent basis, Debye):
    X=             -2.4212    Y=              5.3070    Z=             -0.4700  Tot=              5.8521
 N-N= 4.478694822516D+03 E-N= 0.000000000000D+00  KE=-9.631635877460D+03
 Leave Link  601 at Thu May  5 12:38:38 2022, MaxMem=  6710886400 cpu:               1.0 elap:               0.1
 (Enter /sw/apps/gaussian-16.0/g16/l9999.exe)
 1\1\GINC-BP1-COMPUTE067\SP\RZINDO CIS\STO-3G\C55H74Mg1N4O6\OF15641\05-
 May-2022\0\\#p ZINDO=(nstates=5)\\step_851_chromophore_17 ZINDO\\0,1\M
 g,0,29.022,58.687,41.776\C,0,26.024,57.072,40.536\C,0,30.818,56.104,40
 .485\C,0,31.895,60.528,41.982\C,0,27.115,61.415,42.564\N,0,28.443,56.8
 6,40.46\C,0,27.206,56.224,40.229\C,0,27.331,54.898,39.591\C,0,28.835,5
 4.51,39.877\C,0,29.45,55.901,40.372\C,0,29.014,53.371,40.887\C,0,26.99
 1,54.878,38.1\C,0,25.98,53.953,37.416\C,0,25.247,54.388,36.097\O,0,24.

 Normal termination of Gaussian 16 at Thu May  5 12:38:38 2022.
