 Gaussian 16, Revision A.03,
 Gaussian 16:  ES64L-G16RevA.03 25-Dec-2016

 ------------------------------
 #p blyp/Def2SVP td=(nstates=5)
 ------------------------------

 --------------------------------------------------
 step_1501_chromophore_6 TDDFT with blyp functional
 --------------------------------------------------
 Symbolic Z-matrix:
 Charge =  0 Multiplicity = 1

                         Standard orientation:
 ---------------------------------------------------------------------
 Center     Atomic      Atomic             Coordinates (Angstroms)
 Number     Number       Type             X           Y           Z
 ---------------------------------------------------------------------
      1         12           0       -5.477073    1.076499   -0.261456
      2          6           0       -4.691344   -2.292803   -0.375318
      3          6           0       -2.243745    1.858603   -0.151028
      4          6           0       -6.368269    4.370468    0.071831
      5          6           0       -8.829982    0.116398    0.394758
      6          7           0       -3.700399   -0.100680   -0.167850
      7          6           0       -3.597742   -1.413660   -0.378842
      8          6           0       -2.104316   -1.868267   -0.392464
      9          6           0       -1.331448   -0.553157   -0.094656
     10          6           0       -2.475942    0.501623   -0.053400
     11          6           0       -0.469466   -0.531760    1.166794
     12          6           0       -1.694846   -2.561375   -1.761791
     13          6           0       -0.793219   -3.748444   -1.633684
     14          6           0        0.057950   -3.946221   -0.323655
     15          8           0       -0.175314   -4.619145    0.626456
     16          8           0        1.280853   -3.276736   -0.362614
     17          7           0       -4.492343    2.854602   -0.268270
     18          6           0       -3.178225    2.967586   -0.280901
     19          6           0       -2.810514    4.360373   -0.349208
     20          6           0       -4.002409    5.063194   -0.290654
     21          6           0       -5.047137    4.099453   -0.262062
     22          6           0       -1.375204    4.769976   -0.555303
     23          6           0       -4.185085    6.583247   -0.294084
     24          8           0       -5.293546    7.144245   -0.162246
     25          6           0       -3.025484    7.454674   -0.405092
     26          7           0       -7.311983    2.091605    0.233262
     27          6           0       -7.378091    3.418641    0.377228
     28          6           0       -8.734494    3.847986    1.008605
     29          6           0       -9.547868    2.547629    0.728221
     30          6           0       -8.475928    1.486018    0.490508
     31          6           0       -8.610416    4.230536    2.506638
     32          6           0      -10.629086    2.628822   -0.450694
     33          6           0      -10.328484    1.867629   -1.745664
     34          7           0       -6.617127   -0.723800   -0.194502
     35          6           0       -7.989364   -0.961665    0.173159
     36          6           0       -8.204445   -2.342210    0.166505
     37          6           0       -6.966852   -2.890487   -0.099974
     38          6           0       -6.045585   -1.890160   -0.241092
     39          6           0       -9.458979   -3.040924    0.415859
     40          6           0       -6.296084   -4.152300   -0.350677
     41          8           0       -6.865338   -5.282757   -0.375795
     42          6           0       -4.775418   -3.732857   -0.467627
     43          6           0       -4.090516   -4.560571    0.541248
     44          8           0       -3.883634   -4.225093    1.685553
     45          8           0       -3.892974   -5.719329   -0.088746
     46          6           0       -3.016658   -6.651776    0.602732
     47          6           0        2.156576   -3.447117    0.855728
     48          6           0        3.187815   -2.322996    0.753304
     49          6           0        4.393893   -2.201706    1.325559
     50          6           0        4.999880   -3.129267    2.421240
     51          6           0        5.294501   -0.984284    0.918628
     52          6           0        5.728944   -1.109171   -0.535030
     53          6           0        7.155709   -1.608327   -0.656946
     54          6           0        8.123159   -0.565959   -1.297568
     55          6           0        8.320140   -0.665349   -2.826744
     56          6           0        9.415241   -0.660253   -0.518810
     57          6           0       10.510216    0.490952   -0.725906
     58          6           0       11.712768   -0.159736   -1.420383
     59          6           0       13.055646    0.603670   -0.965371
     60          6           0       13.986197    0.784327   -2.073551
     61          6           0       13.655258   -0.115773    0.270885
     62          6           0       14.126857    0.904128    1.404306
     63          6           0       15.635451    1.110120    1.392843
     64          6           0       16.072131    2.639286    1.367962
     65          6           0       17.523067    2.744848    1.901492
     66          6           0       15.988460    3.302267   -0.019879
     67          1           0       -1.177908    2.092112   -0.201247
     68          1           0       -6.690091    5.370984    0.370933
     69          1           0       -9.864502   -0.230837    0.396043
     70          1           0       -1.936441   -2.629803    0.368765
     71          1           0       -0.674600   -0.279104   -0.920156
     72          1           0       -0.631272    0.241939    1.917901
     73          1           0        0.572144   -0.446853    0.857107
     74          1           0       -0.554922   -1.444936    1.755889
     75          1           0       -1.264913   -1.867595   -2.485347
     76          1           0       -2.613999   -2.851163   -2.271258
     77          1           0       -0.053213   -3.594413   -2.418374
     78          1           0       -1.403888   -4.643222   -1.750945
     79          1           0       -1.085000    5.513866    0.186445
     80          1           0       -1.383477    5.279260   -1.518128
     81          1           0       -0.575496    4.036160   -0.454694
     82          1           0       -2.517585    7.055437   -1.283582
     83          1           0       -2.397553    7.394705    0.484400
     84          1           0       -3.428435    8.463182   -0.502741
     85          1           0       -9.176569    4.643642    0.408292
     86          1           0      -10.051257    2.192456    1.627687
     87          1           0       -7.697519    3.968302    3.041619
     88          1           0       -9.323895    3.704167    3.140193
     89          1           0       -8.742328    5.311114    2.553757
     90          1           0      -10.690187    3.677652   -0.741801
     91          1           0      -11.561192    2.265246   -0.018259
     92          1           0      -10.366760    0.785461   -1.625501
     93          1           0       -9.317666    2.142207   -2.044705
     94          1           0      -11.000198    2.056179   -2.583071
     95          1           0       -9.396076   -3.747677    1.243307
     96          1           0       -9.660531   -3.641051   -0.471086
     97          1           0      -10.260362   -2.318474    0.572642
     98          1           0       -4.378627   -3.961711   -1.457238
     99          1           0       -2.216229   -6.221417    1.203857
    100          1           0       -2.348665   -7.294774    0.028241
    101          1           0       -3.684772   -7.343467    1.114535
    102          1           0        2.632527   -4.425664    0.783553
    103          1           0        1.538759   -3.418672    1.752923
    104          1           0        2.928592   -1.508865    0.077123
    105          1           0        5.326315   -2.586356    3.308741
    106          1           0        5.931385   -3.514172    2.006999
    107          1           0        4.362369   -3.963590    2.713513
    108          1           0        6.227390   -0.996937    1.482057
    109          1           0        4.816557   -0.036080    1.163430
    110          1           0        5.731472   -0.085789   -0.909538
    111          1           0        5.039355   -1.748320   -1.086228
    112          1           0        7.182360   -2.443141   -1.357891
    113          1           0        7.520422   -2.085111    0.253684
    114          1           0        7.770682    0.463467   -1.250024
    115          1           0        8.454313    0.298270   -3.318093
    116          1           0        7.482649   -1.217137   -3.253675
    117          1           0        9.285377   -1.151497   -2.969469
    118          1           0        9.888857   -1.640195   -0.468913
    119          1           0        9.133138   -0.421883    0.506452
    120          1           0       10.707380    0.996397    0.219699
    121          1           0       10.159103    1.236738   -1.439612
    122          1           0       11.557165   -0.263423   -2.493607
    123          1           0       11.856159   -1.170433   -1.037123
    124          1           0       12.744908    1.607404   -0.677260
    125          1           0       13.689594    1.712828   -2.562144
    126          1           0       13.980144   -0.060074   -2.762518
    127          1           0       15.024063    0.904721   -1.764917
    128          1           0       14.415915   -0.827382   -0.049268
    129          1           0       12.855811   -0.726820    0.691863
    130          1           0       14.067719    0.329902    2.328539
    131          1           0       13.568199    1.829025    1.550422
    132          1           0       16.189727    0.735864    0.533408
    133          1           0       15.930517    0.652942    2.336967
    134          1           0       15.388304    3.252203    1.955619
    135          1           0       17.473186    3.162999    2.906502
    136          1           0       18.112052    3.438728    1.301793
    137          1           0       17.978841    1.760308    2.011026
    138          1           0       16.631968    4.175015   -0.130624
    139          1           0       14.962000    3.601390   -0.236406
    140          1           0       16.262869    2.652923   -0.850216
 ---------------------------------------------------------------------

 SCF Done:  E(RB-LYP) =  -3007.35539904     A.U. after   22 cycles

 Excitation energies and oscillator strengths:

 Excited State   1:      Singlet-A      1.8431 eV  672.68 nm  f=0.2273  <S**2>=0.000
     244 -> 247       -0.25769
     245 -> 247        0.17992
     245 -> 248       -0.17071
     246 -> 247        0.61032
     246 <- 247       -0.12462
 This state for optimization and/or second-order correction.
 Total Energy, E(TD-HF/TD-DFT) =  -3007.28766487
 Copying the excited state density for this state as the 1-particle RhoCI density.

 Excited State   2:      Singlet-A      1.8614 eV  666.10 nm  f=0.0469  <S**2>=0.000
     244 -> 247        0.65493
     246 -> 247        0.25610

 Excited State   3:      Singlet-A      1.9430 eV  638.12 nm  f=0.0767  <S**2>=0.000
     243 -> 247       -0.41151
     245 -> 247        0.51543
     246 -> 247       -0.15229
     246 -> 248        0.14903

 Excited State   4:      Singlet-A      1.9806 eV  626.00 nm  f=0.0365  <S**2>=0.000
     243 -> 247        0.57390
     245 -> 247        0.37076
     246 -> 248        0.12082

 Excited State   5:      Singlet-A      2.4673 eV  502.51 nm  f=0.0118  <S**2>=0.000
     242 -> 247        0.67162
     246 -> 248       -0.15164

 The electronic state is 1-A.
 Alpha  occ. eigenvalues --  -46.26284 -18.81997 -18.81781 -18.77991 -18.76011
 Alpha  occ. eigenvalues --  -18.75343 -18.75302 -14.03018 -14.02882 -14.00969
 Alpha  occ. eigenvalues --  -13.99427 -10.04796 -10.02936  -9.99665  -9.99188
 Alpha  occ. eigenvalues --   -9.98696  -9.96533  -9.96419  -9.96249  -9.96028
 Alpha  occ. eigenvalues --   -9.95847  -9.95498  -9.95113  -9.94499  -9.94356
 Alpha  occ. eigenvalues --   -9.94071  -9.93967  -9.93800  -9.93617  -9.93550
 Alpha  occ. eigenvalues --   -9.93427  -9.93379  -9.92997  -9.92953  -9.92942
 Alpha  occ. eigenvalues --   -9.92780  -9.92767  -9.92717  -9.92673  -9.92419
 Alpha  occ. eigenvalues --   -9.92362  -9.92268  -9.92225  -9.92080  -9.92053
 Alpha  occ. eigenvalues --   -9.91989  -9.91969  -9.91957  -9.91947  -9.91837
 Alpha  occ. eigenvalues --   -9.91734  -9.91421  -9.91377  -9.91336  -9.91293
 Alpha  occ. eigenvalues --   -9.91289  -9.91283  -9.91118  -9.91062  -9.91058
 Alpha  occ. eigenvalues --   -9.90961  -9.90935  -9.90659  -9.90524  -9.90082
 Alpha  occ. eigenvalues --   -9.89475  -2.91019  -1.71461  -1.70874  -1.70746
 Alpha  occ. eigenvalues --   -0.98772  -0.98438  -0.90347  -0.90313  -0.90164
 Alpha  occ. eigenvalues --   -0.88617  -0.87440  -0.86544  -0.86366  -0.85445
 Alpha  occ. eigenvalues --   -0.75848  -0.73945  -0.73311  -0.72829  -0.71974
 Alpha  occ. eigenvalues --   -0.71918  -0.71237  -0.71168  -0.70840  -0.70700
 Alpha  occ. eigenvalues --   -0.70640  -0.69339  -0.68324  -0.67511  -0.67116
 Alpha  occ. eigenvalues --   -0.66447  -0.66392  -0.65593  -0.65316  -0.64836
 Alpha  occ. eigenvalues --   -0.64438  -0.63053  -0.62333  -0.61569  -0.60839
 Alpha  occ. eigenvalues --   -0.60319  -0.59925  -0.59854  -0.59808  -0.59108
 Alpha  occ. eigenvalues --   -0.58200  -0.57898  -0.56738  -0.55832  -0.54479
 Alpha  occ. eigenvalues --   -0.53712  -0.53500  -0.52691  -0.52188  -0.51892
 Alpha  occ. eigenvalues --   -0.51567  -0.50961  -0.50778  -0.50281  -0.49921
 Alpha  occ. eigenvalues --   -0.49440  -0.49097  -0.48450  -0.47793  -0.46921
 Alpha  occ. eigenvalues --   -0.46605  -0.46236  -0.45696  -0.45034  -0.44375
 Alpha  occ. eigenvalues --   -0.43917  -0.43248  -0.42994  -0.42942  -0.42402
 Alpha  occ. eigenvalues --   -0.41907  -0.41890  -0.41753  -0.41628  -0.41442
 Alpha  occ. eigenvalues --   -0.41158  -0.40973  -0.40725  -0.40583  -0.40330
 Alpha  occ. eigenvalues --   -0.40264  -0.39972  -0.39648  -0.39425  -0.39373
 Alpha  occ. eigenvalues --   -0.39104  -0.38856  -0.38534  -0.38279  -0.38078
 Alpha  occ. eigenvalues --   -0.37940  -0.37748  -0.37686  -0.37411  -0.37156
 Alpha  occ. eigenvalues --   -0.36944  -0.36778  -0.36770  -0.36674  -0.36612
 Alpha  occ. eigenvalues --   -0.36374  -0.36201  -0.35900  -0.35771  -0.35443
 Alpha  occ. eigenvalues --   -0.35257  -0.35136  -0.35051  -0.34937  -0.34863
 Alpha  occ. eigenvalues --   -0.34380  -0.34198  -0.34130  -0.34000  -0.33902
 Alpha  occ. eigenvalues --   -0.33859  -0.33699  -0.33525  -0.33285  -0.33191
 Alpha  occ. eigenvalues --   -0.33084  -0.33053  -0.32942  -0.32446  -0.32352
 Alpha  occ. eigenvalues --   -0.32030  -0.31930  -0.31763  -0.31586  -0.31475
 Alpha  occ. eigenvalues --   -0.31420  -0.31216  -0.30974  -0.30895  -0.30644
 Alpha  occ. eigenvalues --   -0.30512  -0.30282  -0.30046  -0.29966  -0.29623
 Alpha  occ. eigenvalues --   -0.29323  -0.29299  -0.28967  -0.28938  -0.28910
 Alpha  occ. eigenvalues --   -0.28560  -0.28508  -0.28345  -0.28169  -0.27775
 Alpha  occ. eigenvalues --   -0.27540  -0.27410  -0.27019  -0.26782  -0.26334
 Alpha  occ. eigenvalues --   -0.26142  -0.26055  -0.25789  -0.25441  -0.25251
 Alpha  occ. eigenvalues --   -0.24893  -0.24531  -0.24510  -0.23817  -0.23027
 Alpha  occ. eigenvalues --   -0.22870  -0.22594  -0.22124  -0.21341  -0.21071
 Alpha  occ. eigenvalues --   -0.20567  -0.19724  -0.18493  -0.18031  -0.16780
 Alpha  occ. eigenvalues --   -0.15812
 Alpha virt. eigenvalues --   -0.11335  -0.06700  -0.05691  -0.04406  -0.03339
 Alpha virt. eigenvalues --   -0.02306  -0.01595  -0.00981  -0.00558   0.00227
 Alpha virt. eigenvalues --    0.01586   0.01941   0.02492   0.02649   0.02812

 Mulliken charges:
               1
     1  Mg   0.695058
     2  C    0.107141
     3  C   -0.058646
     4  C   -0.031367
     5  C   -0.079048
     6  N   -0.222497
     7  C   -0.092227
     8  C   -0.023553
     9  C    0.021716
    10  C    0.026339
    11  C    0.112518
    12  C    0.102263
    13  C    0.167312
    14  C    0.053255
    15  O   -0.157515
    16  O   -0.313121
    17  N   -0.263392
    18  C    0.113843
    19  C   -0.140469
    20  C    0.031666
    21  C    0.117601
    22  C    0.178083
    23  C   -0.088322
    24  O   -0.188898
    25  C    0.165304
    26  N   -0.172517
    27  C   -0.031029
    28  C    0.023856
    29  C    0.008968
    30  C    0.025321
    31  C    0.133248
    32  C    0.091503
    33  C    0.079461
    34  N   -0.249830
    35  C    0.086317
    36  C   -0.161580
    37  C    0.117802
    38  C    0.025852
    39  C    0.192030
    40  C   -0.050741
    41  O   -0.169550
    42  C    0.013962
    43  C    0.112742
    44  O   -0.166486
    45  O   -0.236918
    46  C    0.204401
    47  C    0.309686
    48  C   -0.094749
    49  C   -0.154625
    50  C    0.137812
    51  C    0.112745
    52  C    0.110769
    53  C    0.103206
    54  C   -0.066524
    55  C    0.110729
    56  C    0.065417
    57  C    0.076547
    58  C    0.067719
    59  C   -0.075103
    60  C    0.133308
    61  C    0.106759
    62  C    0.107546
    63  C    0.074364
    64  C   -0.106484
    65  C    0.116705
    66  C    0.079967
    67  H   -0.077020
    68  H   -0.038387
    69  H   -0.056570
    70  H    0.020302
    71  H   -0.024534
    72  H   -0.009266
    73  H   -0.012589
    74  H   -0.002673
    75  H   -0.030457
    76  H   -0.023623
    77  H   -0.007054
    78  H    0.006470
    79  H   -0.014829
    80  H    0.010199
    81  H   -0.007253
    82  H   -0.004294
    83  H    0.017895
    84  H   -0.002214
    85  H   -0.024199
    86  H   -0.040595
    87  H   -0.006594
    88  H   -0.014899
    89  H    0.005205
    90  H   -0.020634
    91  H   -0.019221
    92  H   -0.016336
    93  H   -0.002375
    94  H   -0.011104
    95  H    0.011202
    96  H    0.006882
    97  H   -0.028392
    98  H   -0.006217
    99  H    0.025690
   100  H   -0.003354
   101  H    0.013362
   102  H    0.006270
   103  H    0.023345
   104  H   -0.021025
   105  H    0.002710
   106  H   -0.008789
   107  H   -0.009207
   108  H   -0.042957
   109  H   -0.016157
   110  H   -0.034508
   111  H   -0.020658
   112  H   -0.052038
   113  H   -0.029999
   114  H   -0.043282
   115  H   -0.015432
   116  H   -0.012620
   117  H   -0.020472
   118  H   -0.023903
   119  H   -0.046097
   120  H   -0.018766
   121  H   -0.033293
   122  H   -0.028921
   123  H   -0.036745
   124  H   -0.041346
   125  H   -0.021932
   126  H   -0.024201
   127  H   -0.028859
   128  H   -0.033600
   129  H   -0.044842
   130  H   -0.045947
   131  H   -0.017986
   132  H   -0.016972
   133  H   -0.028547
   134  H   -0.037636
   135  H   -0.022413
   136  H   -0.022379
   137  H   -0.013268
   138  H   -0.016771
   139  H   -0.020431
   140  H   -0.018506
 Sum of Mulliken charges =  -0.00000

 Dipole moment (field-independent basis, Debye):
    X=              5.0335    Y=              2.3803    Z=             -1.1221  Tot=              5.6798
 Quadrupole moment (field-independent basis, Debye-Ang):
   XX=           -403.4391   YY=           -435.0819   ZZ=           -403.4669
   XY=            -19.0002   XZ=              7.7646   YZ=              5.5701

 Normal termination of Gaussian 16 at Wed May  4 08:55:03 2022.
