 Gaussian 16, Revision A.03,
 Gaussian 16:  ES64L-G16RevA.03 25-Dec-2016

 -----------------------------------
 #p cam-b3lyp/Def2SVP td=(nstates=5)
 -----------------------------------

 -------------------------------------------------------
 step_1501_chromophore_6 TDDFT with cam-b3lyp functional
 -------------------------------------------------------
 Symbolic Z-matrix:
 Charge =  0 Multiplicity = 1

                         Standard orientation:
 ---------------------------------------------------------------------
 Center     Atomic      Atomic             Coordinates (Angstroms)
 Number     Number       Type             X           Y           Z
 ---------------------------------------------------------------------
      1         12           0       -5.477073    1.076499   -0.261456
      2          6           0       -4.691344   -2.292803   -0.375318
      3          6           0       -2.243745    1.858603   -0.151028
      4          6           0       -6.368269    4.370468    0.071831
      5          6           0       -8.829982    0.116398    0.394758
      6          7           0       -3.700399   -0.100680   -0.167850
      7          6           0       -3.597742   -1.413660   -0.378842
      8          6           0       -2.104316   -1.868267   -0.392464
      9          6           0       -1.331448   -0.553157   -0.094656
     10          6           0       -2.475942    0.501623   -0.053400
     11          6           0       -0.469466   -0.531760    1.166794
     12          6           0       -1.694846   -2.561375   -1.761791
     13          6           0       -0.793219   -3.748444   -1.633684
     14          6           0        0.057950   -3.946221   -0.323655
     15          8           0       -0.175314   -4.619145    0.626456
     16          8           0        1.280853   -3.276736   -0.362614
     17          7           0       -4.492343    2.854602   -0.268270
     18          6           0       -3.178225    2.967586   -0.280901
     19          6           0       -2.810514    4.360373   -0.349208
     20          6           0       -4.002409    5.063194   -0.290654
     21          6           0       -5.047137    4.099453   -0.262062
     22          6           0       -1.375204    4.769976   -0.555303
     23          6           0       -4.185085    6.583247   -0.294084
     24          8           0       -5.293546    7.144245   -0.162246
     25          6           0       -3.025484    7.454674   -0.405092
     26          7           0       -7.311983    2.091605    0.233262
     27          6           0       -7.378091    3.418641    0.377228
     28          6           0       -8.734494    3.847986    1.008605
     29          6           0       -9.547868    2.547629    0.728221
     30          6           0       -8.475928    1.486018    0.490508
     31          6           0       -8.610416    4.230536    2.506638
     32          6           0      -10.629086    2.628822   -0.450694
     33          6           0      -10.328484    1.867629   -1.745664
     34          7           0       -6.617127   -0.723800   -0.194502
     35          6           0       -7.989364   -0.961665    0.173159
     36          6           0       -8.204445   -2.342210    0.166505
     37          6           0       -6.966852   -2.890487   -0.099974
     38          6           0       -6.045585   -1.890160   -0.241092
     39          6           0       -9.458979   -3.040924    0.415859
     40          6           0       -6.296084   -4.152300   -0.350677
     41          8           0       -6.865338   -5.282757   -0.375795
     42          6           0       -4.775418   -3.732857   -0.467627
     43          6           0       -4.090516   -4.560571    0.541248
     44          8           0       -3.883634   -4.225093    1.685553
     45          8           0       -3.892974   -5.719329   -0.088746
     46          6           0       -3.016658   -6.651776    0.602732
     47          6           0        2.156576   -3.447117    0.855728
     48          6           0        3.187815   -2.322996    0.753304
     49          6           0        4.393893   -2.201706    1.325559
     50          6           0        4.999880   -3.129267    2.421240
     51          6           0        5.294501   -0.984284    0.918628
     52          6           0        5.728944   -1.109171   -0.535030
     53          6           0        7.155709   -1.608327   -0.656946
     54          6           0        8.123159   -0.565959   -1.297568
     55          6           0        8.320140   -0.665349   -2.826744
     56          6           0        9.415241   -0.660253   -0.518810
     57          6           0       10.510216    0.490952   -0.725906
     58          6           0       11.712768   -0.159736   -1.420383
     59          6           0       13.055646    0.603670   -0.965371
     60          6           0       13.986197    0.784327   -2.073551
     61          6           0       13.655258   -0.115773    0.270885
     62          6           0       14.126857    0.904128    1.404306
     63          6           0       15.635451    1.110120    1.392843
     64          6           0       16.072131    2.639286    1.367962
     65          6           0       17.523067    2.744848    1.901492
     66          6           0       15.988460    3.302267   -0.019879
     67          1           0       -1.177908    2.092112   -0.201247
     68          1           0       -6.690091    5.370984    0.370933
     69          1           0       -9.864502   -0.230837    0.396043
     70          1           0       -1.936441   -2.629803    0.368765
     71          1           0       -0.674600   -0.279104   -0.920156
     72          1           0       -0.631272    0.241939    1.917901
     73          1           0        0.572144   -0.446853    0.857107
     74          1           0       -0.554922   -1.444936    1.755889
     75          1           0       -1.264913   -1.867595   -2.485347
     76          1           0       -2.613999   -2.851163   -2.271258
     77          1           0       -0.053213   -3.594413   -2.418374
     78          1           0       -1.403888   -4.643222   -1.750945
     79          1           0       -1.085000    5.513866    0.186445
     80          1           0       -1.383477    5.279260   -1.518128
     81          1           0       -0.575496    4.036160   -0.454694
     82          1           0       -2.517585    7.055437   -1.283582
     83          1           0       -2.397553    7.394705    0.484400
     84          1           0       -3.428435    8.463182   -0.502741
     85          1           0       -9.176569    4.643642    0.408292
     86          1           0      -10.051257    2.192456    1.627687
     87          1           0       -7.697519    3.968302    3.041619
     88          1           0       -9.323895    3.704167    3.140193
     89          1           0       -8.742328    5.311114    2.553757
     90          1           0      -10.690187    3.677652   -0.741801
     91          1           0      -11.561192    2.265246   -0.018259
     92          1           0      -10.366760    0.785461   -1.625501
     93          1           0       -9.317666    2.142207   -2.044705
     94          1           0      -11.000198    2.056179   -2.583071
     95          1           0       -9.396076   -3.747677    1.243307
     96          1           0       -9.660531   -3.641051   -0.471086
     97          1           0      -10.260362   -2.318474    0.572642
     98          1           0       -4.378627   -3.961711   -1.457238
     99          1           0       -2.216229   -6.221417    1.203857
    100          1           0       -2.348665   -7.294774    0.028241
    101          1           0       -3.684772   -7.343467    1.114535
    102          1           0        2.632527   -4.425664    0.783553
    103          1           0        1.538759   -3.418672    1.752923
    104          1           0        2.928592   -1.508865    0.077123
    105          1           0        5.326315   -2.586356    3.308741
    106          1           0        5.931385   -3.514172    2.006999
    107          1           0        4.362369   -3.963590    2.713513
    108          1           0        6.227390   -0.996937    1.482057
    109          1           0        4.816557   -0.036080    1.163430
    110          1           0        5.731472   -0.085789   -0.909538
    111          1           0        5.039355   -1.748320   -1.086228
    112          1           0        7.182360   -2.443141   -1.357891
    113          1           0        7.520422   -2.085111    0.253684
    114          1           0        7.770682    0.463467   -1.250024
    115          1           0        8.454313    0.298270   -3.318093
    116          1           0        7.482649   -1.217137   -3.253675
    117          1           0        9.285377   -1.151497   -2.969469
    118          1           0        9.888857   -1.640195   -0.468913
    119          1           0        9.133138   -0.421883    0.506452
    120          1           0       10.707380    0.996397    0.219699
    121          1           0       10.159103    1.236738   -1.439612
    122          1           0       11.557165   -0.263423   -2.493607
    123          1           0       11.856159   -1.170433   -1.037123
    124          1           0       12.744908    1.607404   -0.677260
    125          1           0       13.689594    1.712828   -2.562144
    126          1           0       13.980144   -0.060074   -2.762518
    127          1           0       15.024063    0.904721   -1.764917
    128          1           0       14.415915   -0.827382   -0.049268
    129          1           0       12.855811   -0.726820    0.691863
    130          1           0       14.067719    0.329902    2.328539
    131          1           0       13.568199    1.829025    1.550422
    132          1           0       16.189727    0.735864    0.533408
    133          1           0       15.930517    0.652942    2.336967
    134          1           0       15.388304    3.252203    1.955619
    135          1           0       17.473186    3.162999    2.906502
    136          1           0       18.112052    3.438728    1.301793
    137          1           0       17.978841    1.760308    2.011026
    138          1           0       16.631968    4.175015   -0.130624
    139          1           0       14.962000    3.601390   -0.236406
    140          1           0       16.262869    2.652923   -0.850216
 ---------------------------------------------------------------------

 SCF Done:  E(RCAM-B3LYP) =  -3007.16499000     A.U. after   19 cycles

 Excitation energies and oscillator strengths:

 Excited State   1:      Singlet-A      1.7559 eV  706.11 nm  f=0.3821  <S**2>=0.000
     245 -> 248       -0.18262
     246 -> 247        0.68191
     245 <- 248       -0.10418
 This state for optimization and/or second-order correction.
 Total Energy, E(TD-HF/TD-DFT) =  -3007.10046293
 Copying the excited state density for this state as the 1-particle RhoCI density.

 Excited State   2:      Singlet-A      2.1889 eV  566.42 nm  f=0.1326  <S**2>=0.000
     245 -> 247        0.65140
     246 -> 248        0.25646

 Excited State   3:      Singlet-A      3.2338 eV  383.40 nm  f=0.0006  <S**2>=0.000
     243 -> 247        0.23479
     243 -> 249        0.14452
     243 -> 250       -0.10931
     244 -> 247        0.60758
     246 -> 248       -0.12154

 Excited State   4:      Singlet-A      3.3265 eV  372.71 nm  f=0.0006  <S**2>=0.000
     243 -> 247        0.53767
     243 -> 249        0.23891
     243 -> 250       -0.17387
     244 -> 247       -0.28364
     246 -> 248        0.12390

 Excited State   5:      Singlet-A      3.6006 eV  344.34 nm  f=0.6336  <S**2>=0.000
     239 -> 247       -0.13726
     241 -> 247       -0.14704
     244 -> 247        0.12786
     245 -> 247       -0.25087
     246 -> 248        0.60438
     245 <- 247        0.10547

 The electronic state is 1-A.
 Alpha  occ. eigenvalues --  -46.87790 -19.24954 -19.24557 -19.21011 -19.19078
 Alpha  occ. eigenvalues --  -19.18652 -19.18386 -14.41948 -14.41572 -14.39523
 Alpha  occ. eigenvalues --  -14.37735 -10.40078 -10.38264 -10.34956 -10.34603
 Alpha  occ. eigenvalues --  -10.32771 -10.31053 -10.30721 -10.30400 -10.30335
 Alpha  occ. eigenvalues --  -10.30222 -10.29891 -10.29389 -10.28511 -10.28481
 Alpha  occ. eigenvalues --  -10.28176 -10.27918 -10.27913 -10.27785 -10.27736
 Alpha  occ. eigenvalues --  -10.27487 -10.27289 -10.27198 -10.27070 -10.27024
 Alpha  occ. eigenvalues --  -10.26857 -10.26809 -10.26675 -10.26668 -10.26653
 Alpha  occ. eigenvalues --  -10.26429 -10.26368 -10.26305 -10.26040 -10.26010
 Alpha  occ. eigenvalues --  -10.25984 -10.25696 -10.25672 -10.25671 -10.25486
 Alpha  occ. eigenvalues --  -10.25434 -10.25135 -10.25020 -10.25011 -10.24980
 Alpha  occ. eigenvalues --  -10.24938 -10.24869 -10.24814 -10.24788 -10.24695
 Alpha  occ. eigenvalues --  -10.24662 -10.24635 -10.24288 -10.24118 -10.23651
 Alpha  occ. eigenvalues --  -10.23373  -3.16434  -1.91351  -1.90866  -1.90756
 Alpha  occ. eigenvalues --   -1.17282  -1.17009  -1.08802  -1.08320  -1.07911
 Alpha  occ. eigenvalues --   -1.06828  -1.05227  -1.04267  -1.04014  -1.02977
 Alpha  occ. eigenvalues --   -0.92965  -0.90813  -0.90116  -0.89637  -0.88736
 Alpha  occ. eigenvalues --   -0.88621  -0.88015  -0.87749  -0.87437  -0.87313
 Alpha  occ. eigenvalues --   -0.87192  -0.85726  -0.84568  -0.83692  -0.83300
 Alpha  occ. eigenvalues --   -0.82707  -0.82501  -0.81475  -0.81168  -0.80729
 Alpha  occ. eigenvalues --   -0.80168  -0.78804  -0.77939  -0.77060  -0.76192
 Alpha  occ. eigenvalues --   -0.75653  -0.75288  -0.75172  -0.75141  -0.74343
 Alpha  occ. eigenvalues --   -0.73267  -0.72937  -0.71629  -0.70627  -0.69078
 Alpha  occ. eigenvalues --   -0.68339  -0.68161  -0.67124  -0.66563  -0.66041
 Alpha  occ. eigenvalues --   -0.65623  -0.65137  -0.64895  -0.64291  -0.63971
 Alpha  occ. eigenvalues --   -0.63155  -0.63046  -0.62349  -0.61508  -0.60598
 Alpha  occ. eigenvalues --   -0.60256  -0.59835  -0.59126  -0.58334  -0.57980
 Alpha  occ. eigenvalues --   -0.57392  -0.56626  -0.56308  -0.56181  -0.55655
 Alpha  occ. eigenvalues --   -0.55217  -0.54682  -0.54602  -0.54487  -0.54295
 Alpha  occ. eigenvalues --   -0.54121  -0.53905  -0.53621  -0.53465  -0.53304
 Alpha  occ. eigenvalues --   -0.53209  -0.52781  -0.52488  -0.51947  -0.51919
 Alpha  occ. eigenvalues --   -0.51569  -0.51266  -0.51028  -0.50757  -0.50684
 Alpha  occ. eigenvalues --   -0.50359  -0.50229  -0.49991  -0.49617  -0.49416
 Alpha  occ. eigenvalues --   -0.49314  -0.49186  -0.49084  -0.48836  -0.48745
 Alpha  occ. eigenvalues --   -0.48513  -0.48350  -0.48196  -0.48002  -0.47721
 Alpha  occ. eigenvalues --   -0.47533  -0.47220  -0.47050  -0.46935  -0.46841
 Alpha  occ. eigenvalues --   -0.46171  -0.46059  -0.46015  -0.45873  -0.45789
 Alpha  occ. eigenvalues --   -0.45605  -0.45543  -0.45205  -0.45121  -0.45051
 Alpha  occ. eigenvalues --   -0.44832  -0.44761  -0.44585  -0.44292  -0.44163
 Alpha  occ. eigenvalues --   -0.43619  -0.43495  -0.43420  -0.43276  -0.43082
 Alpha  occ. eigenvalues --   -0.42811  -0.42549  -0.42461  -0.42319  -0.42205
 Alpha  occ. eigenvalues --   -0.41865  -0.41601  -0.41442  -0.41308  -0.41139
 Alpha  occ. eigenvalues --   -0.40843  -0.40540  -0.40444  -0.39996  -0.39881
 Alpha  occ. eigenvalues --   -0.39796  -0.39638  -0.39511  -0.39240  -0.38665
 Alpha  occ. eigenvalues --   -0.38393  -0.38300  -0.37845  -0.37597  -0.37451
 Alpha  occ. eigenvalues --   -0.37338  -0.37025  -0.36680  -0.36321  -0.36049
 Alpha  occ. eigenvalues --   -0.36023  -0.35488  -0.35025  -0.34850  -0.34057
 Alpha  occ. eigenvalues --   -0.33857  -0.33065  -0.32820  -0.31224  -0.30990
 Alpha  occ. eigenvalues --   -0.30566  -0.30283  -0.29961  -0.28927  -0.23488
 Alpha  occ. eigenvalues --   -0.21195
 Alpha virt. eigenvalues --   -0.08456  -0.01440   0.00818   0.02594   0.03422
 Alpha virt. eigenvalues --    0.04317   0.05141   0.06042   0.06594   0.07029
 Alpha virt. eigenvalues --    0.08237   0.08832   0.08888   0.09077   0.09199

 Mulliken charges:
               1
     1  Mg   0.830095
     2  C    0.072780
     3  C   -0.076054
     4  C   -0.037723
     5  C   -0.078528
     6  N   -0.303571
     7  C   -0.034835
     8  C   -0.079014
     9  C   -0.029315
    10  C    0.050064
    11  C    0.057094
    12  C    0.055708
    13  C    0.099905
    14  C    0.127548
    15  O   -0.198526
    16  O   -0.377087
    17  N   -0.354457
    18  C    0.128745
    19  C   -0.150907
    20  C   -0.037082
    21  C    0.137330
    22  C    0.119479
    23  C   -0.002401
    24  O   -0.230440
    25  C    0.078440
    26  N   -0.239315
    27  C   -0.018734
    28  C   -0.032280
    29  C   -0.045328
    30  C    0.038405
    31  C    0.074349
    32  C    0.038012
    33  C    0.017702
    34  N   -0.339221
    35  C    0.084767
    36  C   -0.160283
    37  C    0.044415
    38  C    0.064996
    39  C    0.140970
    40  C    0.049594
    41  O   -0.209179
    42  C   -0.062469
    43  C    0.194166
    44  O   -0.202068
    45  O   -0.298241
    46  C    0.163672
    47  C    0.283422
    48  C   -0.119629
    49  C   -0.177988
    50  C    0.079963
    51  C    0.057036
    52  C    0.048644
    53  C    0.046816
    54  C   -0.115696
    55  C    0.052910
    56  C    0.006817
    57  C    0.024473
    58  C    0.017921
    59  C   -0.126449
    60  C    0.076202
    61  C    0.051526
    62  C    0.044653
    63  C    0.025050
    64  C   -0.161944
    65  C    0.053971
    66  C    0.024850
    67  H   -0.044096
    68  H    0.004441
    69  H   -0.021342
    70  H    0.049862
    71  H    0.010913
    72  H    0.018821
    73  H    0.008983
    74  H    0.020209
    75  H    0.002106
    76  H    0.007639
    77  H    0.028265
    78  H    0.035302
    79  H    0.011291
    80  H    0.034997
    81  H    0.022460
    82  H    0.021263
    83  H    0.045930
    84  H    0.034440
    85  H    0.011313
    86  H   -0.003770
    87  H    0.019517
    88  H    0.009854
    89  H    0.028021
    90  H    0.006897
    91  H    0.008208
    92  H    0.006052
    93  H    0.018400
    94  H    0.015014
    95  H    0.039161
    96  H    0.034482
    97  H   -0.004071
    98  H    0.035652
    99  H    0.050588
   100  H    0.019472
   101  H    0.037782
   102  H    0.032500
   103  H    0.050952
   104  H    0.010299
   105  H    0.026900
   106  H    0.013147
   107  H    0.014675
   108  H   -0.013177
   109  H    0.014423
   110  H   -0.004606
   111  H    0.010384
   112  H   -0.020079
   113  H   -0.002614
   114  H   -0.011816
   115  H    0.008327
   116  H    0.011650
   117  H    0.001520
   118  H    0.003772
   119  H   -0.015730
   120  H    0.008820
   121  H   -0.005403
   122  H   -0.001049
   123  H   -0.009818
   124  H   -0.011712
   125  H    0.002777
   126  H    0.000428
   127  H   -0.007737
   128  H   -0.003713
   129  H   -0.014904
   130  H   -0.013752
   131  H    0.008934
   132  H    0.007023
   133  H    0.000700
   134  H   -0.006967
   135  H    0.002549
   136  H    0.002386
   137  H    0.010874
   138  H    0.008305
   139  H    0.001753
   140  H    0.002193
 Sum of Mulliken charges =  -0.00000

 Dipole moment (field-independent basis, Debye):
    X=              5.3105    Y=              2.8172    Z=             -1.2449  Tot=              6.1390
 Quadrupole moment (field-independent basis, Debye-Ang):
   XX=           -402.2740   YY=           -431.3182   ZZ=           -403.3758
   XY=            -20.3179   XZ=              7.7994   YZ=              5.6538

 Normal termination of Gaussian 16 at Wed May  4 07:55:50 2022.
