 Gaussian 16, Revision A.03,
 Gaussian 16:  ES64L-G16RevA.03 25-Dec-2016

 ---------------------------------
 #p PBE1PBE/Def2SVP td=(nstates=5)
 ---------------------------------

 -----------------------------------------------------
 step_1501_chromophore_6 TDDFT with PBE1PBE functional
 -----------------------------------------------------
 Symbolic Z-matrix:
 Charge =  0 Multiplicity = 1

                         Standard orientation:
 ---------------------------------------------------------------------
 Center     Atomic      Atomic             Coordinates (Angstroms)
 Number     Number       Type             X           Y           Z
 ---------------------------------------------------------------------
      1         12           0       -5.477073    1.076499   -0.261456
      2          6           0       -4.691344   -2.292803   -0.375318
      3          6           0       -2.243745    1.858603   -0.151028
      4          6           0       -6.368269    4.370468    0.071831
      5          6           0       -8.829982    0.116398    0.394758
      6          7           0       -3.700399   -0.100680   -0.167850
      7          6           0       -3.597742   -1.413660   -0.378842
      8          6           0       -2.104316   -1.868267   -0.392464
      9          6           0       -1.331448   -0.553157   -0.094656
     10          6           0       -2.475942    0.501623   -0.053400
     11          6           0       -0.469466   -0.531760    1.166794
     12          6           0       -1.694846   -2.561375   -1.761791
     13          6           0       -0.793219   -3.748444   -1.633684
     14          6           0        0.057950   -3.946221   -0.323655
     15          8           0       -0.175314   -4.619145    0.626456
     16          8           0        1.280853   -3.276736   -0.362614
     17          7           0       -4.492343    2.854602   -0.268270
     18          6           0       -3.178225    2.967586   -0.280901
     19          6           0       -2.810514    4.360373   -0.349208
     20          6           0       -4.002409    5.063194   -0.290654
     21          6           0       -5.047137    4.099453   -0.262062
     22          6           0       -1.375204    4.769976   -0.555303
     23          6           0       -4.185085    6.583247   -0.294084
     24          8           0       -5.293546    7.144245   -0.162246
     25          6           0       -3.025484    7.454674   -0.405092
     26          7           0       -7.311983    2.091605    0.233262
     27          6           0       -7.378091    3.418641    0.377228
     28          6           0       -8.734494    3.847986    1.008605
     29          6           0       -9.547868    2.547629    0.728221
     30          6           0       -8.475928    1.486018    0.490508
     31          6           0       -8.610416    4.230536    2.506638
     32          6           0      -10.629086    2.628822   -0.450694
     33          6           0      -10.328484    1.867629   -1.745664
     34          7           0       -6.617127   -0.723800   -0.194502
     35          6           0       -7.989364   -0.961665    0.173159
     36          6           0       -8.204445   -2.342210    0.166505
     37          6           0       -6.966852   -2.890487   -0.099974
     38          6           0       -6.045585   -1.890160   -0.241092
     39          6           0       -9.458979   -3.040924    0.415859
     40          6           0       -6.296084   -4.152300   -0.350677
     41          8           0       -6.865338   -5.282757   -0.375795
     42          6           0       -4.775418   -3.732857   -0.467627
     43          6           0       -4.090516   -4.560571    0.541248
     44          8           0       -3.883634   -4.225093    1.685553
     45          8           0       -3.892974   -5.719329   -0.088746
     46          6           0       -3.016658   -6.651776    0.602732
     47          6           0        2.156576   -3.447117    0.855728
     48          6           0        3.187815   -2.322996    0.753304
     49          6           0        4.393893   -2.201706    1.325559
     50          6           0        4.999880   -3.129267    2.421240
     51          6           0        5.294501   -0.984284    0.918628
     52          6           0        5.728944   -1.109171   -0.535030
     53          6           0        7.155709   -1.608327   -0.656946
     54          6           0        8.123159   -0.565959   -1.297568
     55          6           0        8.320140   -0.665349   -2.826744
     56          6           0        9.415241   -0.660253   -0.518810
     57          6           0       10.510216    0.490952   -0.725906
     58          6           0       11.712768   -0.159736   -1.420383
     59          6           0       13.055646    0.603670   -0.965371
     60          6           0       13.986197    0.784327   -2.073551
     61          6           0       13.655258   -0.115773    0.270885
     62          6           0       14.126857    0.904128    1.404306
     63          6           0       15.635451    1.110120    1.392843
     64          6           0       16.072131    2.639286    1.367962
     65          6           0       17.523067    2.744848    1.901492
     66          6           0       15.988460    3.302267   -0.019879
     67          1           0       -1.177908    2.092112   -0.201247
     68          1           0       -6.690091    5.370984    0.370933
     69          1           0       -9.864502   -0.230837    0.396043
     70          1           0       -1.936441   -2.629803    0.368765
     71          1           0       -0.674600   -0.279104   -0.920156
     72          1           0       -0.631272    0.241939    1.917901
     73          1           0        0.572144   -0.446853    0.857107
     74          1           0       -0.554922   -1.444936    1.755889
     75          1           0       -1.264913   -1.867595   -2.485347
     76          1           0       -2.613999   -2.851163   -2.271258
     77          1           0       -0.053213   -3.594413   -2.418374
     78          1           0       -1.403888   -4.643222   -1.750945
     79          1           0       -1.085000    5.513866    0.186445
     80          1           0       -1.383477    5.279260   -1.518128
     81          1           0       -0.575496    4.036160   -0.454694
     82          1           0       -2.517585    7.055437   -1.283582
     83          1           0       -2.397553    7.394705    0.484400
     84          1           0       -3.428435    8.463182   -0.502741
     85          1           0       -9.176569    4.643642    0.408292
     86          1           0      -10.051257    2.192456    1.627687
     87          1           0       -7.697519    3.968302    3.041619
     88          1           0       -9.323895    3.704167    3.140193
     89          1           0       -8.742328    5.311114    2.553757
     90          1           0      -10.690187    3.677652   -0.741801
     91          1           0      -11.561192    2.265246   -0.018259
     92          1           0      -10.366760    0.785461   -1.625501
     93          1           0       -9.317666    2.142207   -2.044705
     94          1           0      -11.000198    2.056179   -2.583071
     95          1           0       -9.396076   -3.747677    1.243307
     96          1           0       -9.660531   -3.641051   -0.471086
     97          1           0      -10.260362   -2.318474    0.572642
     98          1           0       -4.378627   -3.961711   -1.457238
     99          1           0       -2.216229   -6.221417    1.203857
    100          1           0       -2.348665   -7.294774    0.028241
    101          1           0       -3.684772   -7.343467    1.114535
    102          1           0        2.632527   -4.425664    0.783553
    103          1           0        1.538759   -3.418672    1.752923
    104          1           0        2.928592   -1.508865    0.077123
    105          1           0        5.326315   -2.586356    3.308741
    106          1           0        5.931385   -3.514172    2.006999
    107          1           0        4.362369   -3.963590    2.713513
    108          1           0        6.227390   -0.996937    1.482057
    109          1           0        4.816557   -0.036080    1.163430
    110          1           0        5.731472   -0.085789   -0.909538
    111          1           0        5.039355   -1.748320   -1.086228
    112          1           0        7.182360   -2.443141   -1.357891
    113          1           0        7.520422   -2.085111    0.253684
    114          1           0        7.770682    0.463467   -1.250024
    115          1           0        8.454313    0.298270   -3.318093
    116          1           0        7.482649   -1.217137   -3.253675
    117          1           0        9.285377   -1.151497   -2.969469
    118          1           0        9.888857   -1.640195   -0.468913
    119          1           0        9.133138   -0.421883    0.506452
    120          1           0       10.707380    0.996397    0.219699
    121          1           0       10.159103    1.236738   -1.439612
    122          1           0       11.557165   -0.263423   -2.493607
    123          1           0       11.856159   -1.170433   -1.037123
    124          1           0       12.744908    1.607404   -0.677260
    125          1           0       13.689594    1.712828   -2.562144
    126          1           0       13.980144   -0.060074   -2.762518
    127          1           0       15.024063    0.904721   -1.764917
    128          1           0       14.415915   -0.827382   -0.049268
    129          1           0       12.855811   -0.726820    0.691863
    130          1           0       14.067719    0.329902    2.328539
    131          1           0       13.568199    1.829025    1.550422
    132          1           0       16.189727    0.735864    0.533408
    133          1           0       15.930517    0.652942    2.336967
    134          1           0       15.388304    3.252203    1.955619
    135          1           0       17.473186    3.162999    2.906502
    136          1           0       18.112052    3.438728    1.301793
    137          1           0       17.978841    1.760308    2.011026
    138          1           0       16.631968    4.175015   -0.130624
    139          1           0       14.962000    3.601390   -0.236406
    140          1           0       16.262869    2.652923   -0.850216
 ---------------------------------------------------------------------

 SCF Done:  E(RPBE1PBE) =  -3005.35282740     A.U. after   15 cycles

 Excitation energies and oscillator strengths:

 Excited State   1:      Singlet-A      1.9071 eV  650.11 nm  f=0.3643  <S**2>=0.000
     245 -> 248        0.17523
     246 -> 247        0.68689
     246 <- 247       -0.10086
 This state for optimization and/or second-order correction.
 Total Energy, E(TD-HF/TD-DFT) =  -3005.28274182
 Copying the excited state density for this state as the 1-particle RhoCI density.

 Excited State   2:      Singlet-A      2.1754 eV  569.95 nm  f=0.1274  <S**2>=0.000
     245 -> 247        0.65990
     246 -> 248       -0.22448

 Excited State   3:      Singlet-A      2.8064 eV  441.79 nm  f=0.0007  <S**2>=0.000
     243 -> 247        0.45317
     243 -> 249       -0.12950
     244 -> 247        0.50478

 Excited State   4:      Singlet-A      2.9684 eV  417.67 nm  f=0.0055  <S**2>=0.000
     243 -> 247        0.50095
     244 -> 247       -0.46212
     246 -> 248       -0.13820

 Excited State   5:      Singlet-A      3.1463 eV  394.06 nm  f=0.0001  <S**2>=0.000
     241 -> 247        0.66311
     241 -> 248        0.12467
     241 -> 249        0.14487
     241 -> 250        0.10667

 The electronic state is 1-A.
 Alpha  occ. eigenvalues --  -46.91172 -19.25602 -19.25277 -19.21253 -19.19304
 Alpha  occ. eigenvalues --  -19.18842 -19.18695 -14.41286 -14.41262 -14.39095
 Alpha  occ. eigenvalues --  -14.37415 -10.37156 -10.35253 -10.32045 -10.31807
 Alpha  occ. eigenvalues --  -10.30201 -10.28772 -10.28430 -10.28141 -10.27997
 Alpha  occ. eigenvalues --  -10.27631 -10.27514 -10.27076 -10.26235 -10.26007
 Alpha  occ. eigenvalues --  -10.25986 -10.25717 -10.25606 -10.25506 -10.25361
 Alpha  occ. eigenvalues --  -10.25306 -10.24789 -10.24739 -10.24711 -10.24668
 Alpha  occ. eigenvalues --  -10.24526 -10.24462 -10.24358 -10.24292 -10.24274
 Alpha  occ. eigenvalues --  -10.24070 -10.24065 -10.23836 -10.23621 -10.23578
 Alpha  occ. eigenvalues --  -10.23381 -10.23377 -10.23261 -10.23159 -10.22943
 Alpha  occ. eigenvalues --  -10.22817 -10.22703 -10.22591 -10.22585 -10.22560
 Alpha  occ. eigenvalues --  -10.22540 -10.22470 -10.22377 -10.22297 -10.22265
 Alpha  occ. eigenvalues --  -10.22245 -10.22051 -10.21670 -10.21510 -10.21130
 Alpha  occ. eigenvalues --  -10.20986  -3.13394  -1.86253  -1.85746  -1.85639
 Alpha  occ. eigenvalues --   -1.12091  -1.11799  -1.03460  -1.03137  -1.02805
 Alpha  occ. eigenvalues --   -1.01571  -0.99881  -0.98900  -0.98683  -0.97688
 Alpha  occ. eigenvalues --   -0.87373  -0.84943  -0.84311  -0.83735  -0.83020
 Alpha  occ. eigenvalues --   -0.82754  -0.82298  -0.82031  -0.81645  -0.81552
 Alpha  occ. eigenvalues --   -0.81521  -0.79997  -0.78768  -0.78016  -0.77546
 Alpha  occ. eigenvalues --   -0.76861  -0.76666  -0.75760  -0.75385  -0.75056
 Alpha  occ. eigenvalues --   -0.74382  -0.73133  -0.72200  -0.71379  -0.70363
 Alpha  occ. eigenvalues --   -0.70010  -0.69481  -0.69371  -0.69283  -0.68523
 Alpha  occ. eigenvalues --   -0.67645  -0.67301  -0.66064  -0.64955  -0.63394
 Alpha  occ. eigenvalues --   -0.62677  -0.62449  -0.61609  -0.60794  -0.60527
 Alpha  occ. eigenvalues --   -0.60119  -0.59369  -0.59358  -0.58849  -0.58083
 Alpha  occ. eigenvalues --   -0.57675  -0.57198  -0.56572  -0.56100  -0.55139
 Alpha  occ. eigenvalues --   -0.54752  -0.54379  -0.53647  -0.52968  -0.52415
 Alpha  occ. eigenvalues --   -0.51941  -0.51162  -0.50791  -0.50680  -0.50135
 Alpha  occ. eigenvalues --   -0.49827  -0.49150  -0.49042  -0.48968  -0.48830
 Alpha  occ. eigenvalues --   -0.48615  -0.48349  -0.48068  -0.47900  -0.47803
 Alpha  occ. eigenvalues --   -0.47766  -0.47348  -0.47021  -0.46500  -0.46369
 Alpha  occ. eigenvalues --   -0.46105  -0.45813  -0.45593  -0.45318  -0.45181
 Alpha  occ. eigenvalues --   -0.44983  -0.44757  -0.44585  -0.44214  -0.43989
 Alpha  occ. eigenvalues --   -0.43900  -0.43790  -0.43688  -0.43449  -0.43379
 Alpha  occ. eigenvalues --   -0.43135  -0.42943  -0.42843  -0.42646  -0.42347
 Alpha  occ. eigenvalues --   -0.42214  -0.41910  -0.41697  -0.41605  -0.41461
 Alpha  occ. eigenvalues --   -0.40857  -0.40757  -0.40700  -0.40546  -0.40460
 Alpha  occ. eigenvalues --   -0.40288  -0.40228  -0.39953  -0.39781  -0.39775
 Alpha  occ. eigenvalues --   -0.39559  -0.39434  -0.39272  -0.39076  -0.38957
 Alpha  occ. eigenvalues --   -0.38424  -0.38328  -0.38175  -0.38051  -0.37829
 Alpha  occ. eigenvalues --   -0.37529  -0.37362  -0.37297  -0.37105  -0.36927
 Alpha  occ. eigenvalues --   -0.36684  -0.36439  -0.36189  -0.36136  -0.35948
 Alpha  occ. eigenvalues --   -0.35633  -0.35320  -0.35180  -0.34842  -0.34773
 Alpha  occ. eigenvalues --   -0.34737  -0.34523  -0.34324  -0.34163  -0.33498
 Alpha  occ. eigenvalues --   -0.33225  -0.33181  -0.32660  -0.32430  -0.32396
 Alpha  occ. eigenvalues --   -0.32245  -0.31873  -0.31770  -0.31350  -0.30986
 Alpha  occ. eigenvalues --   -0.30892  -0.30338  -0.29964  -0.29720  -0.29237
 Alpha  occ. eigenvalues --   -0.28975  -0.28356  -0.27876  -0.26828  -0.26201
 Alpha  occ. eigenvalues --   -0.25647  -0.25556  -0.24946  -0.24518  -0.20440
 Alpha  occ. eigenvalues --   -0.18787
 Alpha virt. eigenvalues --   -0.10933  -0.04979  -0.03408  -0.01811  -0.00170
 Alpha virt. eigenvalues --    0.00590   0.00822   0.02070   0.02264   0.03065
 Alpha virt. eigenvalues --    0.04269   0.05066   0.05447   0.05618   0.05805

 Mulliken charges:
               1
     1  Mg   0.978729
     2  C    0.065480
     3  C   -0.065106
     4  C   -0.031661
     5  C   -0.075565
     6  N   -0.413028
     7  C    0.044365
     8  C   -0.151979
     9  C   -0.103945
    10  C    0.085893
    11  C    0.002215
    12  C    0.012540
    13  C    0.022019
    14  C    0.192416
    15  O   -0.233101
    16  O   -0.406362
    17  N   -0.480844
    18  C    0.160465
    19  C   -0.179022
    20  C   -0.093190
    21  C    0.176442
    22  C    0.058387
    23  C    0.052382
    24  O   -0.267217
    25  C    0.002042
    26  N   -0.351094
    27  C    0.021776
    28  C   -0.118284
    29  C   -0.114607
    30  C    0.079981
    31  C    0.022086
    32  C   -0.020197
    33  C   -0.062282
    34  N   -0.466771
    35  C    0.108972
    36  C   -0.191128
    37  C    0.006211
    38  C    0.116782
    39  C    0.090510
    40  C    0.138425
    41  O   -0.253577
    42  C   -0.165374
    43  C    0.282879
    44  O   -0.239083
    45  O   -0.331251
    46  C    0.109062
    47  C    0.246985
    48  C   -0.130975
    49  C   -0.223137
    50  C    0.014334
    51  C   -0.005783
    52  C   -0.017443
    53  C   -0.008156
    54  C   -0.196796
    55  C   -0.006939
    56  C   -0.055642
    57  C   -0.032802
    58  C   -0.038152
    59  C   -0.209818
    60  C    0.016304
    61  C   -0.003542
    62  C   -0.022870
    63  C   -0.026511
    64  C   -0.254355
    65  C   -0.007541
    66  C   -0.033286
    67  H   -0.009431
    68  H    0.034440
    69  H    0.008752
    70  H    0.090916
    71  H    0.046363
    72  H    0.045605
    73  H    0.038660
    74  H    0.047332
    75  H    0.032842
    76  H    0.041030
    77  H    0.060822
    78  H    0.068018
    79  H    0.040324
    80  H    0.063455
    81  H    0.048158
    82  H    0.049110
    83  H    0.072395
    84  H    0.061698
    85  H    0.047386
    86  H    0.034168
    87  H    0.046556
    88  H    0.037021
    89  H    0.054883
    90  H    0.039920
    91  H    0.040479
    92  H    0.035813
    93  H    0.050048
    94  H    0.044016
    95  H    0.065978
    96  H    0.061955
    97  H    0.023749
    98  H    0.074872
    99  H    0.072562
   100  H    0.040975
   101  H    0.060142
   102  H    0.059056
   103  H    0.075919
   104  H    0.038456
   105  H    0.054314
   106  H    0.042393
   107  H    0.041651
   108  H    0.020478
   109  H    0.046150
   110  H    0.028836
   111  H    0.043058
   112  H    0.014753
   113  H    0.027845
   114  H    0.025651
   115  H    0.035063
   116  H    0.039263
   117  H    0.031207
   118  H    0.035228
   119  H    0.020726
   120  H    0.039566
   121  H    0.028358
   122  H    0.030063
   123  H    0.023302
   124  H    0.026584
   125  H    0.030681
   126  H    0.028144
   127  H    0.022391
   128  H    0.027831
   129  H    0.018438
   130  H    0.021260
   131  H    0.038038
   132  H    0.037920
   133  H    0.033189
   134  H    0.030411
   135  H    0.030967
   136  H    0.029340
   137  H    0.037727
   138  H    0.035894
   139  H    0.029848
   140  H    0.029718
 Sum of Mulliken charges =  -0.00000

 Dipole moment (field-independent basis, Debye):
    X=              5.3790    Y=              2.7610    Z=             -1.2128  Tot=              6.1667
 Quadrupole moment (field-independent basis, Debye-Ang):
   XX=           -397.3777   YY=           -428.7578   ZZ=           -400.8269
   XY=            -20.3065   XZ=              7.6437   YZ=              5.7294

 Normal termination of Gaussian 16 at Wed May  4 08:12:02 2022.
