 Gaussian 16, Revision A.03,
 Gaussian 16:  ES64L-G16RevA.03 25-Dec-2016

 --------------------------------
 #p wB97XD/Def2SVP td=(nstates=5)
 --------------------------------

 ----------------------------------------------------
 step_1501_chromophore_6 TDDFT with wB97XD functional
 ----------------------------------------------------
 Symbolic Z-matrix:
 Charge =  0 Multiplicity = 1

                         Standard orientation:
 ---------------------------------------------------------------------
 Center     Atomic      Atomic             Coordinates (Angstroms)
 Number     Number       Type             X           Y           Z
 ---------------------------------------------------------------------
      1         12           0       -5.477073    1.076499   -0.261456
      2          6           0       -4.691344   -2.292803   -0.375318
      3          6           0       -2.243745    1.858603   -0.151028
      4          6           0       -6.368269    4.370468    0.071831
      5          6           0       -8.829982    0.116398    0.394758
      6          7           0       -3.700399   -0.100680   -0.167850
      7          6           0       -3.597742   -1.413660   -0.378842
      8          6           0       -2.104316   -1.868267   -0.392464
      9          6           0       -1.331448   -0.553157   -0.094656
     10          6           0       -2.475942    0.501623   -0.053400
     11          6           0       -0.469466   -0.531760    1.166794
     12          6           0       -1.694846   -2.561375   -1.761791
     13          6           0       -0.793219   -3.748444   -1.633684
     14          6           0        0.057950   -3.946221   -0.323655
     15          8           0       -0.175314   -4.619145    0.626456
     16          8           0        1.280853   -3.276736   -0.362614
     17          7           0       -4.492343    2.854602   -0.268270
     18          6           0       -3.178225    2.967586   -0.280901
     19          6           0       -2.810514    4.360373   -0.349208
     20          6           0       -4.002409    5.063194   -0.290654
     21          6           0       -5.047137    4.099453   -0.262062
     22          6           0       -1.375204    4.769976   -0.555303
     23          6           0       -4.185085    6.583247   -0.294084
     24          8           0       -5.293546    7.144245   -0.162246
     25          6           0       -3.025484    7.454674   -0.405092
     26          7           0       -7.311983    2.091605    0.233262
     27          6           0       -7.378091    3.418641    0.377228
     28          6           0       -8.734494    3.847986    1.008605
     29          6           0       -9.547868    2.547629    0.728221
     30          6           0       -8.475928    1.486018    0.490508
     31          6           0       -8.610416    4.230536    2.506638
     32          6           0      -10.629086    2.628822   -0.450694
     33          6           0      -10.328484    1.867629   -1.745664
     34          7           0       -6.617127   -0.723800   -0.194502
     35          6           0       -7.989364   -0.961665    0.173159
     36          6           0       -8.204445   -2.342210    0.166505
     37          6           0       -6.966852   -2.890487   -0.099974
     38          6           0       -6.045585   -1.890160   -0.241092
     39          6           0       -9.458979   -3.040924    0.415859
     40          6           0       -6.296084   -4.152300   -0.350677
     41          8           0       -6.865338   -5.282757   -0.375795
     42          6           0       -4.775418   -3.732857   -0.467627
     43          6           0       -4.090516   -4.560571    0.541248
     44          8           0       -3.883634   -4.225093    1.685553
     45          8           0       -3.892974   -5.719329   -0.088746
     46          6           0       -3.016658   -6.651776    0.602732
     47          6           0        2.156576   -3.447117    0.855728
     48          6           0        3.187815   -2.322996    0.753304
     49          6           0        4.393893   -2.201706    1.325559
     50          6           0        4.999880   -3.129267    2.421240
     51          6           0        5.294501   -0.984284    0.918628
     52          6           0        5.728944   -1.109171   -0.535030
     53          6           0        7.155709   -1.608327   -0.656946
     54          6           0        8.123159   -0.565959   -1.297568
     55          6           0        8.320140   -0.665349   -2.826744
     56          6           0        9.415241   -0.660253   -0.518810
     57          6           0       10.510216    0.490952   -0.725906
     58          6           0       11.712768   -0.159736   -1.420383
     59          6           0       13.055646    0.603670   -0.965371
     60          6           0       13.986197    0.784327   -2.073551
     61          6           0       13.655258   -0.115773    0.270885
     62          6           0       14.126857    0.904128    1.404306
     63          6           0       15.635451    1.110120    1.392843
     64          6           0       16.072131    2.639286    1.367962
     65          6           0       17.523067    2.744848    1.901492
     66          6           0       15.988460    3.302267   -0.019879
     67          1           0       -1.177908    2.092112   -0.201247
     68          1           0       -6.690091    5.370984    0.370933
     69          1           0       -9.864502   -0.230837    0.396043
     70          1           0       -1.936441   -2.629803    0.368765
     71          1           0       -0.674600   -0.279104   -0.920156
     72          1           0       -0.631272    0.241939    1.917901
     73          1           0        0.572144   -0.446853    0.857107
     74          1           0       -0.554922   -1.444936    1.755889
     75          1           0       -1.264913   -1.867595   -2.485347
     76          1           0       -2.613999   -2.851163   -2.271258
     77          1           0       -0.053213   -3.594413   -2.418374
     78          1           0       -1.403888   -4.643222   -1.750945
     79          1           0       -1.085000    5.513866    0.186445
     80          1           0       -1.383477    5.279260   -1.518128
     81          1           0       -0.575496    4.036160   -0.454694
     82          1           0       -2.517585    7.055437   -1.283582
     83          1           0       -2.397553    7.394705    0.484400
     84          1           0       -3.428435    8.463182   -0.502741
     85          1           0       -9.176569    4.643642    0.408292
     86          1           0      -10.051257    2.192456    1.627687
     87          1           0       -7.697519    3.968302    3.041619
     88          1           0       -9.323895    3.704167    3.140193
     89          1           0       -8.742328    5.311114    2.553757
     90          1           0      -10.690187    3.677652   -0.741801
     91          1           0      -11.561192    2.265246   -0.018259
     92          1           0      -10.366760    0.785461   -1.625501
     93          1           0       -9.317666    2.142207   -2.044705
     94          1           0      -11.000198    2.056179   -2.583071
     95          1           0       -9.396076   -3.747677    1.243307
     96          1           0       -9.660531   -3.641051   -0.471086
     97          1           0      -10.260362   -2.318474    0.572642
     98          1           0       -4.378627   -3.961711   -1.457238
     99          1           0       -2.216229   -6.221417    1.203857
    100          1           0       -2.348665   -7.294774    0.028241
    101          1           0       -3.684772   -7.343467    1.114535
    102          1           0        2.632527   -4.425664    0.783553
    103          1           0        1.538759   -3.418672    1.752923
    104          1           0        2.928592   -1.508865    0.077123
    105          1           0        5.326315   -2.586356    3.308741
    106          1           0        5.931385   -3.514172    2.006999
    107          1           0        4.362369   -3.963590    2.713513
    108          1           0        6.227390   -0.996937    1.482057
    109          1           0        4.816557   -0.036080    1.163430
    110          1           0        5.731472   -0.085789   -0.909538
    111          1           0        5.039355   -1.748320   -1.086228
    112          1           0        7.182360   -2.443141   -1.357891
    113          1           0        7.520422   -2.085111    0.253684
    114          1           0        7.770682    0.463467   -1.250024
    115          1           0        8.454313    0.298270   -3.318093
    116          1           0        7.482649   -1.217137   -3.253675
    117          1           0        9.285377   -1.151497   -2.969469
    118          1           0        9.888857   -1.640195   -0.468913
    119          1           0        9.133138   -0.421883    0.506452
    120          1           0       10.707380    0.996397    0.219699
    121          1           0       10.159103    1.236738   -1.439612
    122          1           0       11.557165   -0.263423   -2.493607
    123          1           0       11.856159   -1.170433   -1.037123
    124          1           0       12.744908    1.607404   -0.677260
    125          1           0       13.689594    1.712828   -2.562144
    126          1           0       13.980144   -0.060074   -2.762518
    127          1           0       15.024063    0.904721   -1.764917
    128          1           0       14.415915   -0.827382   -0.049268
    129          1           0       12.855811   -0.726820    0.691863
    130          1           0       14.067719    0.329902    2.328539
    131          1           0       13.568199    1.829025    1.550422
    132          1           0       16.189727    0.735864    0.533408
    133          1           0       15.930517    0.652942    2.336967
    134          1           0       15.388304    3.252203    1.955619
    135          1           0       17.473186    3.162999    2.906502
    136          1           0       18.112052    3.438728    1.301793
    137          1           0       17.978841    1.760308    2.011026
    138          1           0       16.631968    4.175015   -0.130624
    139          1           0       14.962000    3.601390   -0.236406
    140          1           0       16.262869    2.652923   -0.850216
 ---------------------------------------------------------------------

 SCF Done:  E(RwB97XD) =  -3007.86570233     A.U. after   19 cycles

 Excitation energies and oscillator strengths:

 Excited State   1:      Singlet-A      1.6988 eV  729.83 nm  f=0.3805  <S**2>=0.000
     245 -> 248       -0.18788
     246 -> 247        0.67981
     245 <- 248       -0.11312
 This state for optimization and/or second-order correction.
 Total Energy, E(TD-HF/TD-DFT) =  -3007.80327192
 Copying the excited state density for this state as the 1-particle RhoCI density.

 Excited State   2:      Singlet-A      2.1387 eV  579.71 nm  f=0.1286  <S**2>=0.000
     245 -> 247        0.64916
     246 -> 248        0.25913

 Excited State   3:      Singlet-A      3.2478 eV  381.75 nm  f=0.0005  <S**2>=0.000
     243 -> 247        0.16901
     243 -> 249        0.13118
     244 -> 247        0.62510
     246 -> 248       -0.13927

 Excited State   4:      Singlet-A      3.3532 eV  369.74 nm  f=0.0011  <S**2>=0.000
     243 -> 247        0.54964
     243 -> 249        0.26715
     243 -> 250       -0.18714
     244 -> 247       -0.21518
     246 -> 248        0.12389

 Excited State   5:      Singlet-A      3.6219 eV  342.32 nm  f=0.6442  <S**2>=0.000
     239 -> 247       -0.12245
     241 -> 247       -0.17910
     244 -> 247        0.13134
     245 -> 247       -0.25117
     246 -> 248        0.59307
     245 <- 247        0.10979

 The electronic state is 1-A.
 Alpha  occ. eigenvalues --  -46.94130 -19.30159 -19.29779 -19.25882 -19.24013
 Alpha  occ. eigenvalues --  -19.23690 -19.23478 -14.46558 -14.46120 -14.44124
 Alpha  occ. eigenvalues --  -14.42344 -10.43881 -10.42086 -10.38915 -10.38666
 Alpha  occ. eigenvalues --  -10.36672 -10.35082 -10.34756 -10.34336 -10.34229
 Alpha  occ. eigenvalues --  -10.34141 -10.33922 -10.33403 -10.32496 -10.32393
 Alpha  occ. eigenvalues --  -10.32243 -10.32031 -10.31949 -10.31816 -10.31696
 Alpha  occ. eigenvalues --  -10.31531 -10.31228 -10.31169 -10.31161 -10.31044
 Alpha  occ. eigenvalues --  -10.30922 -10.30908 -10.30751 -10.30675 -10.30502
 Alpha  occ. eigenvalues --  -10.30455 -10.30374 -10.30360 -10.29994 -10.29929
 Alpha  occ. eigenvalues --  -10.29870 -10.29659 -10.29650 -10.29520 -10.29325
 Alpha  occ. eigenvalues --  -10.29314 -10.29067 -10.28952 -10.28949 -10.28913
 Alpha  occ. eigenvalues --  -10.28883 -10.28758 -10.28741 -10.28699 -10.28649
 Alpha  occ. eigenvalues --  -10.28592 -10.28491 -10.28117 -10.27930 -10.27463
 Alpha  occ. eigenvalues --  -10.27399  -3.20189  -1.93801  -1.93294  -1.93185
 Alpha  occ. eigenvalues --   -1.19402  -1.19185  -1.11005  -1.10494  -1.10100
 Alpha  occ. eigenvalues --   -1.09064  -1.07265  -1.06297  -1.06024  -1.05021
 Alpha  occ. eigenvalues --   -0.94948  -0.92599  -0.91938  -0.91406  -0.90659
 Alpha  occ. eigenvalues --   -0.90417  -0.89966  -0.89617  -0.89271  -0.89201
 Alpha  occ. eigenvalues --   -0.89117  -0.87612  -0.86415  -0.85628  -0.85191
 Alpha  occ. eigenvalues --   -0.84617  -0.84321  -0.83393  -0.83030  -0.82667
 Alpha  occ. eigenvalues --   -0.82029  -0.80766  -0.79825  -0.78978  -0.78031
 Alpha  occ. eigenvalues --   -0.77591  -0.77082  -0.77073  -0.76964  -0.76184
 Alpha  occ. eigenvalues --   -0.75210  -0.74884  -0.73593  -0.72548  -0.70983
 Alpha  occ. eigenvalues --   -0.70271  -0.70082  -0.69129  -0.68428  -0.67988
 Alpha  occ. eigenvalues --   -0.67586  -0.66996  -0.66862  -0.66289  -0.65775
 Alpha  occ. eigenvalues --   -0.65111  -0.64864  -0.64195  -0.63490  -0.62587
 Alpha  occ. eigenvalues --   -0.62209  -0.61807  -0.61079  -0.60316  -0.59931
 Alpha  occ. eigenvalues --   -0.59379  -0.58566  -0.58204  -0.58120  -0.57555
 Alpha  occ. eigenvalues --   -0.57204  -0.56567  -0.56486  -0.56402  -0.56228
 Alpha  occ. eigenvalues --   -0.56023  -0.55778  -0.55540  -0.55387  -0.55204
 Alpha  occ. eigenvalues --   -0.55106  -0.54705  -0.54378  -0.53855  -0.53780
 Alpha  occ. eigenvalues --   -0.53448  -0.53165  -0.52937  -0.52702  -0.52632
 Alpha  occ. eigenvalues --   -0.52288  -0.52103  -0.51887  -0.51499  -0.51355
 Alpha  occ. eigenvalues --   -0.51227  -0.51138  -0.51023  -0.50730  -0.50675
 Alpha  occ. eigenvalues --   -0.50412  -0.50254  -0.50134  -0.49917  -0.49633
 Alpha  occ. eigenvalues --   -0.49433  -0.49146  -0.48930  -0.48858  -0.48709
 Alpha  occ. eigenvalues --   -0.48029  -0.47972  -0.47916  -0.47793  -0.47677
 Alpha  occ. eigenvalues --   -0.47475  -0.47428  -0.47142  -0.46973  -0.46967
 Alpha  occ. eigenvalues --   -0.46693  -0.46670  -0.46446  -0.46197  -0.46092
 Alpha  occ. eigenvalues --   -0.45569  -0.45427  -0.45327  -0.45153  -0.44968
 Alpha  occ. eigenvalues --   -0.44667  -0.44464  -0.44382  -0.44208  -0.44061
 Alpha  occ. eigenvalues --   -0.43838  -0.43596  -0.43295  -0.43204  -0.43156
 Alpha  occ. eigenvalues --   -0.42709  -0.42456  -0.42296  -0.41856  -0.41801
 Alpha  occ. eigenvalues --   -0.41712  -0.41513  -0.41369  -0.41133  -0.40508
 Alpha  occ. eigenvalues --   -0.40234  -0.40185  -0.39705  -0.39458  -0.39369
 Alpha  occ. eigenvalues --   -0.39283  -0.38889  -0.38853  -0.38267  -0.37972
 Alpha  occ. eigenvalues --   -0.37893  -0.37328  -0.36875  -0.36746  -0.36080
 Alpha  occ. eigenvalues --   -0.35849  -0.35244  -0.34674  -0.33401  -0.32968
 Alpha  occ. eigenvalues --   -0.32732  -0.32307  -0.31945  -0.31091  -0.25412
 Alpha  occ. eigenvalues --   -0.23015
 Alpha virt. eigenvalues --   -0.06808   0.00477   0.02870   0.04692   0.06510
 Alpha virt. eigenvalues --    0.06672   0.07477   0.08776   0.08885   0.09510
 Alpha virt. eigenvalues --    0.10834   0.11897   0.12223   0.12361   0.12520

 Mulliken charges:
               1
     1  Mg   0.968156
     2  C    0.056854
     3  C   -0.086302
     4  C   -0.041943
     5  C   -0.085514
     6  N   -0.379574
     7  C    0.014924
     8  C   -0.121359
     9  C   -0.079084
    10  C    0.075663
    11  C    0.012613
    12  C    0.018169
    13  C    0.041131
    14  C    0.176626
    15  O   -0.228789
    16  O   -0.403988
    17  N   -0.443914
    18  C    0.151147
    19  C   -0.170211
    20  C   -0.082859
    21  C    0.161151
    22  C    0.071769
    23  C    0.047162
    24  O   -0.261579
    25  C    0.015012
    26  N   -0.309724
    27  C    0.000168
    28  C   -0.086332
    29  C   -0.090904
    30  C    0.061955
    31  C    0.027531
    32  C   -0.011308
    33  C   -0.036824
    34  N   -0.428314
    35  C    0.097964
    36  C   -0.178564
    37  C    0.004526
    38  C    0.101295
    39  C    0.099228
    40  C    0.120243
    41  O   -0.243308
    42  C   -0.123828
    43  C    0.257750
    44  O   -0.231311
    45  O   -0.329553
    46  C    0.124392
    47  C    0.256655
    48  C   -0.140815
    49  C   -0.208382
    50  C    0.030232
    51  C    0.013937
    52  C    0.000220
    53  C    0.007897
    54  C   -0.169424
    55  C    0.004783
    56  C   -0.033619
    57  C   -0.020999
    58  C   -0.018375
    59  C   -0.178806
    60  C    0.029936
    61  C    0.011110
    62  C   -0.006398
    63  C   -0.012842
    64  C   -0.223326
    65  C    0.004470
    66  C   -0.021400
    67  H   -0.019419
    68  H    0.031753
    69  H    0.001709
    70  H    0.070250
    71  H    0.036932
    72  H    0.041192
    73  H    0.029869
    74  H    0.041239
    75  H    0.027399
    76  H    0.031411
    77  H    0.056058
    78  H    0.062163
    79  H    0.033149
    80  H    0.057000
    81  H    0.046162
    82  H    0.041193
    83  H    0.067876
    84  H    0.060887
    85  H    0.037802
    86  H    0.022867
    87  H    0.041254
    88  H    0.031215
    89  H    0.049880
    90  H    0.031636
    91  H    0.033945
    92  H    0.026469
    93  H    0.038390
    94  H    0.039535
    95  H    0.062700
    96  H    0.057889
    97  H    0.018213
    98  H    0.064181
    99  H    0.067452
   100  H    0.037191
   101  H    0.057228
   102  H    0.054297
   103  H    0.071708
   104  H    0.034275
   105  H    0.049088
   106  H    0.034685
   107  H    0.037220
   108  H    0.008844
   109  H    0.040608
   110  H    0.019757
   111  H    0.034295
   112  H    0.005869
   113  H    0.016537
   114  H    0.012494
   115  H    0.030199
   116  H    0.033683
   117  H    0.021413
   118  H    0.025435
   119  H    0.009224
   120  H    0.032055
   121  H    0.019066
   122  H    0.022124
   123  H    0.009536
   124  H    0.010671
   125  H    0.025621
   126  H    0.022742
   127  H    0.009902
   128  H    0.020617
   129  H    0.008356
   130  H    0.013872
   131  H    0.030448
   132  H    0.025845
   133  H    0.025406
   134  H    0.019614
   135  H    0.025226
   136  H    0.023498
   137  H    0.031683
   138  H    0.030344
   139  H    0.023075
   140  H    0.020802
 Sum of Mulliken charges =  -0.00000

 Dipole moment (field-independent basis, Debye):
    X=              5.3567    Y=              2.8742    Z=             -1.2826  Tot=              6.2129
 Quadrupole moment (field-independent basis, Debye-Ang):
   XX=           -397.1057   YY=           -427.0091   ZZ=           -400.4627
   XY=            -20.1093   XZ=              7.8839   YZ=              5.6616

 Normal termination of Gaussian 16 at Wed May  4 08:41:19 2022.
