 Gaussian 16, Revision A.03,
 Gaussian 16:  ES64L-G16RevA.03 25-Dec-2016

 --------------------
 #p ZINDO=(nstates=5)
 --------------------

 -----------------------------
 step_1501_chromophore_6 ZINDO
 -----------------------------
 Symbolic Z-matrix:
 Charge =  0 Multiplicity = 1

                         Standard orientation:
 ---------------------------------------------------------------------
 Center     Atomic      Atomic             Coordinates (Angstroms)
 Number     Number       Type             X           Y           Z
 ---------------------------------------------------------------------
      1         12           0       -5.477073    1.076499   -0.261456
      2          6           0       -4.691344   -2.292803   -0.375318
      3          6           0       -2.243745    1.858603   -0.151028
      4          6           0       -6.368269    4.370468    0.071831
      5          6           0       -8.829982    0.116398    0.394758
      6          7           0       -3.700399   -0.100680   -0.167850
      7          6           0       -3.597742   -1.413660   -0.378842
      8          6           0       -2.104316   -1.868267   -0.392464
      9          6           0       -1.331448   -0.553157   -0.094656
     10          6           0       -2.475942    0.501623   -0.053400
     11          6           0       -0.469466   -0.531760    1.166794
     12          6           0       -1.694846   -2.561375   -1.761791
     13          6           0       -0.793219   -3.748444   -1.633684
     14          6           0        0.057950   -3.946221   -0.323655
     15          8           0       -0.175314   -4.619145    0.626456
     16          8           0        1.280853   -3.276736   -0.362614
     17          7           0       -4.492343    2.854602   -0.268270
     18          6           0       -3.178225    2.967586   -0.280901
     19          6           0       -2.810514    4.360373   -0.349208
     20          6           0       -4.002409    5.063194   -0.290654
     21          6           0       -5.047137    4.099453   -0.262062
     22          6           0       -1.375204    4.769976   -0.555303
     23          6           0       -4.185085    6.583247   -0.294084
     24          8           0       -5.293546    7.144245   -0.162246
     25          6           0       -3.025484    7.454674   -0.405092
     26          7           0       -7.311983    2.091605    0.233262
     27          6           0       -7.378091    3.418641    0.377228
     28          6           0       -8.734494    3.847986    1.008605
     29          6           0       -9.547868    2.547629    0.728221
     30          6           0       -8.475928    1.486018    0.490508
     31          6           0       -8.610416    4.230536    2.506638
     32          6           0      -10.629086    2.628822   -0.450694
     33          6           0      -10.328484    1.867629   -1.745664
     34          7           0       -6.617127   -0.723800   -0.194502
     35          6           0       -7.989364   -0.961665    0.173159
     36          6           0       -8.204445   -2.342210    0.166505
     37          6           0       -6.966852   -2.890487   -0.099974
     38          6           0       -6.045585   -1.890160   -0.241092
     39          6           0       -9.458979   -3.040924    0.415859
     40          6           0       -6.296084   -4.152300   -0.350677
     41          8           0       -6.865338   -5.282757   -0.375795
     42          6           0       -4.775418   -3.732857   -0.467627
     43          6           0       -4.090516   -4.560571    0.541248
     44          8           0       -3.883634   -4.225093    1.685553
     45          8           0       -3.892974   -5.719329   -0.088746
     46          6           0       -3.016658   -6.651776    0.602732
     47          6           0        2.156576   -3.447117    0.855728
     48          6           0        3.187815   -2.322996    0.753304
     49          6           0        4.393893   -2.201706    1.325559
     50          6           0        4.999880   -3.129267    2.421240
     51          6           0        5.294501   -0.984284    0.918628
     52          6           0        5.728944   -1.109171   -0.535030
     53          6           0        7.155709   -1.608327   -0.656946
     54          6           0        8.123159   -0.565959   -1.297568
     55          6           0        8.320140   -0.665349   -2.826744
     56          6           0        9.415241   -0.660253   -0.518810
     57          6           0       10.510216    0.490952   -0.725906
     58          6           0       11.712768   -0.159736   -1.420383
     59          6           0       13.055646    0.603670   -0.965371
     60          6           0       13.986197    0.784327   -2.073551
     61          6           0       13.655258   -0.115773    0.270885
     62          6           0       14.126857    0.904128    1.404306
     63          6           0       15.635451    1.110120    1.392843
     64          6           0       16.072131    2.639286    1.367962
     65          6           0       17.523067    2.744848    1.901492
     66          6           0       15.988460    3.302267   -0.019879
     67          1           0       -1.177908    2.092112   -0.201247
     68          1           0       -6.690091    5.370984    0.370933
     69          1           0       -9.864502   -0.230837    0.396043
     70          1           0       -1.936441   -2.629803    0.368765
     71          1           0       -0.674600   -0.279104   -0.920156
     72          1           0       -0.631272    0.241939    1.917901
     73          1           0        0.572144   -0.446853    0.857107
     74          1           0       -0.554922   -1.444936    1.755889
     75          1           0       -1.264913   -1.867595   -2.485347
     76          1           0       -2.613999   -2.851163   -2.271258
     77          1           0       -0.053213   -3.594413   -2.418374
     78          1           0       -1.403888   -4.643222   -1.750945
     79          1           0       -1.085000    5.513866    0.186445
     80          1           0       -1.383477    5.279260   -1.518128
     81          1           0       -0.575496    4.036160   -0.454694
     82          1           0       -2.517585    7.055437   -1.283582
     83          1           0       -2.397553    7.394705    0.484400
     84          1           0       -3.428435    8.463182   -0.502741
     85          1           0       -9.176569    4.643642    0.408292
     86          1           0      -10.051257    2.192456    1.627687
     87          1           0       -7.697519    3.968302    3.041619
     88          1           0       -9.323895    3.704167    3.140193
     89          1           0       -8.742328    5.311114    2.553757
     90          1           0      -10.690187    3.677652   -0.741801
     91          1           0      -11.561192    2.265246   -0.018259
     92          1           0      -10.366760    0.785461   -1.625501
     93          1           0       -9.317666    2.142207   -2.044705
     94          1           0      -11.000198    2.056179   -2.583071
     95          1           0       -9.396076   -3.747677    1.243307
     96          1           0       -9.660531   -3.641051   -0.471086
     97          1           0      -10.260362   -2.318474    0.572642
     98          1           0       -4.378627   -3.961711   -1.457238
     99          1           0       -2.216229   -6.221417    1.203857
    100          1           0       -2.348665   -7.294774    0.028241
    101          1           0       -3.684772   -7.343467    1.114535
    102          1           0        2.632527   -4.425664    0.783553
    103          1           0        1.538759   -3.418672    1.752923
    104          1           0        2.928592   -1.508865    0.077123
    105          1           0        5.326315   -2.586356    3.308741
    106          1           0        5.931385   -3.514172    2.006999
    107          1           0        4.362369   -3.963590    2.713513
    108          1           0        6.227390   -0.996937    1.482057
    109          1           0        4.816557   -0.036080    1.163430
    110          1           0        5.731472   -0.085789   -0.909538
    111          1           0        5.039355   -1.748320   -1.086228
    112          1           0        7.182360   -2.443141   -1.357891
    113          1           0        7.520422   -2.085111    0.253684
    114          1           0        7.770682    0.463467   -1.250024
    115          1           0        8.454313    0.298270   -3.318093
    116          1           0        7.482649   -1.217137   -3.253675
    117          1           0        9.285377   -1.151497   -2.969469
    118          1           0        9.888857   -1.640195   -0.468913
    119          1           0        9.133138   -0.421883    0.506452
    120          1           0       10.707380    0.996397    0.219699
    121          1           0       10.159103    1.236738   -1.439612
    122          1           0       11.557165   -0.263423   -2.493607
    123          1           0       11.856159   -1.170433   -1.037123
    124          1           0       12.744908    1.607404   -0.677260
    125          1           0       13.689594    1.712828   -2.562144
    126          1           0       13.980144   -0.060074   -2.762518
    127          1           0       15.024063    0.904721   -1.764917
    128          1           0       14.415915   -0.827382   -0.049268
    129          1           0       12.855811   -0.726820    0.691863
    130          1           0       14.067719    0.329902    2.328539
    131          1           0       13.568199    1.829025    1.550422
    132          1           0       16.189727    0.735864    0.533408
    133          1           0       15.930517    0.652942    2.336967
    134          1           0       15.388304    3.252203    1.955619
    135          1           0       17.473186    3.162999    2.906502
    136          1           0       18.112052    3.438728    1.301793
    137          1           0       17.978841    1.760308    2.011026
    138          1           0       16.631968    4.175015   -0.130624
    139          1           0       14.962000    3.601390   -0.236406
    140          1           0       16.262869    2.652923   -0.850216
 ---------------------------------------------------------------------

 SCF Done:  E(RZINDO/S) =  -474.697065363     A.U. after   19 cycles

 Excitation energies and oscillator strengths:

 Excited State   1:      Singlet-A      1.2749 eV  972.46 nm  f=0.5941  <S**2>=0.000
     175 ->178         0.19764
     176 ->177         0.66023
 This state for optimization and/or second-order correction.
 Total Energy, E(CIS/TDA) =  -474.650211891
 Copying the excited state density for this state as the 1-particle RhoCI density.

 Excited State   2:      Singlet-A      1.9389 eV  639.45 nm  f=0.0760  <S**2>=0.000
     175 ->177         0.57644
     176 ->178        -0.38387

 Excited State   3:      Singlet-A      2.9012 eV  427.36 nm  f=0.0044  <S**2>=0.000
     168 ->179         0.16388
     170 ->177         0.33467
     170 ->179        -0.38999
     170 ->180         0.20692
     170 ->186        -0.15280
     170 ->187         0.11254
     174 ->177        -0.12656

 Excited State   4:      Singlet-A      2.9353 eV  422.39 nm  f=0.0035  <S**2>=0.000
     168 ->177         0.20056
     168 ->178         0.13199
     168 ->179         0.18834
     168 ->180         0.31061
     168 ->186         0.11897
     169 ->177         0.19088
     169 ->178         0.13019
     169 ->179         0.20772
     169 ->180         0.30474
     169 ->186         0.12485

 Excited State   5:      Singlet-A      3.0113 eV  411.73 nm  f=0.9012  <S**2>=0.000
     174 ->177        -0.22302
     175 ->177         0.33651
     176 ->178         0.53920

 The electronic state is 1-A.
 Alpha  occ. eigenvalues --   -1.87233  -1.84905  -1.81451  -1.74678  -1.74094
 Alpha  occ. eigenvalues --   -1.71477  -1.65989  -1.61811  -1.59262  -1.57289
 Alpha  occ. eigenvalues --   -1.55127  -1.50820  -1.49117  -1.48217  -1.45689
 Alpha  occ. eigenvalues --   -1.45222  -1.44359  -1.40275  -1.39242  -1.37472
 Alpha  occ. eigenvalues --   -1.37049  -1.35160  -1.33384  -1.32820  -1.29001
 Alpha  occ. eigenvalues --   -1.27818  -1.25919  -1.22162  -1.20199  -1.18747
 Alpha  occ. eigenvalues --   -1.18409  -1.16281  -1.15617  -1.15009  -1.13904
 Alpha  occ. eigenvalues --   -1.12712  -1.11504  -1.10133  -1.05810  -1.03218
 Alpha  occ. eigenvalues --   -1.02247  -1.02148  -0.98863  -0.98290  -0.97131
 Alpha  occ. eigenvalues --   -0.96279  -0.94804  -0.93853  -0.93503  -0.93310
 Alpha  occ. eigenvalues --   -0.90741  -0.90253  -0.88806  -0.88641  -0.85666
 Alpha  occ. eigenvalues --   -0.84977  -0.84528  -0.84417  -0.81596  -0.80305
 Alpha  occ. eigenvalues --   -0.78662  -0.77827  -0.77284  -0.76634  -0.76578
 Alpha  occ. eigenvalues --   -0.75559  -0.75015  -0.74458  -0.74374  -0.73630
 Alpha  occ. eigenvalues --   -0.72660  -0.72585  -0.72265  -0.71513  -0.70970
 Alpha  occ. eigenvalues --   -0.70627  -0.69250  -0.69022  -0.68076  -0.67940
 Alpha  occ. eigenvalues --   -0.67634  -0.67397  -0.66784  -0.66659  -0.65810
 Alpha  occ. eigenvalues --   -0.65203  -0.64528  -0.64363  -0.63849  -0.63513
 Alpha  occ. eigenvalues --   -0.62738  -0.62593  -0.62055  -0.61912  -0.61853
 Alpha  occ. eigenvalues --   -0.61328  -0.61165  -0.60345  -0.60122  -0.59974
 Alpha  occ. eigenvalues --   -0.59532  -0.59388  -0.58847  -0.58546  -0.58221
 Alpha  occ. eigenvalues --   -0.57903  -0.57576  -0.57338  -0.57064  -0.56836
 Alpha  occ. eigenvalues --   -0.56094  -0.55927  -0.55703  -0.55059  -0.54843
 Alpha  occ. eigenvalues --   -0.54527  -0.53626  -0.53311  -0.52950  -0.52936
 Alpha  occ. eigenvalues --   -0.52679  -0.51993  -0.51795  -0.51631  -0.51344
 Alpha  occ. eigenvalues --   -0.50936  -0.50817  -0.50637  -0.50334  -0.50047
 Alpha  occ. eigenvalues --   -0.49658  -0.49427  -0.49408  -0.49023  -0.48954
 Alpha  occ. eigenvalues --   -0.48907  -0.48719  -0.48276  -0.48049  -0.47838
 Alpha  occ. eigenvalues --   -0.47096  -0.47007  -0.46767  -0.46668  -0.46550
 Alpha  occ. eigenvalues --   -0.45880  -0.45768  -0.45429  -0.45305  -0.45044
 Alpha  occ. eigenvalues --   -0.44376  -0.44338  -0.44037  -0.43996  -0.43389
 Alpha  occ. eigenvalues --   -0.43146  -0.43092  -0.42940  -0.42372  -0.42104
 Alpha  occ. eigenvalues --   -0.41831  -0.41074  -0.40419  -0.38898  -0.38719
 Alpha  occ. eigenvalues --   -0.37750  -0.36782  -0.35146  -0.34936  -0.34391
 Alpha  occ. eigenvalues --   -0.33360  -0.32416  -0.32323  -0.32153  -0.26114
 Alpha  occ. eigenvalues --   -0.21880
 Alpha virt. eigenvalues --   -0.08283  -0.01763  -0.00463   0.01278   0.02444
 Alpha virt. eigenvalues --    0.02879   0.03279   0.03742   0.04791   0.05172
 Alpha virt. eigenvalues --    0.06614   0.07294   0.07839   0.08010   0.08448

 Mulliken charges:
               1
     1  Mg   0.414173
     2  C   -0.069802
     3  C   -0.102262
     4  C   -0.040930
     5  C   -0.036661
     6  N   -0.288757
     7  C    0.137416
     8  C   -0.000334
     9  C    0.011286
    10  C    0.126358
    11  C   -0.049714
    12  C   -0.021974
    13  C    0.011826
    14  C    0.459897
    15  O   -0.497604
    16  O   -0.297445
    17  N   -0.297039
    18  C    0.121123
    19  C   -0.007406
    20  C   -0.033505
    21  C    0.114387
    22  C   -0.045281
    23  C    0.325313
    24  O   -0.542880
    25  C   -0.028793
    26  N   -0.231790
    27  C    0.108344
    28  C    0.004767
    29  C   -0.007106
    30  C    0.116253
    31  C   -0.048260
    32  C   -0.025977
    33  C   -0.053615
    34  N   -0.349989
    35  C    0.064168
    36  C    0.067960
    37  C   -0.057948
    38  C    0.149506
    39  C   -0.034937
    40  C    0.317724
    41  O   -0.538950
    42  C    0.070254
    43  C    0.501443
    44  O   -0.521902
    45  O   -0.249220
    46  C    0.061926
    47  C    0.110517
    48  C   -0.083891
    49  C   -0.015112
    50  C   -0.044679
    51  C   -0.024912
    52  C   -0.027997
    53  C   -0.031888
    54  C   -0.006155
    55  C   -0.059862
    56  C   -0.043569
    57  C   -0.043659
    58  C   -0.042685
    59  C   -0.012849
    60  C   -0.048902
    61  C   -0.034068
    62  C   -0.043944
    63  C   -0.036136
    64  C   -0.017760
    65  C   -0.060724
    66  C   -0.057060
    67  H    0.020344
    68  H    0.054319
    69  H    0.034972
    70  H    0.051761
    71  H    0.027696
    72  H    0.024646
    73  H    0.014143
    74  H    0.024669
    75  H    0.022242
    76  H    0.018367
    77  H    0.035635
    78  H    0.044182
    79  H    0.018515
    80  H    0.030746
    81  H    0.032678
    82  H    0.039741
    83  H    0.044244
    84  H    0.042495
    85  H    0.033648
    86  H    0.021345
    87  H    0.026974
    88  H    0.018787
    89  H    0.023570
    90  H    0.023000
    91  H    0.020494
    92  H    0.019050
    93  H    0.021481
    94  H    0.016886
    95  H    0.042501
    96  H    0.037674
    97  H    0.018763
    98  H    0.048756
    99  H    0.054402
   100  H    0.028170
   101  H    0.042505
   102  H    0.049175
   103  H    0.062271
   104  H    0.030378
   105  H    0.029395
   106  H    0.023561
   107  H    0.025819
   108  H    0.015531
   109  H    0.025647
   110  H    0.015587
   111  H    0.027867
   112  H    0.006473
   113  H    0.026507
   114  H    0.020043
   115  H    0.018651
   116  H    0.022364
   117  H    0.017478
   118  H    0.030520
   119  H   -0.001639
   120  H    0.028474
   121  H    0.016516
   122  H    0.025476
   123  H    0.014827
   124  H    0.016339
   125  H    0.013118
   126  H    0.016819
   127  H    0.013116
   128  H    0.026941
   129  H    0.010567
   130  H    0.008018
   131  H    0.037441
   132  H    0.028943
   133  H    0.020183
   134  H    0.020042
   135  H    0.011046
   136  H    0.022354
   137  H    0.022647
   138  H    0.017935
   139  H    0.009868
   140  H    0.015598
 Sum of Mulliken charges =  -0.00000

 Dipole moment (field-independent basis, Debye):
    X=              6.3469    Y=              3.3457    Z=             -2.9599  Tot=              7.7613
 N-N= 4.294955088398D+03 E-N= 0.000000000000D+00  KE=-9.264826535102D+03
 Leave Link  601 at Wed May  4 08:55:09 2022, MaxMem=  6710886400 cpu:               0.8 elap:               0.0
 (Enter /sw/apps/gaussian-16.0/g16/l9999.exe)
 1\1\GINC-BP1-COMPUTE098\SP\RZINDO CIS\STO-3G\C55H74Mg1N4O6\OF15641\04-
 May-2022\0\\#p ZINDO=(nstates=5)\\step_1501_chromophore_6 ZINDO\\0,1\M
 g,0,17.471,-2.981,27.808\C,0,16.308,-0.962,30.368\C,0,19.393,-4.648,29
 .954\C,0,18.723,-4.775,25.168\C,0,16.012,-0.679,25.535\N,0,17.866,-2.7
 44,29.891\C,0,17.189,-1.984,30.753\C,0,17.678,-2.218,32.217\C,0,18.83,
 -3.247,32.045\C,0,18.781,-3.547,30.518\C,0,20.218,-2.811,32.512\C,0,16
 .51,-2.711,33.174\C,0,16.521,-2.126,34.551\C,0,17.848,-1.502,35.125\O,

 Normal termination of Gaussian 16 at Wed May  4 08:55:09 2022.
