 Gaussian 16, Revision A.03,
 Gaussian 16:  ES64L-G16RevA.03 25-Dec-2016

 ------------------------------
 #p blyp/Def2SVP td=(nstates=5)
 ------------------------------

 ---------------------------------------------------
 step_1151_chromophore_11 TDDFT with blyp functional
 ---------------------------------------------------
 Symbolic Z-matrix:
 Charge =  0 Multiplicity = 1

                         Standard orientation:
 ---------------------------------------------------------------------
 Center     Atomic      Atomic             Coordinates (Angstroms)
 Number     Number       Type             X           Y           Z
 ---------------------------------------------------------------------
      1         12           0       -4.861849    1.343533    0.655694
      2          6           0       -5.567927   -2.056556   -0.064317
      3          6           0       -2.521501    0.243281    2.984107
      4          6           0       -3.428312    4.388147    0.650614
      5          6           0       -6.998134    2.321741   -1.882159
      6          7           0       -4.092876   -0.641730    1.308621
      7          6           0       -4.574817   -1.877671    0.896684
      8          6           0       -4.060053   -2.938743    1.862591
      9          6           0       -3.433511   -2.087015    3.081181
     10          6           0       -3.368476   -0.751606    2.449707
     11          6           0       -4.153861   -2.165855    4.462637
     12          6           0       -3.108395   -4.017560    1.348534
     13          6           0       -1.905376   -3.647339    0.451421
     14          6           0       -0.458189   -4.056711    0.921956
     15          8           0       -0.097126   -3.994408    2.079860
     16          8           0        0.297139   -4.606261   -0.069943
     17          7           0       -3.264848    2.244178    1.733300
     18          6           0       -2.430017    1.592035    2.651376
     19          6           0       -1.541660    2.537272    3.249246
     20          6           0       -1.724465    3.755576    2.512681
     21          6           0       -2.769464    3.502949    1.544227
     22          6           0       -0.691304    2.112661    4.369883
     23          6           0       -0.864661    4.990049    2.642597
     24          8           0       -0.008910    5.092953    3.519523
     25          6           0       -1.005402    6.167971    1.791604
     26          7           0       -5.130808    3.075749   -0.450640
     27          6           0       -4.519533    4.299159   -0.222134
     28          6           0       -5.184212    5.406684   -1.040786
     29          6           0       -6.067366    4.663610   -1.984444
     30          6           0       -6.104006    3.257336   -1.393169
     31          6           0       -5.829216    6.556741   -0.223671
     32          6           0       -5.643826    4.798302   -3.465243
     33          6           0       -6.625861    5.569037   -4.321718
     34          7           0       -6.120611    0.400679   -0.650349
     35          6           0       -6.939164    0.928416   -1.620314
     36          6           0       -7.690586   -0.170836   -2.256682
     37          6           0       -7.152880   -1.338121   -1.658839
     38          6           0       -6.264201   -0.946128   -0.693185
     39          6           0       -8.824017   -0.013459   -3.305928
     40          6           0       -7.238754   -2.741734   -1.735199
     41          8           0       -7.925359   -3.570291   -2.387944
     42          6           0       -6.279139   -3.263041   -0.625392
     43          6           0       -5.291461   -4.232875   -1.292793
     44          8           0       -4.591930   -3.919693   -2.230451
     45          8           0       -5.378640   -5.462044   -0.775685
     46          6           0       -4.668643   -6.587429   -1.304011
     47          6           0        1.559183   -5.160081    0.358586
     48          6           0        2.518108   -4.112143   -0.096902
     49          6           0        3.688572   -3.769710    0.507674
     50          6           0        4.161265   -4.261802    1.916246
     51          6           0        4.455824   -2.591950    0.084572
     52          6           0        5.065052   -2.492428   -1.351630
     53          6           0        6.457204   -1.801745   -1.437565
     54          6           0        6.270204   -0.266619   -1.424529
     55          6           0        6.383447    0.357559   -2.851243
     56          6           0        7.218792    0.307346   -0.241468
     57          6           0        8.735724    0.255455   -0.602800
     58          6           0        9.654109    0.010876    0.574200
     59          6           0       10.950176    0.864148    0.619757
     60          6           0       10.675210    2.399409    1.135110
     61          6           0       11.699265    0.921401   -0.769515
     62          6           0       13.175558    1.343088   -0.573072
     63          6           0       14.192269    0.701427   -1.568924
     64          6           0       15.682066    0.657229   -1.109236
     65          6           0       16.183836    2.074835   -0.632937
     66          6           0       16.616636    0.114133   -2.234869
     67          1           0       -1.891591   -0.118167    3.800278
     68          1           0       -2.985411    5.385437    0.623971
     69          1           0       -7.653881    2.659375   -2.687634
     70          1           0       -4.924616   -3.451586    2.284843
     71          1           0       -2.445481   -2.479991    3.322033
     72          1           0       -5.119387   -2.673265    4.458619
     73          1           0       -4.365863   -1.179574    4.875479
     74          1           0       -3.462194   -2.674168    5.134652
     75          1           0       -3.768496   -4.693903    0.805143
     76          1           0       -2.675296   -4.542880    2.200489
     77          1           0       -1.932090   -2.557905    0.471348
     78          1           0       -1.968808   -3.903347   -0.605791
     79          1           0        0.073651    1.460759    3.947609
     80          1           0       -1.482834    1.872782    5.080403
     81          1           0       -0.099818    2.881563    4.867219
     82          1           0       -0.160570    6.828900    1.987066
     83          1           0       -1.926231    6.742210    1.886106
     84          1           0       -0.877379    5.843772    0.759230
     85          1           0       -4.390991    5.903667   -1.598507
     86          1           0       -7.072519    5.081368   -1.920424
     87          1           0       -5.750196    6.492157    0.862179
     88          1           0       -6.859276    6.854468   -0.419190
     89          1           0       -5.215440    7.447704   -0.353187
     90          1           0       -5.360259    3.797253   -3.790259
     91          1           0       -4.672914    5.292853   -3.492267
     92          1           0       -6.014720    6.198749   -4.967844
     93          1           0       -7.351448    6.162438   -3.764430
     94          1           0       -7.147637    4.830144   -4.929783
     95          1           0       -9.228305    0.941224   -2.968675
     96          1           0       -9.649692   -0.720876   -3.223617
     97          1           0       -8.657501    0.057802   -4.380770
     98          1           0       -6.914858   -3.793574    0.084014
     99          1           0       -4.976388   -6.647860   -2.347553
    100          1           0       -5.104753   -7.470039   -0.835269
    101          1           0       -3.592542   -6.418510   -1.262760
    102          1           0        1.818269   -6.031598   -0.241865
    103          1           0        1.566268   -5.369696    1.428145
    104          1           0        2.183575   -3.656391   -1.028895
    105          1           0        5.195438   -4.599056    1.847627
    106          1           0        3.590954   -5.106292    2.302006
    107          1           0        4.111867   -3.437719    2.628522
    108          1           0        5.306708   -2.395211    0.737270
    109          1           0        3.827230   -1.718204    0.255521
    110          1           0        4.330948   -2.070037   -2.036783
    111          1           0        5.274085   -3.485752   -1.749925
    112          1           0        6.971550   -2.205402   -2.310336
    113          1           0        7.045799   -2.178233   -0.600881
    114          1           0        5.270886   -0.052266   -1.046824
    115          1           0        5.497106    0.938543   -3.104677
    116          1           0        6.455248   -0.442442   -3.587710
    117          1           0        7.323248    0.907721   -2.817822
    118          1           0        7.082226   -0.244142    0.689280
    119          1           0        6.908268    1.340653   -0.089823
    120          1           0        8.893765    1.268252   -0.975150
    121          1           0        8.826860   -0.489187   -1.393696
    122          1           0       10.041171   -1.007442    0.546014
    123          1           0        9.158506    0.227541    1.520585
    124          1           0       11.703745    0.481135    1.308149
    125          1           0        9.620343    2.459933    1.400670
    126          1           0       10.800524    3.087729    0.298492
    127          1           0       11.483558    2.679248    1.811176
    128          1           0       11.275369    1.616116   -1.495369
    129          1           0       11.687490   -0.030384   -1.301672
    130          1           0       13.446177    1.240793    0.478018
    131          1           0       13.321691    2.356100   -0.948093
    132          1           0       14.117057    1.338753   -2.450818
    133          1           0       13.796797   -0.279971   -1.828493
    134          1           0       15.884703   -0.071250   -0.323970
    135          1           0       17.245860    1.900586   -0.459177
    136          1           0       15.836606    2.503694    0.307325
    137          1           0       16.059119    2.814552   -1.424767
    138          1           0       16.016492   -0.644965   -2.736995
    139          1           0       17.364584   -0.386805   -1.619635
    140          1           0       17.045821    0.843224   -2.920968
 ---------------------------------------------------------------------

 SCF Done:  E(RB-LYP) =  -3007.38589281     A.U. after   22 cycles

 Excitation energies and oscillator strengths:

 Excited State   1:      Singlet-A      1.6730 eV  741.10 nm  f=0.0013  <S**2>=0.000
     244 -> 247        0.70473
 This state for optimization and/or second-order correction.
 Total Energy, E(TD-HF/TD-DFT) =  -3007.32441199
 Copying the excited state density for this state as the 1-particle RhoCI density.

 Excited State   2:      Singlet-A      1.7507 eV  708.18 nm  f=0.0348  <S**2>=0.000
     243 -> 247        0.59839
     245 -> 247        0.26364
     246 -> 247       -0.26132

 Excited State   3:      Singlet-A      1.8002 eV  688.72 nm  f=0.2658  <S**2>=0.000
     243 -> 247        0.24196
     245 -> 247        0.10541
     245 -> 248        0.17879
     246 -> 247        0.63971
     246 <- 247       -0.14492

 Excited State   4:      Singlet-A      2.0088 eV  617.19 nm  f=0.0769  <S**2>=0.000
     243 -> 247       -0.27676
     245 -> 247        0.58789
     246 -> 248       -0.24337

 Excited State   5:      Singlet-A      2.0679 eV  599.57 nm  f=0.0000  <S**2>=0.000
     242 -> 247        0.70708

 The electronic state is 1-A.
 Alpha  occ. eigenvalues --  -46.26878 -18.82278 -18.82202 -18.76832 -18.76149
 Alpha  occ. eigenvalues --  -18.75142 -18.74746 -14.03489 -14.03269 -14.01188
 Alpha  occ. eigenvalues --  -14.00820 -10.04237 -10.03748  -9.99179  -9.98965
 Alpha  occ. eigenvalues --   -9.98168  -9.97414  -9.97082  -9.96749  -9.96493
 Alpha  occ. eigenvalues --   -9.96308  -9.96162  -9.95866  -9.95040  -9.94637
 Alpha  occ. eigenvalues --   -9.94221  -9.94133  -9.94067  -9.93887  -9.93599
 Alpha  occ. eigenvalues --   -9.93541  -9.93463  -9.93247  -9.93223  -9.92897
 Alpha  occ. eigenvalues --   -9.92822  -9.92812  -9.92804  -9.92803  -9.92685
 Alpha  occ. eigenvalues --   -9.92682  -9.92627  -9.92576  -9.92519  -9.92360
 Alpha  occ. eigenvalues --   -9.92350  -9.92129  -9.92094  -9.91860  -9.91838
 Alpha  occ. eigenvalues --   -9.91511  -9.91185  -9.91161  -9.91148  -9.91055
 Alpha  occ. eigenvalues --   -9.91049  -9.90986  -9.90936  -9.90868  -9.90843
 Alpha  occ. eigenvalues --   -9.90833  -9.90803  -9.90767  -9.90713  -9.90695
 Alpha  occ. eigenvalues --   -9.90454  -2.91595  -1.72007  -1.71468  -1.71319
 Alpha  occ. eigenvalues --   -0.98946  -0.98762  -0.90886  -0.90463  -0.90421
 Alpha  occ. eigenvalues --   -0.88992  -0.86676  -0.85949  -0.85653  -0.84662
 Alpha  occ. eigenvalues --   -0.75749  -0.73405  -0.73052  -0.72314  -0.72256
 Alpha  occ. eigenvalues --   -0.72106  -0.71289  -0.71180  -0.70282  -0.70171
 Alpha  occ. eigenvalues --   -0.69207  -0.68795  -0.68109  -0.67956  -0.67227
 Alpha  occ. eigenvalues --   -0.66786  -0.66252  -0.65616  -0.65070  -0.64574
 Alpha  occ. eigenvalues --   -0.63366  -0.62584  -0.62436  -0.62098  -0.61160
 Alpha  occ. eigenvalues --   -0.60211  -0.59969  -0.59735  -0.59166  -0.58516
 Alpha  occ. eigenvalues --   -0.58267  -0.57545  -0.57058  -0.55599  -0.54930
 Alpha  occ. eigenvalues --   -0.54447  -0.54299  -0.52608  -0.51881  -0.51876
 Alpha  occ. eigenvalues --   -0.51376  -0.51061  -0.50587  -0.50450  -0.49467
 Alpha  occ. eigenvalues --   -0.49203  -0.48646  -0.48006  -0.47211  -0.46788
 Alpha  occ. eigenvalues --   -0.46574  -0.46079  -0.45726  -0.45129  -0.44901
 Alpha  occ. eigenvalues --   -0.44257  -0.44033  -0.43179  -0.43106  -0.42262
 Alpha  occ. eigenvalues --   -0.42070  -0.41965  -0.41608  -0.41250  -0.41172
 Alpha  occ. eigenvalues --   -0.40973  -0.40743  -0.40640  -0.40488  -0.40110
 Alpha  occ. eigenvalues --   -0.39955  -0.39854  -0.39664  -0.39263  -0.39161
 Alpha  occ. eigenvalues --   -0.38935  -0.38668  -0.38634  -0.38271  -0.38264
 Alpha  occ. eigenvalues --   -0.38067  -0.37923  -0.37894  -0.37668  -0.37098
 Alpha  occ. eigenvalues --   -0.36841  -0.36675  -0.36472  -0.36305  -0.36148
 Alpha  occ. eigenvalues --   -0.36130  -0.35839  -0.35742  -0.35459  -0.35347
 Alpha  occ. eigenvalues --   -0.35151  -0.34987  -0.34902  -0.34619  -0.34606
 Alpha  occ. eigenvalues --   -0.34563  -0.34380  -0.34340  -0.34271  -0.33841
 Alpha  occ. eigenvalues --   -0.33744  -0.33623  -0.33202  -0.33158  -0.33026
 Alpha  occ. eigenvalues --   -0.32883  -0.32860  -0.32596  -0.32436  -0.32109
 Alpha  occ. eigenvalues --   -0.31782  -0.31734  -0.31454  -0.31109  -0.31012
 Alpha  occ. eigenvalues --   -0.30863  -0.30669  -0.30453  -0.30448  -0.30340
 Alpha  occ. eigenvalues --   -0.30209  -0.30018  -0.29905  -0.29789  -0.29743
 Alpha  occ. eigenvalues --   -0.29638  -0.29228  -0.29111  -0.28968  -0.28930
 Alpha  occ. eigenvalues --   -0.28761  -0.28539  -0.28434  -0.27818  -0.27551
 Alpha  occ. eigenvalues --   -0.27002  -0.26841  -0.26636  -0.26527  -0.26449
 Alpha  occ. eigenvalues --   -0.26445  -0.26100  -0.25996  -0.25677  -0.25094
 Alpha  occ. eigenvalues --   -0.25040  -0.24718  -0.24033  -0.24008  -0.23862
 Alpha  occ. eigenvalues --   -0.23038  -0.22345  -0.22030  -0.21398  -0.20782
 Alpha  occ. eigenvalues --   -0.20081  -0.19534  -0.18370  -0.18018  -0.17534
 Alpha  occ. eigenvalues --   -0.16107
 Alpha virt. eigenvalues --   -0.11935  -0.07033  -0.06373  -0.04782  -0.03141
 Alpha virt. eigenvalues --   -0.02474  -0.01972  -0.01858  -0.01675  -0.00104
 Alpha virt. eigenvalues --    0.00833   0.01953   0.02481   0.02779   0.03409

 Mulliken charges:
               1
     1  Mg   0.704595
     2  C    0.019060
     3  C   -0.084210
     4  C   -0.044181
     5  C   -0.083280
     6  N   -0.207403
     7  C   -0.039259
     8  C   -0.003246
     9  C   -0.020633
    10  C    0.028808
    11  C    0.123038
    12  C    0.132851
    13  C    0.111424
    14  C    0.060845
    15  O   -0.192349
    16  O   -0.251884
    17  N   -0.294361
    18  C    0.146859
    19  C   -0.147162
    20  C    0.057545
    21  C    0.125122
    22  C    0.203863
    23  C   -0.110002
    24  O   -0.167956
    25  C    0.154039
    26  N   -0.252287
    27  C   -0.003130
    28  C    0.071124
    29  C    0.007969
    30  C    0.055274
    31  C    0.120341
    32  C    0.099889
    33  C    0.082804
    34  N   -0.275725
    35  C    0.102587
    36  C   -0.136579
    37  C    0.106708
    38  C    0.065101
    39  C    0.127797
    40  C   -0.050307
    41  O   -0.170913
    42  C    0.099597
    43  C    0.070532
    44  O   -0.172884
    45  O   -0.243581
    46  C    0.226659
    47  C    0.322532
    48  C   -0.142346
    49  C   -0.095487
    50  C    0.122104
    51  C    0.135127
    52  C    0.056317
    53  C    0.084491
    54  C   -0.076529
    55  C    0.130142
    56  C    0.058255
    57  C    0.046773
    58  C    0.150011
    59  C   -0.112146
    60  C    0.088776
    61  C    0.104368
    62  C    0.053081
    63  C    0.074270
    64  C   -0.071719
    65  C    0.079595
    66  C    0.096989
    67  H   -0.052333
    68  H   -0.102025
    69  H   -0.058056
    70  H   -0.032562
    71  H   -0.013670
    72  H   -0.008183
    73  H   -0.012828
    74  H   -0.000020
    75  H   -0.013979
    76  H   -0.017887
    77  H    0.006212
    78  H   -0.001214
    79  H    0.017666
    80  H    0.009526
    81  H   -0.013182
    82  H   -0.015393
    83  H    0.023927
    84  H   -0.002334
    85  H   -0.024677
    86  H   -0.035199
    87  H   -0.016738
    88  H   -0.003217
    89  H   -0.022050
    90  H   -0.021502
    91  H   -0.035225
    92  H   -0.006363
    93  H   -0.000277
    94  H    0.001304
    95  H   -0.012447
    96  H    0.001543
    97  H    0.013377
    98  H   -0.010545
    99  H    0.011840
   100  H    0.020010
   101  H    0.024470
   102  H    0.000642
   103  H    0.011026
   104  H   -0.027842
   105  H   -0.006300
   106  H   -0.021517
   107  H    0.012180
   108  H   -0.050233
   109  H   -0.009491
   110  H   -0.026108
   111  H   -0.045011
   112  H   -0.033811
   113  H   -0.034664
   114  H   -0.034780
   115  H   -0.008439
   116  H   -0.021012
   117  H   -0.008306
   118  H   -0.024545
   119  H   -0.035671
   120  H   -0.014560
   121  H   -0.017862
   122  H   -0.033309
   123  H   -0.030420
   124  H   -0.033786
   125  H   -0.008110
   126  H   -0.025272
   127  H   -0.003313
   128  H   -0.034363
   129  H   -0.044821
   130  H   -0.022217
   131  H   -0.028615
   132  H   -0.036989
   133  H   -0.035784
   134  H   -0.035468
   135  H   -0.026245
   136  H   -0.007452
   137  H   -0.012725
   138  H   -0.019153
   139  H   -0.017791
   140  H   -0.003534
 Sum of Mulliken charges =  -0.00000

 Dipole moment (field-independent basis, Debye):
    X=             -0.5537    Y=              1.7038    Z=              0.6395  Tot=              1.9023
 Quadrupole moment (field-independent basis, Debye-Ang):
   XX=           -400.6019   YY=           -380.1508   ZZ=           -413.9549
   XY=            -41.7000   XZ=            -18.3987   YZ=            -30.5551

 Normal termination of Gaussian 16 at Wed Apr 27 10:54:32 2022.
