 Gaussian 16, Revision A.03,
 Gaussian 16:  ES64L-G16RevA.03 25-Dec-2016

 -----------------------------------
 #p cam-b3lyp/Def2SVP td=(nstates=5)
 -----------------------------------

 --------------------------------------------------------
 step_1151_chromophore_11 TDDFT with cam-b3lyp functional
 --------------------------------------------------------
 Symbolic Z-matrix:
 Charge =  0 Multiplicity = 1

                         Standard orientation:
 ---------------------------------------------------------------------
 Center     Atomic      Atomic             Coordinates (Angstroms)
 Number     Number       Type             X           Y           Z
 ---------------------------------------------------------------------
      1         12           0       -4.861849    1.343533    0.655694
      2          6           0       -5.567927   -2.056556   -0.064317
      3          6           0       -2.521501    0.243281    2.984107
      4          6           0       -3.428312    4.388147    0.650614
      5          6           0       -6.998134    2.321741   -1.882159
      6          7           0       -4.092876   -0.641730    1.308621
      7          6           0       -4.574817   -1.877671    0.896684
      8          6           0       -4.060053   -2.938743    1.862591
      9          6           0       -3.433511   -2.087015    3.081181
     10          6           0       -3.368476   -0.751606    2.449707
     11          6           0       -4.153861   -2.165855    4.462637
     12          6           0       -3.108395   -4.017560    1.348534
     13          6           0       -1.905376   -3.647339    0.451421
     14          6           0       -0.458189   -4.056711    0.921956
     15          8           0       -0.097126   -3.994408    2.079860
     16          8           0        0.297139   -4.606261   -0.069943
     17          7           0       -3.264848    2.244178    1.733300
     18          6           0       -2.430017    1.592035    2.651376
     19          6           0       -1.541660    2.537272    3.249246
     20          6           0       -1.724465    3.755576    2.512681
     21          6           0       -2.769464    3.502949    1.544227
     22          6           0       -0.691304    2.112661    4.369883
     23          6           0       -0.864661    4.990049    2.642597
     24          8           0       -0.008910    5.092953    3.519523
     25          6           0       -1.005402    6.167971    1.791604
     26          7           0       -5.130808    3.075749   -0.450640
     27          6           0       -4.519533    4.299159   -0.222134
     28          6           0       -5.184212    5.406684   -1.040786
     29          6           0       -6.067366    4.663610   -1.984444
     30          6           0       -6.104006    3.257336   -1.393169
     31          6           0       -5.829216    6.556741   -0.223671
     32          6           0       -5.643826    4.798302   -3.465243
     33          6           0       -6.625861    5.569037   -4.321718
     34          7           0       -6.120611    0.400679   -0.650349
     35          6           0       -6.939164    0.928416   -1.620314
     36          6           0       -7.690586   -0.170836   -2.256682
     37          6           0       -7.152880   -1.338121   -1.658839
     38          6           0       -6.264201   -0.946128   -0.693185
     39          6           0       -8.824017   -0.013459   -3.305928
     40          6           0       -7.238754   -2.741734   -1.735199
     41          8           0       -7.925359   -3.570291   -2.387944
     42          6           0       -6.279139   -3.263041   -0.625392
     43          6           0       -5.291461   -4.232875   -1.292793
     44          8           0       -4.591930   -3.919693   -2.230451
     45          8           0       -5.378640   -5.462044   -0.775685
     46          6           0       -4.668643   -6.587429   -1.304011
     47          6           0        1.559183   -5.160081    0.358586
     48          6           0        2.518108   -4.112143   -0.096902
     49          6           0        3.688572   -3.769710    0.507674
     50          6           0        4.161265   -4.261802    1.916246
     51          6           0        4.455824   -2.591950    0.084572
     52          6           0        5.065052   -2.492428   -1.351630
     53          6           0        6.457204   -1.801745   -1.437565
     54          6           0        6.270204   -0.266619   -1.424529
     55          6           0        6.383447    0.357559   -2.851243
     56          6           0        7.218792    0.307346   -0.241468
     57          6           0        8.735724    0.255455   -0.602800
     58          6           0        9.654109    0.010876    0.574200
     59          6           0       10.950176    0.864148    0.619757
     60          6           0       10.675210    2.399409    1.135110
     61          6           0       11.699265    0.921401   -0.769515
     62          6           0       13.175558    1.343088   -0.573072
     63          6           0       14.192269    0.701427   -1.568924
     64          6           0       15.682066    0.657229   -1.109236
     65          6           0       16.183836    2.074835   -0.632937
     66          6           0       16.616636    0.114133   -2.234869
     67          1           0       -1.891591   -0.118167    3.800278
     68          1           0       -2.985411    5.385437    0.623971
     69          1           0       -7.653881    2.659375   -2.687634
     70          1           0       -4.924616   -3.451586    2.284843
     71          1           0       -2.445481   -2.479991    3.322033
     72          1           0       -5.119387   -2.673265    4.458619
     73          1           0       -4.365863   -1.179574    4.875479
     74          1           0       -3.462194   -2.674168    5.134652
     75          1           0       -3.768496   -4.693903    0.805143
     76          1           0       -2.675296   -4.542880    2.200489
     77          1           0       -1.932090   -2.557905    0.471348
     78          1           0       -1.968808   -3.903347   -0.605791
     79          1           0        0.073651    1.460759    3.947609
     80          1           0       -1.482834    1.872782    5.080403
     81          1           0       -0.099818    2.881563    4.867219
     82          1           0       -0.160570    6.828900    1.987066
     83          1           0       -1.926231    6.742210    1.886106
     84          1           0       -0.877379    5.843772    0.759230
     85          1           0       -4.390991    5.903667   -1.598507
     86          1           0       -7.072519    5.081368   -1.920424
     87          1           0       -5.750196    6.492157    0.862179
     88          1           0       -6.859276    6.854468   -0.419190
     89          1           0       -5.215440    7.447704   -0.353187
     90          1           0       -5.360259    3.797253   -3.790259
     91          1           0       -4.672914    5.292853   -3.492267
     92          1           0       -6.014720    6.198749   -4.967844
     93          1           0       -7.351448    6.162438   -3.764430
     94          1           0       -7.147637    4.830144   -4.929783
     95          1           0       -9.228305    0.941224   -2.968675
     96          1           0       -9.649692   -0.720876   -3.223617
     97          1           0       -8.657501    0.057802   -4.380770
     98          1           0       -6.914858   -3.793574    0.084014
     99          1           0       -4.976388   -6.647860   -2.347553
    100          1           0       -5.104753   -7.470039   -0.835269
    101          1           0       -3.592542   -6.418510   -1.262760
    102          1           0        1.818269   -6.031598   -0.241865
    103          1           0        1.566268   -5.369696    1.428145
    104          1           0        2.183575   -3.656391   -1.028895
    105          1           0        5.195438   -4.599056    1.847627
    106          1           0        3.590954   -5.106292    2.302006
    107          1           0        4.111867   -3.437719    2.628522
    108          1           0        5.306708   -2.395211    0.737270
    109          1           0        3.827230   -1.718204    0.255521
    110          1           0        4.330948   -2.070037   -2.036783
    111          1           0        5.274085   -3.485752   -1.749925
    112          1           0        6.971550   -2.205402   -2.310336
    113          1           0        7.045799   -2.178233   -0.600881
    114          1           0        5.270886   -0.052266   -1.046824
    115          1           0        5.497106    0.938543   -3.104677
    116          1           0        6.455248   -0.442442   -3.587710
    117          1           0        7.323248    0.907721   -2.817822
    118          1           0        7.082226   -0.244142    0.689280
    119          1           0        6.908268    1.340653   -0.089823
    120          1           0        8.893765    1.268252   -0.975150
    121          1           0        8.826860   -0.489187   -1.393696
    122          1           0       10.041171   -1.007442    0.546014
    123          1           0        9.158506    0.227541    1.520585
    124          1           0       11.703745    0.481135    1.308149
    125          1           0        9.620343    2.459933    1.400670
    126          1           0       10.800524    3.087729    0.298492
    127          1           0       11.483558    2.679248    1.811176
    128          1           0       11.275369    1.616116   -1.495369
    129          1           0       11.687490   -0.030384   -1.301672
    130          1           0       13.446177    1.240793    0.478018
    131          1           0       13.321691    2.356100   -0.948093
    132          1           0       14.117057    1.338753   -2.450818
    133          1           0       13.796797   -0.279971   -1.828493
    134          1           0       15.884703   -0.071250   -0.323970
    135          1           0       17.245860    1.900586   -0.459177
    136          1           0       15.836606    2.503694    0.307325
    137          1           0       16.059119    2.814552   -1.424767
    138          1           0       16.016492   -0.644965   -2.736995
    139          1           0       17.364584   -0.386805   -1.619635
    140          1           0       17.045821    0.843224   -2.920968
 ---------------------------------------------------------------------

 SCF Done:  E(RCAM-B3LYP) =  -3007.18282867     A.U. after   17 cycles

 Excitation energies and oscillator strengths:

 Excited State   1:      Singlet-A      1.7029 eV  728.07 nm  f=0.3698  <S**2>=0.000
     245 -> 248       -0.17190
     246 -> 247        0.68686
     245 <- 248       -0.10532
 This state for optimization and/or second-order correction.
 Total Energy, E(TD-HF/TD-DFT) =  -3007.12024733
 Copying the excited state density for this state as the 1-particle RhoCI density.

 Excited State   2:      Singlet-A      2.2130 eV  560.26 nm  f=0.1175  <S**2>=0.000
     245 -> 247        0.63992
     246 -> 248        0.28056

 Excited State   3:      Singlet-A      3.1666 eV  391.53 nm  f=0.0006  <S**2>=0.000
     242 -> 247        0.47551
     243 -> 247        0.49181
     246 -> 248       -0.11591

 Excited State   4:      Singlet-A      3.4193 eV  362.60 nm  f=0.0255  <S**2>=0.000
     241 -> 247        0.52684
     241 -> 249       -0.31757
     241 -> 251        0.20415
     242 -> 247       -0.12863
     246 -> 248       -0.13546

 Excited State   5:      Singlet-A      3.4545 eV  358.90 nm  f=0.0001  <S**2>=0.000
     240 -> 247        0.55124
     240 -> 248        0.11081
     240 -> 249        0.29225
     240 -> 251        0.24310
     243 -> 247        0.10694

 The electronic state is 1-A.
 Alpha  occ. eigenvalues --  -46.88426 -19.25084 -19.25045 -19.19799 -19.19114
 Alpha  occ. eigenvalues --  -19.18234 -19.18021 -14.42611 -14.42018 -14.39493
 Alpha  occ. eigenvalues --  -14.39404 -10.39530 -10.39028 -10.34580 -10.34092
 Alpha  occ. eigenvalues --  -10.32060 -10.31918 -10.31364 -10.31328 -10.31105
 Alpha  occ. eigenvalues --  -10.31061 -10.30437 -10.29830 -10.29709 -10.28687
 Alpha  occ. eigenvalues --  -10.28585 -10.28496 -10.28183 -10.28042 -10.27935
 Alpha  occ. eigenvalues --  -10.27879 -10.27583 -10.27426 -10.27310 -10.27226
 Alpha  occ. eigenvalues --  -10.26977 -10.26929 -10.26796 -10.26693 -10.26597
 Alpha  occ. eigenvalues --  -10.26581 -10.26523 -10.26205 -10.26138 -10.25995
 Alpha  occ. eigenvalues --  -10.25968 -10.25957 -10.25870 -10.25782 -10.25692
 Alpha  occ. eigenvalues --  -10.25650 -10.25080 -10.24860 -10.24834 -10.24820
 Alpha  occ. eigenvalues --  -10.24663 -10.24659 -10.24628 -10.24533 -10.24533
 Alpha  occ. eigenvalues --  -10.24529 -10.24522 -10.24421 -10.24393 -10.24391
 Alpha  occ. eigenvalues --  -10.24165  -3.17047  -1.91934  -1.91496  -1.91359
 Alpha  occ. eigenvalues --   -1.17418  -1.17205  -1.09556  -1.08359  -1.08342
 Alpha  occ. eigenvalues --   -1.07022  -1.04325  -1.03680  -1.03214  -1.02419
 Alpha  occ. eigenvalues --   -0.92762  -0.90084  -0.89909  -0.89214  -0.89096
 Alpha  occ. eigenvalues --   -0.88892  -0.87987  -0.87788  -0.87075  -0.86750
 Alpha  occ. eigenvalues --   -0.85685  -0.85118  -0.84252  -0.84091  -0.83405
 Alpha  occ. eigenvalues --   -0.82833  -0.82460  -0.81455  -0.81116  -0.80428
 Alpha  occ. eigenvalues --   -0.79132  -0.78261  -0.78103  -0.77797  -0.76594
 Alpha  occ. eigenvalues --   -0.75566  -0.75300  -0.75082  -0.74474  -0.73770
 Alpha  occ. eigenvalues --   -0.73316  -0.72492  -0.72022  -0.70486  -0.69441
 Alpha  occ. eigenvalues --   -0.69093  -0.68921  -0.67306  -0.66253  -0.65913
 Alpha  occ. eigenvalues --   -0.65754  -0.65138  -0.64816  -0.64361  -0.63289
 Alpha  occ. eigenvalues --   -0.62849  -0.62587  -0.61871  -0.60957  -0.60458
 Alpha  occ. eigenvalues --   -0.60182  -0.59550  -0.59254  -0.58716  -0.58351
 Alpha  occ. eigenvalues --   -0.57760  -0.57511  -0.56607  -0.56315  -0.55580
 Alpha  occ. eigenvalues --   -0.55214  -0.54963  -0.54837  -0.54261  -0.53946
 Alpha  occ. eigenvalues --   -0.53735  -0.53587  -0.53384  -0.53067  -0.52765
 Alpha  occ. eigenvalues --   -0.52716  -0.52396  -0.52299  -0.52003  -0.51690
 Alpha  occ. eigenvalues --   -0.51668  -0.51474  -0.51101  -0.50831  -0.50660
 Alpha  occ. eigenvalues --   -0.50472  -0.50418  -0.50239  -0.50016  -0.49327
 Alpha  occ. eigenvalues --   -0.49255  -0.49045  -0.48956  -0.48477  -0.48340
 Alpha  occ. eigenvalues --   -0.48316  -0.48226  -0.48015  -0.47859  -0.47638
 Alpha  occ. eigenvalues --   -0.47202  -0.47131  -0.46839  -0.46735  -0.46633
 Alpha  occ. eigenvalues --   -0.46457  -0.46379  -0.46169  -0.45910  -0.45863
 Alpha  occ. eigenvalues --   -0.45636  -0.45445  -0.45027  -0.44831  -0.44759
 Alpha  occ. eigenvalues --   -0.44722  -0.44490  -0.44271  -0.44056  -0.43561
 Alpha  occ. eigenvalues --   -0.43379  -0.43364  -0.42965  -0.42534  -0.42522
 Alpha  occ. eigenvalues --   -0.42245  -0.42032  -0.41980  -0.41886  -0.41712
 Alpha  occ. eigenvalues --   -0.41702  -0.41636  -0.41545  -0.41200  -0.41044
 Alpha  occ. eigenvalues --   -0.40888  -0.40805  -0.40604  -0.40211  -0.40095
 Alpha  occ. eigenvalues --   -0.40036  -0.39813  -0.39465  -0.38814  -0.38431
 Alpha  occ. eigenvalues --   -0.37913  -0.37790  -0.37731  -0.37391  -0.37376
 Alpha  occ. eigenvalues --   -0.37177  -0.36832  -0.36796  -0.36349  -0.36338
 Alpha  occ. eigenvalues --   -0.36134  -0.35536  -0.34882  -0.34441  -0.34098
 Alpha  occ. eigenvalues --   -0.34044  -0.33423  -0.33265  -0.31323  -0.30763
 Alpha  occ. eigenvalues --   -0.30355  -0.29800  -0.29679  -0.29079  -0.24450
 Alpha  occ. eigenvalues --   -0.21480
 Alpha virt. eigenvalues --   -0.09136  -0.01936   0.00146   0.01877   0.02157
 Alpha virt. eigenvalues --    0.04856   0.05472   0.05754   0.06277   0.06672
 Alpha virt. eigenvalues --    0.08081   0.08383   0.08833   0.08973   0.09468

 Mulliken charges:
               1
     1  Mg   0.836515
     2  C   -0.003600
     3  C   -0.093092
     4  C   -0.074793
     5  C   -0.087299
     6  N   -0.272347
     7  C   -0.006681
     8  C   -0.047720
     9  C   -0.078722
    10  C    0.046134
    11  C    0.066826
    12  C    0.079131
    13  C    0.042348
    14  C    0.146626
    15  O   -0.235561
    16  O   -0.318015
    17  N   -0.380260
    18  C    0.151152
    19  C   -0.141677
    20  C   -0.014891
    21  C    0.160468
    22  C    0.134218
    23  C   -0.024925
    24  O   -0.207695
    25  C    0.061688
    26  N   -0.328542
    27  C    0.027064
    28  C    0.014296
    29  C   -0.049530
    30  C    0.071491
    31  C    0.060419
    32  C    0.044182
    33  C    0.018501
    34  N   -0.365147
    35  C    0.101632
    36  C   -0.133533
    37  C    0.020698
    38  C    0.098926
    39  C    0.085697
    40  C    0.048062
    41  O   -0.212705
    42  C    0.026472
    43  C    0.156228
    44  O   -0.208837
    45  O   -0.308279
    46  C    0.184846
    47  C    0.279898
    48  C   -0.154133
    49  C   -0.122440
    50  C    0.062458
    51  C    0.074352
    52  C    0.005436
    53  C    0.027375
    54  C   -0.133222
    55  C    0.073226
    56  C    0.017675
    57  C   -0.014893
    58  C    0.095207
    59  C   -0.160585
    60  C    0.030379
    61  C    0.050618
    62  C    0.000373
    63  C    0.025062
    64  C   -0.130284
    65  C    0.019557
    66  C    0.038803
    67  H   -0.011627
    68  H   -0.066096
    69  H   -0.024571
    70  H    0.004258
    71  H    0.023557
    72  H    0.017614
    73  H    0.013042
    74  H    0.024127
    75  H    0.012878
    76  H    0.015672
    77  H    0.035672
    78  H    0.033779
    79  H    0.046888
    80  H    0.036736
    81  H    0.024112
    82  H    0.023442
    83  H    0.051574
    84  H    0.026896
    85  H    0.011709
    86  H    0.000791
    87  H    0.010472
    88  H    0.022580
    89  H    0.002393
    90  H    0.010846
    91  H   -0.006940
    92  H    0.017438
    93  H    0.021522
    94  H    0.024093
    95  H    0.007860
    96  H    0.027208
    97  H    0.036633
    98  H    0.034012
    99  H    0.036907
   100  H    0.043934
   101  H    0.044524
   102  H    0.029660
   103  H    0.042528
   104  H    0.007664
   105  H    0.017797
   106  H    0.002527
   107  H    0.035534
   108  H   -0.020212
   109  H    0.019090
   110  H    0.000068
   111  H   -0.013551
   112  H   -0.004368
   113  H   -0.006516
   114  H   -0.003058
   115  H    0.015930
   116  H    0.003913
   117  H    0.013520
   118  H    0.001036
   119  H   -0.007504
   120  H    0.010887
   121  H    0.008615
   122  H   -0.004014
   123  H   -0.001106
   124  H   -0.001430
   125  H    0.014154
   126  H   -0.001554
   127  H    0.020158
   128  H   -0.006539
   129  H   -0.016004
   130  H    0.002449
   131  H   -0.002128
   132  H   -0.009424
   133  H   -0.008810
   134  H   -0.004511
   135  H   -0.001513
   136  H    0.016746
   137  H    0.009783
   138  H    0.005646
   139  H    0.006189
   140  H    0.019779
 Sum of Mulliken charges =  -0.00000

 Dipole moment (field-independent basis, Debye):
    X=              0.0812    Y=              2.2506    Z=              1.3774  Tot=              2.6399
 Quadrupole moment (field-independent basis, Debye-Ang):
   XX=           -405.2487   YY=           -375.3174   ZZ=           -412.8661
   XY=            -43.1204   XZ=            -21.2962   YZ=            -30.9554

 Normal termination of Gaussian 16 at Wed Apr 27 09:55:48 2022.
