 Gaussian 16, Revision A.03,
 Gaussian 16:  ES64L-G16RevA.03 25-Dec-2016

 ---------------------------------
 #p PBE1PBE/Def2SVP td=(nstates=5)
 ---------------------------------

 ------------------------------------------------------
 step_1151_chromophore_11 TDDFT with PBE1PBE functional
 ------------------------------------------------------
 Symbolic Z-matrix:
 Charge =  0 Multiplicity = 1

                         Standard orientation:
 ---------------------------------------------------------------------
 Center     Atomic      Atomic             Coordinates (Angstroms)
 Number     Number       Type             X           Y           Z
 ---------------------------------------------------------------------
      1         12           0       -4.861849    1.343533    0.655694
      2          6           0       -5.567927   -2.056556   -0.064317
      3          6           0       -2.521501    0.243281    2.984107
      4          6           0       -3.428312    4.388147    0.650614
      5          6           0       -6.998134    2.321741   -1.882159
      6          7           0       -4.092876   -0.641730    1.308621
      7          6           0       -4.574817   -1.877671    0.896684
      8          6           0       -4.060053   -2.938743    1.862591
      9          6           0       -3.433511   -2.087015    3.081181
     10          6           0       -3.368476   -0.751606    2.449707
     11          6           0       -4.153861   -2.165855    4.462637
     12          6           0       -3.108395   -4.017560    1.348534
     13          6           0       -1.905376   -3.647339    0.451421
     14          6           0       -0.458189   -4.056711    0.921956
     15          8           0       -0.097126   -3.994408    2.079860
     16          8           0        0.297139   -4.606261   -0.069943
     17          7           0       -3.264848    2.244178    1.733300
     18          6           0       -2.430017    1.592035    2.651376
     19          6           0       -1.541660    2.537272    3.249246
     20          6           0       -1.724465    3.755576    2.512681
     21          6           0       -2.769464    3.502949    1.544227
     22          6           0       -0.691304    2.112661    4.369883
     23          6           0       -0.864661    4.990049    2.642597
     24          8           0       -0.008910    5.092953    3.519523
     25          6           0       -1.005402    6.167971    1.791604
     26          7           0       -5.130808    3.075749   -0.450640
     27          6           0       -4.519533    4.299159   -0.222134
     28          6           0       -5.184212    5.406684   -1.040786
     29          6           0       -6.067366    4.663610   -1.984444
     30          6           0       -6.104006    3.257336   -1.393169
     31          6           0       -5.829216    6.556741   -0.223671
     32          6           0       -5.643826    4.798302   -3.465243
     33          6           0       -6.625861    5.569037   -4.321718
     34          7           0       -6.120611    0.400679   -0.650349
     35          6           0       -6.939164    0.928416   -1.620314
     36          6           0       -7.690586   -0.170836   -2.256682
     37          6           0       -7.152880   -1.338121   -1.658839
     38          6           0       -6.264201   -0.946128   -0.693185
     39          6           0       -8.824017   -0.013459   -3.305928
     40          6           0       -7.238754   -2.741734   -1.735199
     41          8           0       -7.925359   -3.570291   -2.387944
     42          6           0       -6.279139   -3.263041   -0.625392
     43          6           0       -5.291461   -4.232875   -1.292793
     44          8           0       -4.591930   -3.919693   -2.230451
     45          8           0       -5.378640   -5.462044   -0.775685
     46          6           0       -4.668643   -6.587429   -1.304011
     47          6           0        1.559183   -5.160081    0.358586
     48          6           0        2.518108   -4.112143   -0.096902
     49          6           0        3.688572   -3.769710    0.507674
     50          6           0        4.161265   -4.261802    1.916246
     51          6           0        4.455824   -2.591950    0.084572
     52          6           0        5.065052   -2.492428   -1.351630
     53          6           0        6.457204   -1.801745   -1.437565
     54          6           0        6.270204   -0.266619   -1.424529
     55          6           0        6.383447    0.357559   -2.851243
     56          6           0        7.218792    0.307346   -0.241468
     57          6           0        8.735724    0.255455   -0.602800
     58          6           0        9.654109    0.010876    0.574200
     59          6           0       10.950176    0.864148    0.619757
     60          6           0       10.675210    2.399409    1.135110
     61          6           0       11.699265    0.921401   -0.769515
     62          6           0       13.175558    1.343088   -0.573072
     63          6           0       14.192269    0.701427   -1.568924
     64          6           0       15.682066    0.657229   -1.109236
     65          6           0       16.183836    2.074835   -0.632937
     66          6           0       16.616636    0.114133   -2.234869
     67          1           0       -1.891591   -0.118167    3.800278
     68          1           0       -2.985411    5.385437    0.623971
     69          1           0       -7.653881    2.659375   -2.687634
     70          1           0       -4.924616   -3.451586    2.284843
     71          1           0       -2.445481   -2.479991    3.322033
     72          1           0       -5.119387   -2.673265    4.458619
     73          1           0       -4.365863   -1.179574    4.875479
     74          1           0       -3.462194   -2.674168    5.134652
     75          1           0       -3.768496   -4.693903    0.805143
     76          1           0       -2.675296   -4.542880    2.200489
     77          1           0       -1.932090   -2.557905    0.471348
     78          1           0       -1.968808   -3.903347   -0.605791
     79          1           0        0.073651    1.460759    3.947609
     80          1           0       -1.482834    1.872782    5.080403
     81          1           0       -0.099818    2.881563    4.867219
     82          1           0       -0.160570    6.828900    1.987066
     83          1           0       -1.926231    6.742210    1.886106
     84          1           0       -0.877379    5.843772    0.759230
     85          1           0       -4.390991    5.903667   -1.598507
     86          1           0       -7.072519    5.081368   -1.920424
     87          1           0       -5.750196    6.492157    0.862179
     88          1           0       -6.859276    6.854468   -0.419190
     89          1           0       -5.215440    7.447704   -0.353187
     90          1           0       -5.360259    3.797253   -3.790259
     91          1           0       -4.672914    5.292853   -3.492267
     92          1           0       -6.014720    6.198749   -4.967844
     93          1           0       -7.351448    6.162438   -3.764430
     94          1           0       -7.147637    4.830144   -4.929783
     95          1           0       -9.228305    0.941224   -2.968675
     96          1           0       -9.649692   -0.720876   -3.223617
     97          1           0       -8.657501    0.057802   -4.380770
     98          1           0       -6.914858   -3.793574    0.084014
     99          1           0       -4.976388   -6.647860   -2.347553
    100          1           0       -5.104753   -7.470039   -0.835269
    101          1           0       -3.592542   -6.418510   -1.262760
    102          1           0        1.818269   -6.031598   -0.241865
    103          1           0        1.566268   -5.369696    1.428145
    104          1           0        2.183575   -3.656391   -1.028895
    105          1           0        5.195438   -4.599056    1.847627
    106          1           0        3.590954   -5.106292    2.302006
    107          1           0        4.111867   -3.437719    2.628522
    108          1           0        5.306708   -2.395211    0.737270
    109          1           0        3.827230   -1.718204    0.255521
    110          1           0        4.330948   -2.070037   -2.036783
    111          1           0        5.274085   -3.485752   -1.749925
    112          1           0        6.971550   -2.205402   -2.310336
    113          1           0        7.045799   -2.178233   -0.600881
    114          1           0        5.270886   -0.052266   -1.046824
    115          1           0        5.497106    0.938543   -3.104677
    116          1           0        6.455248   -0.442442   -3.587710
    117          1           0        7.323248    0.907721   -2.817822
    118          1           0        7.082226   -0.244142    0.689280
    119          1           0        6.908268    1.340653   -0.089823
    120          1           0        8.893765    1.268252   -0.975150
    121          1           0        8.826860   -0.489187   -1.393696
    122          1           0       10.041171   -1.007442    0.546014
    123          1           0        9.158506    0.227541    1.520585
    124          1           0       11.703745    0.481135    1.308149
    125          1           0        9.620343    2.459933    1.400670
    126          1           0       10.800524    3.087729    0.298492
    127          1           0       11.483558    2.679248    1.811176
    128          1           0       11.275369    1.616116   -1.495369
    129          1           0       11.687490   -0.030384   -1.301672
    130          1           0       13.446177    1.240793    0.478018
    131          1           0       13.321691    2.356100   -0.948093
    132          1           0       14.117057    1.338753   -2.450818
    133          1           0       13.796797   -0.279971   -1.828493
    134          1           0       15.884703   -0.071250   -0.323970
    135          1           0       17.245860    1.900586   -0.459177
    136          1           0       15.836606    2.503694    0.307325
    137          1           0       16.059119    2.814552   -1.424767
    138          1           0       16.016492   -0.644965   -2.736995
    139          1           0       17.364584   -0.386805   -1.619635
    140          1           0       17.045821    0.843224   -2.920968
 ---------------------------------------------------------------------

 SCF Done:  E(RPBE1PBE) =  -3005.37110262     A.U. after   15 cycles

 Excitation energies and oscillator strengths:

 Excited State   1:      Singlet-A      1.8392 eV  674.11 nm  f=0.3550  <S**2>=0.000
     245 -> 248        0.17034
     246 -> 247        0.69416
     246 <- 247       -0.11218
 This state for optimization and/or second-order correction.
 Total Energy, E(TD-HF/TD-DFT) =  -3005.30351264
 Copying the excited state density for this state as the 1-particle RhoCI density.

 Excited State   2:      Singlet-A      2.2122 eV  560.46 nm  f=0.1123  <S**2>=0.000
     245 -> 247        0.65149
     246 -> 248       -0.25724

 Excited State   3:      Singlet-A      2.8532 eV  434.54 nm  f=0.0047  <S**2>=0.000
     241 -> 247       -0.32035
     241 -> 249       -0.11761
     242 -> 247       -0.13997
     243 -> 247        0.58242

 Excited State   4:      Singlet-A      2.8734 eV  431.49 nm  f=0.0000  <S**2>=0.000
     241 -> 247       -0.28284
     242 -> 247        0.61161
     242 -> 249       -0.13072
     242 -> 250       -0.10567

 Excited State   5:      Singlet-A      2.8897 eV  429.06 nm  f=0.0017  <S**2>=0.000
     241 -> 247        0.50357
     242 -> 247        0.25585
     243 -> 247        0.37995

 The electronic state is 1-A.
 Alpha  occ. eigenvalues --  -46.91824 -19.25776 -19.25733 -19.20033 -19.19375
 Alpha  occ. eigenvalues --  -19.18497 -19.18247 -14.41991 -14.41645 -14.39220
 Alpha  occ. eigenvalues --  -14.39018 -10.36537 -10.36104 -10.31503 -10.31406
 Alpha  occ. eigenvalues --  -10.29439 -10.29289 -10.28938 -10.28761 -10.28744
 Alpha  occ. eigenvalues --  -10.28426 -10.28354 -10.27755 -10.27174 -10.26548
 Alpha  occ. eigenvalues --  -10.26284 -10.26155 -10.25946 -10.25945 -10.25748
 Alpha  occ. eigenvalues --  -10.25572 -10.25302 -10.24869 -10.24859 -10.24693
 Alpha  occ. eigenvalues --  -10.24689 -10.24576 -10.24420 -10.24404 -10.24315
 Alpha  occ. eigenvalues --  -10.24048 -10.23926 -10.23905 -10.23794 -10.23707
 Alpha  occ. eigenvalues --  -10.23629 -10.23354 -10.23349 -10.23171 -10.23149
 Alpha  occ. eigenvalues --  -10.22864 -10.22591 -10.22398 -10.22391 -10.22343
 Alpha  occ. eigenvalues --  -10.22322 -10.22191 -10.22179 -10.22062 -10.22022
 Alpha  occ. eigenvalues --  -10.22018 -10.21971 -10.21925 -10.21902 -10.21779
 Alpha  occ. eigenvalues --  -10.21684  -3.14021  -1.86849  -1.86389  -1.86257
 Alpha  occ. eigenvalues --   -1.12261  -1.12007  -1.04084  -1.03211  -1.03176
 Alpha  occ. eigenvalues --   -1.01927  -0.98999  -0.98240  -0.97921  -0.96935
 Alpha  occ. eigenvalues --   -0.87254  -0.84413  -0.83995  -0.83398  -0.83244
 Alpha  occ. eigenvalues --   -0.82990  -0.82121  -0.82047  -0.81242  -0.80826
 Alpha  occ. eigenvalues --   -0.80027  -0.79398  -0.78515  -0.78372  -0.77559
 Alpha  occ. eigenvalues --   -0.77067  -0.76576  -0.75826  -0.75356  -0.74620
 Alpha  occ. eigenvalues --   -0.73254  -0.72470  -0.72445  -0.72021  -0.70972
 Alpha  occ. eigenvalues --   -0.69905  -0.69417  -0.69147  -0.68570  -0.67908
 Alpha  occ. eigenvalues --   -0.67712  -0.66904  -0.66411  -0.64763  -0.63827
 Alpha  occ. eigenvalues --   -0.63548  -0.63164  -0.61641  -0.60470  -0.60376
 Alpha  occ. eigenvalues --   -0.59907  -0.59624  -0.59237  -0.58953  -0.57742
 Alpha  occ. eigenvalues --   -0.57451  -0.56728  -0.56070  -0.55166  -0.54975
 Alpha  occ. eigenvalues --   -0.54618  -0.54129  -0.53821  -0.53216  -0.52924
 Alpha  occ. eigenvalues --   -0.52241  -0.51861  -0.50958  -0.50856  -0.50136
 Alpha  occ. eigenvalues --   -0.49763  -0.49551  -0.49108  -0.48847  -0.48503
 Alpha  occ. eigenvalues --   -0.48054  -0.47909  -0.47823  -0.47722  -0.47358
 Alpha  occ. eigenvalues --   -0.47204  -0.47016  -0.46763  -0.46524  -0.46260
 Alpha  occ. eigenvalues --   -0.46106  -0.45957  -0.45635  -0.45415  -0.45190
 Alpha  occ. eigenvalues --   -0.45103  -0.44899  -0.44706  -0.44566  -0.43996
 Alpha  occ. eigenvalues --   -0.43777  -0.43603  -0.43523  -0.43062  -0.43037
 Alpha  occ. eigenvalues --   -0.42931  -0.42743  -0.42710  -0.42381  -0.42193
 Alpha  occ. eigenvalues --   -0.41891  -0.41742  -0.41445  -0.41377  -0.41270
 Alpha  occ. eigenvalues --   -0.41219  -0.41003  -0.40726  -0.40689  -0.40627
 Alpha  occ. eigenvalues --   -0.40329  -0.40027  -0.39843  -0.39631  -0.39549
 Alpha  occ. eigenvalues --   -0.39420  -0.39090  -0.39005  -0.38768  -0.38221
 Alpha  occ. eigenvalues --   -0.38197  -0.38122  -0.37772  -0.37289  -0.37225
 Alpha  occ. eigenvalues --   -0.37141  -0.36839  -0.36719  -0.36660  -0.36548
 Alpha  occ. eigenvalues --   -0.36482  -0.36339  -0.36287  -0.36065  -0.35871
 Alpha  occ. eigenvalues --   -0.35643  -0.35588  -0.35441  -0.35067  -0.34957
 Alpha  occ. eigenvalues --   -0.34785  -0.34535  -0.34234  -0.33759  -0.33243
 Alpha  occ. eigenvalues --   -0.32881  -0.32668  -0.32610  -0.32406  -0.32186
 Alpha  occ. eigenvalues --   -0.31993  -0.31853  -0.31659  -0.31339  -0.31176
 Alpha  occ. eigenvalues --   -0.31071  -0.30403  -0.30070  -0.29370  -0.29220
 Alpha  occ. eigenvalues --   -0.28881  -0.28594  -0.28345  -0.26922  -0.25673
 Alpha  occ. eigenvalues --   -0.25304  -0.25252  -0.25132  -0.24341  -0.21309
 Alpha  occ. eigenvalues --   -0.19077
 Alpha virt. eigenvalues --   -0.11580  -0.05422  -0.04089  -0.02239  -0.00854
 Alpha virt. eigenvalues --    0.00486   0.01093   0.01217   0.01555   0.02808
 Alpha virt. eigenvalues --    0.03923   0.04670   0.05266   0.05774   0.06268

 Mulliken charges:
               1
     1  Mg   0.984453
     2  C   -0.017299
     3  C   -0.074581
     4  C   -0.080388
     5  C   -0.074476
     6  N   -0.376937
     7  C    0.072263
     8  C   -0.115044
     9  C   -0.146978
    10  C    0.073929
    11  C    0.012639
    12  C    0.016713
    13  C   -0.034665
    14  C    0.217344
    15  O   -0.268049
    16  O   -0.350699
    17  N   -0.487812
    18  C    0.165037
    19  C   -0.166125
    20  C   -0.064829
    21  C    0.186310
    22  C    0.068914
    23  C    0.031411
    24  O   -0.244897
    25  C   -0.016775
    26  N   -0.430623
    27  C    0.063625
    28  C   -0.062791
    29  C   -0.125916
    30  C    0.104386
    31  C    0.006579
    32  C   -0.010861
    33  C   -0.056635
    34  N   -0.492933
    35  C    0.122160
    36  C   -0.133862
    37  C   -0.033742
    38  C    0.155686
    39  C    0.037532
    40  C    0.134181
    41  O   -0.256721
    42  C   -0.087443
    43  C    0.252585
    44  O   -0.244709
    45  O   -0.345017
    46  C    0.128897
    47  C    0.233577
    48  C   -0.162514
    49  C   -0.162368
    50  C   -0.005428
    51  C    0.014266
    52  C   -0.059437
    53  C   -0.029478
    54  C   -0.214117
    55  C    0.011916
    56  C   -0.039117
    57  C   -0.080669
    58  C    0.036492
    59  C   -0.244007
    60  C   -0.029065
    61  C    0.000478
    62  C   -0.061639
    63  C   -0.029164
    64  C   -0.223889
    65  C   -0.041311
    66  C   -0.022579
    67  H    0.017120
    68  H   -0.028555
    69  H    0.007199
    70  H    0.042744
    71  H    0.059575
    72  H    0.043441
    73  H    0.041041
    74  H    0.050156
    75  H    0.054870
    76  H    0.049052
    77  H    0.073253
    78  H    0.064740
    79  H    0.073314
    80  H    0.063698
    81  H    0.052096
    82  H    0.051446
    83  H    0.075968
    84  H    0.053961
    85  H    0.048658
    86  H    0.039517
    87  H    0.038029
    88  H    0.047992
    89  H    0.029386
    90  H    0.043386
    91  H    0.026685
    92  H    0.045668
    93  H    0.048077
    94  H    0.051575
    95  H    0.035752
    96  H    0.055746
    97  H    0.064102
    98  H    0.070572
    99  H    0.058762
   100  H    0.065666
   101  H    0.066024
   102  H    0.058102
   103  H    0.067357
   104  H    0.037480
   105  H    0.046461
   106  H    0.030004
   107  H    0.062832
   108  H    0.012398
   109  H    0.052027
   110  H    0.032969
   111  H    0.020666
   112  H    0.026916
   113  H    0.026696
   114  H    0.036443
   115  H    0.043114
   116  H    0.031137
   117  H    0.042091
   118  H    0.033955
   119  H    0.025861
   120  H    0.044103
   121  H    0.041277
   122  H    0.029864
   123  H    0.031426
   124  H    0.036536
   125  H    0.041537
   126  H    0.025953
   127  H    0.046875
   128  H    0.025081
   129  H    0.016485
   130  H    0.033135
   131  H    0.031678
   132  H    0.023875
   133  H    0.023064
   134  H    0.033286
   135  H    0.027277
   136  H    0.043591
   137  H    0.037204
   138  H    0.034253
   139  H    0.034278
   140  H    0.046214
 Sum of Mulliken charges =  -0.00000

 Dipole moment (field-independent basis, Debye):
    X=             -0.3701    Y=              2.1385    Z=              0.9631  Tot=              2.3743
 Quadrupole moment (field-independent basis, Debye-Ang):
   XX=           -397.4371   YY=           -372.0737   ZZ=           -409.4984
   XY=            -43.5228   XZ=            -19.0379   YZ=            -32.5119

 Normal termination of Gaussian 16 at Wed Apr 27 10:12:45 2022.
