 Gaussian 16, Revision A.03,
 Gaussian 16:  ES64L-G16RevA.03 25-Dec-2016

 --------------------------------
 #p wB97XD/Def2SVP td=(nstates=5)
 --------------------------------

 -----------------------------------------------------
 step_1151_chromophore_11 TDDFT with wB97XD functional
 -----------------------------------------------------
 Symbolic Z-matrix:
 Charge =  0 Multiplicity = 1

                         Standard orientation:
 ---------------------------------------------------------------------
 Center     Atomic      Atomic             Coordinates (Angstroms)
 Number     Number       Type             X           Y           Z
 ---------------------------------------------------------------------
      1         12           0       -4.861849    1.343533    0.655694
      2          6           0       -5.567927   -2.056556   -0.064317
      3          6           0       -2.521501    0.243281    2.984107
      4          6           0       -3.428312    4.388147    0.650614
      5          6           0       -6.998134    2.321741   -1.882159
      6          7           0       -4.092876   -0.641730    1.308621
      7          6           0       -4.574817   -1.877671    0.896684
      8          6           0       -4.060053   -2.938743    1.862591
      9          6           0       -3.433511   -2.087015    3.081181
     10          6           0       -3.368476   -0.751606    2.449707
     11          6           0       -4.153861   -2.165855    4.462637
     12          6           0       -3.108395   -4.017560    1.348534
     13          6           0       -1.905376   -3.647339    0.451421
     14          6           0       -0.458189   -4.056711    0.921956
     15          8           0       -0.097126   -3.994408    2.079860
     16          8           0        0.297139   -4.606261   -0.069943
     17          7           0       -3.264848    2.244178    1.733300
     18          6           0       -2.430017    1.592035    2.651376
     19          6           0       -1.541660    2.537272    3.249246
     20          6           0       -1.724465    3.755576    2.512681
     21          6           0       -2.769464    3.502949    1.544227
     22          6           0       -0.691304    2.112661    4.369883
     23          6           0       -0.864661    4.990049    2.642597
     24          8           0       -0.008910    5.092953    3.519523
     25          6           0       -1.005402    6.167971    1.791604
     26          7           0       -5.130808    3.075749   -0.450640
     27          6           0       -4.519533    4.299159   -0.222134
     28          6           0       -5.184212    5.406684   -1.040786
     29          6           0       -6.067366    4.663610   -1.984444
     30          6           0       -6.104006    3.257336   -1.393169
     31          6           0       -5.829216    6.556741   -0.223671
     32          6           0       -5.643826    4.798302   -3.465243
     33          6           0       -6.625861    5.569037   -4.321718
     34          7           0       -6.120611    0.400679   -0.650349
     35          6           0       -6.939164    0.928416   -1.620314
     36          6           0       -7.690586   -0.170836   -2.256682
     37          6           0       -7.152880   -1.338121   -1.658839
     38          6           0       -6.264201   -0.946128   -0.693185
     39          6           0       -8.824017   -0.013459   -3.305928
     40          6           0       -7.238754   -2.741734   -1.735199
     41          8           0       -7.925359   -3.570291   -2.387944
     42          6           0       -6.279139   -3.263041   -0.625392
     43          6           0       -5.291461   -4.232875   -1.292793
     44          8           0       -4.591930   -3.919693   -2.230451
     45          8           0       -5.378640   -5.462044   -0.775685
     46          6           0       -4.668643   -6.587429   -1.304011
     47          6           0        1.559183   -5.160081    0.358586
     48          6           0        2.518108   -4.112143   -0.096902
     49          6           0        3.688572   -3.769710    0.507674
     50          6           0        4.161265   -4.261802    1.916246
     51          6           0        4.455824   -2.591950    0.084572
     52          6           0        5.065052   -2.492428   -1.351630
     53          6           0        6.457204   -1.801745   -1.437565
     54          6           0        6.270204   -0.266619   -1.424529
     55          6           0        6.383447    0.357559   -2.851243
     56          6           0        7.218792    0.307346   -0.241468
     57          6           0        8.735724    0.255455   -0.602800
     58          6           0        9.654109    0.010876    0.574200
     59          6           0       10.950176    0.864148    0.619757
     60          6           0       10.675210    2.399409    1.135110
     61          6           0       11.699265    0.921401   -0.769515
     62          6           0       13.175558    1.343088   -0.573072
     63          6           0       14.192269    0.701427   -1.568924
     64          6           0       15.682066    0.657229   -1.109236
     65          6           0       16.183836    2.074835   -0.632937
     66          6           0       16.616636    0.114133   -2.234869
     67          1           0       -1.891591   -0.118167    3.800278
     68          1           0       -2.985411    5.385437    0.623971
     69          1           0       -7.653881    2.659375   -2.687634
     70          1           0       -4.924616   -3.451586    2.284843
     71          1           0       -2.445481   -2.479991    3.322033
     72          1           0       -5.119387   -2.673265    4.458619
     73          1           0       -4.365863   -1.179574    4.875479
     74          1           0       -3.462194   -2.674168    5.134652
     75          1           0       -3.768496   -4.693903    0.805143
     76          1           0       -2.675296   -4.542880    2.200489
     77          1           0       -1.932090   -2.557905    0.471348
     78          1           0       -1.968808   -3.903347   -0.605791
     79          1           0        0.073651    1.460759    3.947609
     80          1           0       -1.482834    1.872782    5.080403
     81          1           0       -0.099818    2.881563    4.867219
     82          1           0       -0.160570    6.828900    1.987066
     83          1           0       -1.926231    6.742210    1.886106
     84          1           0       -0.877379    5.843772    0.759230
     85          1           0       -4.390991    5.903667   -1.598507
     86          1           0       -7.072519    5.081368   -1.920424
     87          1           0       -5.750196    6.492157    0.862179
     88          1           0       -6.859276    6.854468   -0.419190
     89          1           0       -5.215440    7.447704   -0.353187
     90          1           0       -5.360259    3.797253   -3.790259
     91          1           0       -4.672914    5.292853   -3.492267
     92          1           0       -6.014720    6.198749   -4.967844
     93          1           0       -7.351448    6.162438   -3.764430
     94          1           0       -7.147637    4.830144   -4.929783
     95          1           0       -9.228305    0.941224   -2.968675
     96          1           0       -9.649692   -0.720876   -3.223617
     97          1           0       -8.657501    0.057802   -4.380770
     98          1           0       -6.914858   -3.793574    0.084014
     99          1           0       -4.976388   -6.647860   -2.347553
    100          1           0       -5.104753   -7.470039   -0.835269
    101          1           0       -3.592542   -6.418510   -1.262760
    102          1           0        1.818269   -6.031598   -0.241865
    103          1           0        1.566268   -5.369696    1.428145
    104          1           0        2.183575   -3.656391   -1.028895
    105          1           0        5.195438   -4.599056    1.847627
    106          1           0        3.590954   -5.106292    2.302006
    107          1           0        4.111867   -3.437719    2.628522
    108          1           0        5.306708   -2.395211    0.737270
    109          1           0        3.827230   -1.718204    0.255521
    110          1           0        4.330948   -2.070037   -2.036783
    111          1           0        5.274085   -3.485752   -1.749925
    112          1           0        6.971550   -2.205402   -2.310336
    113          1           0        7.045799   -2.178233   -0.600881
    114          1           0        5.270886   -0.052266   -1.046824
    115          1           0        5.497106    0.938543   -3.104677
    116          1           0        6.455248   -0.442442   -3.587710
    117          1           0        7.323248    0.907721   -2.817822
    118          1           0        7.082226   -0.244142    0.689280
    119          1           0        6.908268    1.340653   -0.089823
    120          1           0        8.893765    1.268252   -0.975150
    121          1           0        8.826860   -0.489187   -1.393696
    122          1           0       10.041171   -1.007442    0.546014
    123          1           0        9.158506    0.227541    1.520585
    124          1           0       11.703745    0.481135    1.308149
    125          1           0        9.620343    2.459933    1.400670
    126          1           0       10.800524    3.087729    0.298492
    127          1           0       11.483558    2.679248    1.811176
    128          1           0       11.275369    1.616116   -1.495369
    129          1           0       11.687490   -0.030384   -1.301672
    130          1           0       13.446177    1.240793    0.478018
    131          1           0       13.321691    2.356100   -0.948093
    132          1           0       14.117057    1.338753   -2.450818
    133          1           0       13.796797   -0.279971   -1.828493
    134          1           0       15.884703   -0.071250   -0.323970
    135          1           0       17.245860    1.900586   -0.459177
    136          1           0       15.836606    2.503694    0.307325
    137          1           0       16.059119    2.814552   -1.424767
    138          1           0       16.016492   -0.644965   -2.736995
    139          1           0       17.364584   -0.386805   -1.619635
    140          1           0       17.045821    0.843224   -2.920968
 ---------------------------------------------------------------------

 SCF Done:  E(RwB97XD) =  -3007.88126458     A.U. after   17 cycles

 Excitation energies and oscillator strengths:

 Excited State   1:      Singlet-A      1.6586 eV  747.52 nm  f=0.3690  <S**2>=0.000
     245 -> 248        0.17580
     246 -> 247        0.68466
     245 <- 248        0.11319
 This state for optimization and/or second-order correction.
 Total Energy, E(TD-HF/TD-DFT) =  -3007.82031196
 Copying the excited state density for this state as the 1-particle RhoCI density.

 Excited State   2:      Singlet-A      2.1594 eV  574.16 nm  f=0.1142  <S**2>=0.000
     245 -> 247        0.63732
     246 -> 248       -0.28239

 Excited State   3:      Singlet-A      3.1754 eV  390.45 nm  f=0.0003  <S**2>=0.000
     241 -> 247        0.12674
     242 -> 247        0.60059
     243 -> 247        0.28882
     246 -> 248        0.13066

 Excited State   4:      Singlet-A      3.4593 eV  358.41 nm  f=0.0001  <S**2>=0.000
     240 -> 247        0.54354
     240 -> 248       -0.11065
     240 -> 249       -0.32093
     240 -> 250       -0.25351

 Excited State   5:      Singlet-A      3.4686 eV  357.44 nm  f=0.0456  <S**2>=0.000
     241 -> 247        0.48340
     241 -> 249        0.32414
     241 -> 250       -0.21361
     242 -> 247       -0.15749
     242 -> 249       -0.10717
     246 -> 248        0.17849

 The electronic state is 1-A.
 Alpha  occ. eigenvalues --  -46.94779 -19.30330 -19.30251 -19.24719 -19.24026
 Alpha  occ. eigenvalues --  -19.23299 -19.23054 -14.47242 -14.46593 -14.44146
 Alpha  occ. eigenvalues --  -14.43966 -10.43331 -10.42868 -10.38572 -10.38071
 Alpha  occ. eigenvalues --  -10.36011 -10.35770 -10.35400 -10.35230 -10.35230
 Alpha  occ. eigenvalues --  -10.35061 -10.34382 -10.33960 -10.33650 -10.32905
 Alpha  occ. eigenvalues --  -10.32635 -10.32505 -10.32224 -10.32093 -10.32000
 Alpha  occ. eigenvalues --  -10.31901 -10.31659 -10.31589 -10.31420 -10.31126
 Alpha  occ. eigenvalues --  -10.30985 -10.30976 -10.30785 -10.30693 -10.30537
 Alpha  occ. eigenvalues --  -10.30470 -10.30418 -10.30098 -10.30086 -10.29994
 Alpha  occ. eigenvalues --  -10.29950 -10.29779 -10.29659 -10.29644 -10.29619
 Alpha  occ. eigenvalues --  -10.29585 -10.29001 -10.28787 -10.28778 -10.28742
 Alpha  occ. eigenvalues --  -10.28584 -10.28569 -10.28479 -10.28455 -10.28447
 Alpha  occ. eigenvalues --  -10.28374 -10.28357 -10.28351 -10.28340 -10.28207
 Alpha  occ. eigenvalues --  -10.28081  -3.20829  -1.94405  -1.93949  -1.93812
 Alpha  occ. eigenvalues --   -1.19590  -1.19385  -1.11805  -1.10528  -1.10520
 Alpha  occ. eigenvalues --   -1.09206  -1.06317  -1.05680  -1.05249  -1.04489
 Alpha  occ. eigenvalues --   -0.94723  -0.91943  -0.91698  -0.91187  -0.90918
 Alpha  occ. eigenvalues --   -0.90688  -0.89757  -0.89708  -0.89071  -0.88526
 Alpha  occ. eigenvalues --   -0.87622  -0.86995  -0.86113  -0.85970  -0.85255
 Alpha  occ. eigenvalues --   -0.84748  -0.84342  -0.83416  -0.83028  -0.82284
 Alpha  occ. eigenvalues --   -0.80950  -0.80251  -0.80000  -0.79694  -0.78521
 Alpha  occ. eigenvalues --   -0.77533  -0.77130  -0.76866  -0.76292  -0.75599
 Alpha  occ. eigenvalues --   -0.75252  -0.74446  -0.73993  -0.72428  -0.71328
 Alpha  occ. eigenvalues --   -0.71000  -0.70832  -0.69341  -0.68124  -0.67817
 Alpha  occ. eigenvalues --   -0.67591  -0.67116  -0.66823  -0.66356  -0.65235
 Alpha  occ. eigenvalues --   -0.64811  -0.64409  -0.63718  -0.62808  -0.62441
 Alpha  occ. eigenvalues --   -0.62097  -0.61531  -0.61240  -0.60679  -0.60325
 Alpha  occ. eigenvalues --   -0.59710  -0.59400  -0.58522  -0.58250  -0.57560
 Alpha  occ. eigenvalues --   -0.57139  -0.56925  -0.56661  -0.56230  -0.55891
 Alpha  occ. eigenvalues --   -0.55569  -0.55548  -0.55268  -0.55011  -0.54686
 Alpha  occ. eigenvalues --   -0.54628  -0.54300  -0.54199  -0.53889  -0.53659
 Alpha  occ. eigenvalues --   -0.53629  -0.53378  -0.52984  -0.52730  -0.52541
 Alpha  occ. eigenvalues --   -0.52370  -0.52288  -0.52102  -0.51918  -0.51230
 Alpha  occ. eigenvalues --   -0.51130  -0.51024  -0.50851  -0.50419  -0.50268
 Alpha  occ. eigenvalues --   -0.50225  -0.50102  -0.49939  -0.49719  -0.49615
 Alpha  occ. eigenvalues --   -0.49163  -0.49047  -0.48698  -0.48636  -0.48589
 Alpha  occ. eigenvalues --   -0.48354  -0.48257  -0.48021  -0.47824  -0.47744
 Alpha  occ. eigenvalues --   -0.47536  -0.47289  -0.46910  -0.46757  -0.46646
 Alpha  occ. eigenvalues --   -0.46606  -0.46332  -0.46158  -0.45943  -0.45395
 Alpha  occ. eigenvalues --   -0.45327  -0.45254  -0.44879  -0.44445  -0.44383
 Alpha  occ. eigenvalues --   -0.44184  -0.44019  -0.43840  -0.43813  -0.43721
 Alpha  occ. eigenvalues --   -0.43672  -0.43524  -0.43458  -0.43172  -0.42934
 Alpha  occ. eigenvalues --   -0.42746  -0.42716  -0.42497  -0.42130  -0.41949
 Alpha  occ. eigenvalues --   -0.41926  -0.41653  -0.41313  -0.40704  -0.40278
 Alpha  occ. eigenvalues --   -0.39853  -0.39677  -0.39626  -0.39369  -0.39228
 Alpha  occ. eigenvalues --   -0.39022  -0.38844  -0.38679  -0.38330  -0.38186
 Alpha  occ. eigenvalues --   -0.38099  -0.37380  -0.36870  -0.36273  -0.36068
 Alpha  occ. eigenvalues --   -0.35982  -0.35430  -0.35272  -0.33532  -0.32718
 Alpha  occ. eigenvalues --   -0.32305  -0.32002  -0.31818  -0.31106  -0.26378
 Alpha  occ. eigenvalues --   -0.23294
 Alpha virt. eigenvalues --   -0.07471  -0.00014   0.02213   0.04258   0.05021
 Alpha virt. eigenvalues --    0.07170   0.07799   0.08022   0.08455   0.09350
 Alpha virt. eigenvalues --    0.10814   0.11044   0.11930   0.12514   0.12924

 Mulliken charges:
               1
     1  Mg   0.973513
     2  C   -0.014623
     3  C   -0.095460
     4  C   -0.091774
     5  C   -0.093700
     6  N   -0.340035
     7  C    0.028695
     8  C   -0.086509
     9  C   -0.126988
    10  C    0.065212
    11  C    0.020592
    12  C    0.036946
    13  C   -0.016628
    14  C    0.206097
    15  O   -0.265624
    16  O   -0.350028
    17  N   -0.459249
    18  C    0.162323
    19  C   -0.153173
    20  C   -0.060679
    21  C    0.186943
    22  C    0.080883
    23  C    0.026454
    24  O   -0.238939
    25  C   -0.004408
    26  N   -0.402135
    27  C    0.054845
    28  C   -0.035440
    29  C   -0.097080
    30  C    0.092612
    31  C    0.014202
    32  C    0.000405
    33  C   -0.039517
    34  N   -0.454855
    35  C    0.113653
    36  C   -0.142633
    37  C   -0.026503
    38  C    0.133350
    39  C    0.049453
    40  C    0.119020
    41  O   -0.248945
    42  C   -0.045069
    43  C    0.222389
    44  O   -0.237335
    45  O   -0.340329
    46  C    0.142433
    47  C    0.250748
    48  C   -0.172719
    49  C   -0.152469
    50  C    0.011850
    51  C    0.032337
    52  C   -0.040039
    53  C   -0.015073
    54  C   -0.187204
    55  C    0.024115
    56  C   -0.018610
    57  C   -0.063267
    58  C    0.051462
    59  C   -0.212001
    60  C   -0.017900
    61  C    0.011719
    62  C   -0.042714
    63  C   -0.013272
    64  C   -0.195028
    65  C   -0.029594
    66  C   -0.011275
    67  H    0.013881
    68  H   -0.041959
    69  H    0.000903
    70  H    0.031687
    71  H    0.049839
    72  H    0.039356
    73  H    0.034408
    74  H    0.045969
    75  H    0.036903
    76  H    0.041058
    77  H    0.060406
    78  H    0.061647
    79  H    0.070393
    80  H    0.058370
    81  H    0.050530
    82  H    0.050954
    83  H    0.072884
    84  H    0.048254
    85  H    0.037417
    86  H    0.024648
    87  H    0.031910
    88  H    0.044277
    89  H    0.023752
    90  H    0.036179
    91  H    0.016826
    92  H    0.040031
    93  H    0.041586
    94  H    0.045673
    95  H    0.026466
    96  H    0.050522
    97  H    0.058696
    98  H    0.065423
    99  H    0.055069
   100  H    0.062996
   101  H    0.062018
   102  H    0.053897
   103  H    0.060950
   104  H    0.034979
   105  H    0.040200
   106  H    0.024391
   107  H    0.057137
   108  H    0.000210
   109  H    0.043719
   110  H    0.023948
   111  H    0.012307
   112  H    0.019535
   113  H    0.015123
   114  H    0.023077
   115  H    0.038877
   116  H    0.025038
   117  H    0.034234
   118  H    0.021982
   119  H    0.018177
   120  H    0.031291
   121  H    0.031294
   122  H    0.022288
   123  H    0.022060
   124  H    0.024679
   125  H    0.034923
   126  H    0.018606
   127  H    0.042196
   128  H    0.015891
   129  H    0.006342
   130  H    0.022221
   131  H    0.020741
   132  H    0.014426
   133  H    0.013110
   134  H    0.023384
   135  H    0.020407
   136  H    0.038440
   137  H    0.030180
   138  H    0.027957
   139  H    0.028043
   140  H    0.041335
 Sum of Mulliken charges =  -0.00000

 Dipole moment (field-independent basis, Debye):
    X=              0.1925    Y=              2.3651    Z=              1.5242  Tot=              2.8203
 Quadrupole moment (field-independent basis, Debye-Ang):
   XX=           -402.1488   YY=           -370.6436   ZZ=           -408.8854
   XY=            -43.3545   XZ=            -21.5562   YZ=            -31.3552

 Normal termination of Gaussian 16 at Wed Apr 27 10:42:30 2022.
