 Gaussian 16, Revision A.03,
 Gaussian 16:  ES64L-G16RevA.03 25-Dec-2016

 --------------------
 #p ZINDO=(nstates=5)
 --------------------

 ------------------------------
 step_1151_chromophore_11 ZINDO
 ------------------------------
 Symbolic Z-matrix:
 Charge =  0 Multiplicity = 1

                         Standard orientation:
 ---------------------------------------------------------------------
 Center     Atomic      Atomic             Coordinates (Angstroms)
 Number     Number       Type             X           Y           Z
 ---------------------------------------------------------------------
      1         12           0       -4.861849    1.343533    0.655694
      2          6           0       -5.567927   -2.056556   -0.064317
      3          6           0       -2.521501    0.243281    2.984107
      4          6           0       -3.428312    4.388147    0.650614
      5          6           0       -6.998134    2.321741   -1.882159
      6          7           0       -4.092876   -0.641730    1.308621
      7          6           0       -4.574817   -1.877671    0.896684
      8          6           0       -4.060053   -2.938743    1.862591
      9          6           0       -3.433511   -2.087015    3.081181
     10          6           0       -3.368476   -0.751606    2.449707
     11          6           0       -4.153861   -2.165855    4.462637
     12          6           0       -3.108395   -4.017560    1.348534
     13          6           0       -1.905376   -3.647339    0.451421
     14          6           0       -0.458189   -4.056711    0.921956
     15          8           0       -0.097126   -3.994408    2.079860
     16          8           0        0.297139   -4.606261   -0.069943
     17          7           0       -3.264848    2.244178    1.733300
     18          6           0       -2.430017    1.592035    2.651376
     19          6           0       -1.541660    2.537272    3.249246
     20          6           0       -1.724465    3.755576    2.512681
     21          6           0       -2.769464    3.502949    1.544227
     22          6           0       -0.691304    2.112661    4.369883
     23          6           0       -0.864661    4.990049    2.642597
     24          8           0       -0.008910    5.092953    3.519523
     25          6           0       -1.005402    6.167971    1.791604
     26          7           0       -5.130808    3.075749   -0.450640
     27          6           0       -4.519533    4.299159   -0.222134
     28          6           0       -5.184212    5.406684   -1.040786
     29          6           0       -6.067366    4.663610   -1.984444
     30          6           0       -6.104006    3.257336   -1.393169
     31          6           0       -5.829216    6.556741   -0.223671
     32          6           0       -5.643826    4.798302   -3.465243
     33          6           0       -6.625861    5.569037   -4.321718
     34          7           0       -6.120611    0.400679   -0.650349
     35          6           0       -6.939164    0.928416   -1.620314
     36          6           0       -7.690586   -0.170836   -2.256682
     37          6           0       -7.152880   -1.338121   -1.658839
     38          6           0       -6.264201   -0.946128   -0.693185
     39          6           0       -8.824017   -0.013459   -3.305928
     40          6           0       -7.238754   -2.741734   -1.735199
     41          8           0       -7.925359   -3.570291   -2.387944
     42          6           0       -6.279139   -3.263041   -0.625392
     43          6           0       -5.291461   -4.232875   -1.292793
     44          8           0       -4.591930   -3.919693   -2.230451
     45          8           0       -5.378640   -5.462044   -0.775685
     46          6           0       -4.668643   -6.587429   -1.304011
     47          6           0        1.559183   -5.160081    0.358586
     48          6           0        2.518108   -4.112143   -0.096902
     49          6           0        3.688572   -3.769710    0.507674
     50          6           0        4.161265   -4.261802    1.916246
     51          6           0        4.455824   -2.591950    0.084572
     52          6           0        5.065052   -2.492428   -1.351630
     53          6           0        6.457204   -1.801745   -1.437565
     54          6           0        6.270204   -0.266619   -1.424529
     55          6           0        6.383447    0.357559   -2.851243
     56          6           0        7.218792    0.307346   -0.241468
     57          6           0        8.735724    0.255455   -0.602800
     58          6           0        9.654109    0.010876    0.574200
     59          6           0       10.950176    0.864148    0.619757
     60          6           0       10.675210    2.399409    1.135110
     61          6           0       11.699265    0.921401   -0.769515
     62          6           0       13.175558    1.343088   -0.573072
     63          6           0       14.192269    0.701427   -1.568924
     64          6           0       15.682066    0.657229   -1.109236
     65          6           0       16.183836    2.074835   -0.632937
     66          6           0       16.616636    0.114133   -2.234869
     67          1           0       -1.891591   -0.118167    3.800278
     68          1           0       -2.985411    5.385437    0.623971
     69          1           0       -7.653881    2.659375   -2.687634
     70          1           0       -4.924616   -3.451586    2.284843
     71          1           0       -2.445481   -2.479991    3.322033
     72          1           0       -5.119387   -2.673265    4.458619
     73          1           0       -4.365863   -1.179574    4.875479
     74          1           0       -3.462194   -2.674168    5.134652
     75          1           0       -3.768496   -4.693903    0.805143
     76          1           0       -2.675296   -4.542880    2.200489
     77          1           0       -1.932090   -2.557905    0.471348
     78          1           0       -1.968808   -3.903347   -0.605791
     79          1           0        0.073651    1.460759    3.947609
     80          1           0       -1.482834    1.872782    5.080403
     81          1           0       -0.099818    2.881563    4.867219
     82          1           0       -0.160570    6.828900    1.987066
     83          1           0       -1.926231    6.742210    1.886106
     84          1           0       -0.877379    5.843772    0.759230
     85          1           0       -4.390991    5.903667   -1.598507
     86          1           0       -7.072519    5.081368   -1.920424
     87          1           0       -5.750196    6.492157    0.862179
     88          1           0       -6.859276    6.854468   -0.419190
     89          1           0       -5.215440    7.447704   -0.353187
     90          1           0       -5.360259    3.797253   -3.790259
     91          1           0       -4.672914    5.292853   -3.492267
     92          1           0       -6.014720    6.198749   -4.967844
     93          1           0       -7.351448    6.162438   -3.764430
     94          1           0       -7.147637    4.830144   -4.929783
     95          1           0       -9.228305    0.941224   -2.968675
     96          1           0       -9.649692   -0.720876   -3.223617
     97          1           0       -8.657501    0.057802   -4.380770
     98          1           0       -6.914858   -3.793574    0.084014
     99          1           0       -4.976388   -6.647860   -2.347553
    100          1           0       -5.104753   -7.470039   -0.835269
    101          1           0       -3.592542   -6.418510   -1.262760
    102          1           0        1.818269   -6.031598   -0.241865
    103          1           0        1.566268   -5.369696    1.428145
    104          1           0        2.183575   -3.656391   -1.028895
    105          1           0        5.195438   -4.599056    1.847627
    106          1           0        3.590954   -5.106292    2.302006
    107          1           0        4.111867   -3.437719    2.628522
    108          1           0        5.306708   -2.395211    0.737270
    109          1           0        3.827230   -1.718204    0.255521
    110          1           0        4.330948   -2.070037   -2.036783
    111          1           0        5.274085   -3.485752   -1.749925
    112          1           0        6.971550   -2.205402   -2.310336
    113          1           0        7.045799   -2.178233   -0.600881
    114          1           0        5.270886   -0.052266   -1.046824
    115          1           0        5.497106    0.938543   -3.104677
    116          1           0        6.455248   -0.442442   -3.587710
    117          1           0        7.323248    0.907721   -2.817822
    118          1           0        7.082226   -0.244142    0.689280
    119          1           0        6.908268    1.340653   -0.089823
    120          1           0        8.893765    1.268252   -0.975150
    121          1           0        8.826860   -0.489187   -1.393696
    122          1           0       10.041171   -1.007442    0.546014
    123          1           0        9.158506    0.227541    1.520585
    124          1           0       11.703745    0.481135    1.308149
    125          1           0        9.620343    2.459933    1.400670
    126          1           0       10.800524    3.087729    0.298492
    127          1           0       11.483558    2.679248    1.811176
    128          1           0       11.275369    1.616116   -1.495369
    129          1           0       11.687490   -0.030384   -1.301672
    130          1           0       13.446177    1.240793    0.478018
    131          1           0       13.321691    2.356100   -0.948093
    132          1           0       14.117057    1.338753   -2.450818
    133          1           0       13.796797   -0.279971   -1.828493
    134          1           0       15.884703   -0.071250   -0.323970
    135          1           0       17.245860    1.900586   -0.459177
    136          1           0       15.836606    2.503694    0.307325
    137          1           0       16.059119    2.814552   -1.424767
    138          1           0       16.016492   -0.644965   -2.736995
    139          1           0       17.364584   -0.386805   -1.619635
    140          1           0       17.045821    0.843224   -2.920968
 ---------------------------------------------------------------------

 SCF Done:  E(RZINDO/S) =  -474.391524240     A.U. after   19 cycles

 Excitation energies and oscillator strengths:

 Excited State   1:      Singlet-A      1.3090 eV  947.16 nm  f=0.5584  <S**2>=0.000
     175 ->178         0.16357
     176 ->177         0.67078
 This state for optimization and/or second-order correction.
 Total Energy, E(CIS/TDA) =  -474.343418894
 Copying the excited state density for this state as the 1-particle RhoCI density.

 Excited State   2:      Singlet-A      1.9375 eV  639.92 nm  f=0.0378  <S**2>=0.000
     175 ->177         0.53754
     176 ->178        -0.42527

 Excited State   3:      Singlet-A      2.8881 eV  429.30 nm  f=0.0042  <S**2>=0.000
     168 ->177         0.31208
     168 ->178         0.14160
     168 ->179        -0.41388
     168 ->180         0.29326
     168 ->185        -0.25258

 Excited State   4:      Singlet-A      2.9609 eV  418.74 nm  f=0.7912  <S**2>=0.000
     171 ->177        -0.16687
     175 ->177         0.35221
     176 ->178         0.46370
     176 ->179         0.25359
     176 ->180         0.16362

 Excited State   5:      Singlet-A      2.9825 eV  415.71 nm  f=0.0101  <S**2>=0.000
     170 ->177         0.27914
     170 ->178         0.15941
     170 ->179         0.33377
     170 ->180         0.38236
     170 ->185         0.17477
     170 ->187         0.16973
     170 ->202         0.10451

 The electronic state is 1-A.
 Alpha  occ. eigenvalues --   -1.84251  -1.81787  -1.81268  -1.75433  -1.73770
 Alpha  occ. eigenvalues --   -1.72070  -1.63912  -1.60889  -1.59586  -1.58824
 Alpha  occ. eigenvalues --   -1.53981  -1.51207  -1.49222  -1.47481  -1.46343
 Alpha  occ. eigenvalues --   -1.44368  -1.42789  -1.41403  -1.39438  -1.38421
 Alpha  occ. eigenvalues --   -1.36555  -1.32225  -1.31274  -1.30428  -1.29779
 Alpha  occ. eigenvalues --   -1.27251  -1.25271  -1.23170  -1.21494  -1.18651
 Alpha  occ. eigenvalues --   -1.16982  -1.15091  -1.14744  -1.13878  -1.13305
 Alpha  occ. eigenvalues --   -1.12967  -1.10991  -1.10018  -1.05430  -1.04564
 Alpha  occ. eigenvalues --   -1.02621  -1.01245  -1.01182  -0.98596  -0.97258
 Alpha  occ. eigenvalues --   -0.97166  -0.94170  -0.93552  -0.92349  -0.91874
 Alpha  occ. eigenvalues --   -0.90524  -0.89708  -0.88625  -0.86051  -0.85400
 Alpha  occ. eigenvalues --   -0.84551  -0.83881  -0.83488  -0.81834  -0.80529
 Alpha  occ. eigenvalues --   -0.79702  -0.78345  -0.77961  -0.77562  -0.76968
 Alpha  occ. eigenvalues --   -0.75953  -0.75492  -0.74788  -0.74534  -0.73877
 Alpha  occ. eigenvalues --   -0.72844  -0.72493  -0.72020  -0.70506  -0.70389
 Alpha  occ. eigenvalues --   -0.69869  -0.69181  -0.69069  -0.68921  -0.68433
 Alpha  occ. eigenvalues --   -0.67937  -0.67002  -0.66699  -0.66565  -0.66093
 Alpha  occ. eigenvalues --   -0.65966  -0.65560  -0.64771  -0.64551  -0.64030
 Alpha  occ. eigenvalues --   -0.63124  -0.63086  -0.62671  -0.62591  -0.61824
 Alpha  occ. eigenvalues --   -0.61174  -0.60942  -0.60000  -0.59901  -0.59240
 Alpha  occ. eigenvalues --   -0.59045  -0.58812  -0.58266  -0.57853  -0.57687
 Alpha  occ. eigenvalues --   -0.57561  -0.57353  -0.57023  -0.56709  -0.56489
 Alpha  occ. eigenvalues --   -0.56314  -0.56053  -0.55492  -0.55190  -0.54881
 Alpha  occ. eigenvalues --   -0.54101  -0.53414  -0.53251  -0.52926  -0.52854
 Alpha  occ. eigenvalues --   -0.52590  -0.52044  -0.51871  -0.51570  -0.51510
 Alpha  occ. eigenvalues --   -0.51192  -0.51016  -0.50664  -0.50293  -0.50082
 Alpha  occ. eigenvalues --   -0.49666  -0.49359  -0.49209  -0.49053  -0.48856
 Alpha  occ. eigenvalues --   -0.48723  -0.48351  -0.48223  -0.47784  -0.47524
 Alpha  occ. eigenvalues --   -0.47375  -0.47285  -0.46954  -0.46823  -0.46285
 Alpha  occ. eigenvalues --   -0.46077  -0.45839  -0.45762  -0.45509  -0.45290
 Alpha  occ. eigenvalues --   -0.45098  -0.44781  -0.44361  -0.44003  -0.43667
 Alpha  occ. eigenvalues --   -0.43591  -0.43289  -0.42863  -0.42428  -0.42255
 Alpha  occ. eigenvalues --   -0.41324  -0.40937  -0.40773  -0.39337  -0.38760
 Alpha  occ. eigenvalues --   -0.37911  -0.37524  -0.35653  -0.34964  -0.34210
 Alpha  occ. eigenvalues --   -0.33745  -0.32905  -0.31866  -0.31527  -0.27301
 Alpha  occ. eigenvalues --   -0.22186
 Alpha virt. eigenvalues --   -0.08763  -0.02441  -0.00730   0.01268   0.01578
 Alpha virt. eigenvalues --    0.01951   0.02581   0.03451   0.04416   0.04829
 Alpha virt. eigenvalues --    0.05969   0.06654   0.07348   0.07743   0.07882

 Mulliken charges:
               1
     1  Mg   0.426909
     2  C   -0.019105
     3  C   -0.067523
     4  C   -0.101216
     5  C   -0.072430
     6  N   -0.278169
     7  C    0.082732
     8  C    0.004478
     9  C   -0.003617
    10  C    0.184461
    11  C   -0.046785
    12  C   -0.013529
    13  C    0.001638
    14  C    0.464093
    15  O   -0.526897
    16  O   -0.256887
    17  N   -0.352511
    18  C    0.124878
    19  C    0.081619
    20  C   -0.052494
    21  C    0.166303
    22  C   -0.039189
    23  C    0.332542
    24  O   -0.531455
    25  C   -0.022787
    26  N   -0.287629
    27  C    0.168139
    28  C    0.023215
    29  C    0.003755
    30  C    0.104709
    31  C   -0.054811
    32  C   -0.028104
    33  C   -0.051752
    34  N   -0.310643
    35  C    0.079471
    36  C   -0.010216
    37  C   -0.037538
    38  C    0.089251
    39  C   -0.045963
    40  C    0.333257
    41  O   -0.549184
    42  C    0.059311
    43  C    0.492690
    44  O   -0.527610
    45  O   -0.274003
    46  C    0.077235
    47  C    0.104592
    48  C   -0.072080
    49  C   -0.018184
    50  C   -0.044731
    51  C   -0.017565
    52  C   -0.035830
    53  C   -0.032134
    54  C   -0.019081
    55  C   -0.056413
    56  C   -0.044472
    57  C   -0.033395
    58  C   -0.025276
    59  C   -0.025525
    60  C   -0.073430
    61  C   -0.037483
    62  C   -0.052151
    63  C   -0.035699
    64  C   -0.012524
    65  C   -0.061051
    66  C   -0.064710
    67  H    0.030928
    68  H    0.010417
    69  H    0.026603
    70  H    0.021063
    71  H    0.037172
    72  H    0.026091
    73  H    0.020042
    74  H    0.023509
    75  H    0.025414
    76  H    0.028363
    77  H    0.040098
    78  H    0.045862
    79  H    0.053569
    80  H    0.047509
    81  H    0.031673
    82  H    0.033458
    83  H    0.044250
    84  H    0.029772
    85  H    0.027471
    86  H    0.022468
    87  H    0.019176
    88  H    0.029816
    89  H    0.010419
    90  H    0.027058
    91  H    0.011386
    92  H    0.018551
    93  H    0.027306
    94  H    0.021984
    95  H    0.011201
    96  H    0.029487
    97  H    0.039467
    98  H    0.054706
    99  H    0.041950
   100  H    0.039956
   101  H    0.049682
   102  H    0.040308
   103  H    0.062897
   104  H    0.037798
   105  H    0.022912
   106  H    0.018626
   107  H    0.031912
   108  H    0.011277
   109  H    0.023541
   110  H    0.020723
   111  H    0.006078
   112  H    0.016491
   113  H    0.017062
   114  H    0.014358
   115  H    0.025373
   116  H    0.020003
   117  H    0.026255
   118  H    0.021958
   119  H    0.012237
   120  H    0.020472
   121  H    0.027725
   122  H    0.016023
   123  H    0.020515
   124  H    0.021651
   125  H    0.031459
   126  H    0.012672
   127  H    0.029814
   128  H    0.019118
   129  H    0.013985
   130  H    0.026789
   131  H    0.017194
   132  H    0.017319
   133  H    0.015081
   134  H    0.023345
   135  H    0.007699
   136  H    0.022695
   137  H    0.021826
   138  H    0.017524
   139  H    0.017114
   140  H    0.030800
 Sum of Mulliken charges =  -0.00000

 Dipole moment (field-independent basis, Debye):
    X=              1.2060    Y=              4.2969    Z=              3.8667  Tot=              5.9050
 N-N= 4.349206915543D+03 E-N= 0.000000000000D+00  KE=-9.373015727122D+03
 Leave Link  601 at Wed Apr 27 10:54:38 2022, MaxMem=  6710886400 cpu:               0.7 elap:               0.0
 (Enter /sw/apps/gaussian-16.0/g16/l9999.exe)
 1\1\GINC-BP1-COMPUTE174\SP\RZINDO CIS\STO-3G\C55H74Mg1N4O6\OF15641\27-
 Apr-2022\0\\#p ZINDO=(nstates=5)\\step_1151_chromophore_11 ZINDO\\0,1\
 Mg,0,52.899,22.937,44.494\C,0,50.535,25.492,43.815\C,0,50.609,20.643,4
 3.228\C,0,55.366,20.677,44.132\C,0,55.203,25.329,45.459\N,0,50.877,23.
 066,43.57\C,0,50.109,24.217,43.448\C,0,48.674,23.805,43.14\C,0,48.663,
 22.211,43.389\C,0,50.118,21.951,43.43\C,0,47.829,21.674,44.593\C,0,48.
 057,24.195,41.798\C,0,48.842,23.999,40.481\C,0,48.201,23.116,39.344\O,

 Normal termination of Gaussian 16 at Wed Apr 27 10:54:38 2022.
