 Gaussian 16, Revision A.03,
 Gaussian 16:  ES64L-G16RevA.03 25-Dec-2016

 ------------------------------
 #p blyp/Def2SVP td=(nstates=5)
 ------------------------------

 --------------------------------------------------
 step_401_chromophore_18 TDDFT with blyp functional
 --------------------------------------------------
 Symbolic Z-matrix:
 Charge =  0 Multiplicity = 1

                         Standard orientation:
 ---------------------------------------------------------------------
 Center     Atomic      Atomic             Coordinates (Angstroms)
 Number     Number       Type             X           Y           Z
 ---------------------------------------------------------------------
      1         12           0        5.340044    1.187569    0.087280
      2          6           0        4.714461   -2.271502    0.064998
      3          6           0        1.884311    1.702345   -0.536705
      4          6           0        5.767543    4.428441    0.116190
      5          6           0        8.756272    0.530341    0.120891
      6          7           0        3.524074   -0.075269   -0.142589
      7          6           0        3.502880   -1.454695    0.058334
      8          6           0        2.091095   -1.993331    0.268347
      9          6           0        1.228531   -0.799840   -0.189895
     10          6           0        2.267139    0.359494   -0.245225
     11          6           0        0.545459   -0.934193   -1.524491
     12          6           0        1.870708   -2.692467    1.650911
     13          6           0        1.071240   -3.961029    1.681612
     14          6           0        0.226892   -4.291020    0.417981
     15          8           0        0.521915   -5.090613   -0.407221
     16          8           0       -0.979858   -3.712121    0.501241
     17          7           0        4.014488    2.888653   -0.217608
     18          6           0        2.655605    2.859710   -0.482888
     19          6           0        2.188330    4.194902   -0.551916
     20          6           0        3.360269    5.000639   -0.321861
     21          6           0        4.433264    4.099780   -0.196663
     22          6           0        0.796924    4.516392   -0.701835
     23          6           0        3.519998    6.541548   -0.364076
     24          8           0        4.545450    7.218758   -0.135819
     25          6           0        2.305202    7.278102   -0.804938
     26          7           0        7.047097    2.302067    0.155462
     27          6           0        6.930057    3.637362    0.180823
     28          6           0        8.351796    4.201213   -0.003595
     29          6           0        9.317121    2.980660    0.237593
     30          6           0        8.349740    1.902324    0.143741
     31          6           0        8.513389    4.993157   -1.356500
     32          6           0       10.219610    2.989143    1.541891
     33          6           0        9.602586    2.462112    2.832441
     34          7           0        6.482911   -0.477946    0.076203
     35          6           0        7.914843   -0.615602    0.171005
     36          6           0        8.282262   -2.039036    0.109972
     37          6           0        7.024796   -2.691568    0.056214
     38          6           0        6.002799   -1.718788    0.130968
     39          6           0        9.614825   -2.631388    0.033345
     40          6           0        6.476520   -3.944091   -0.110658
     41          8           0        7.005519   -4.999734   -0.251440
     42          6           0        4.915159   -3.807090    0.030321
     43          6           0        4.356729   -4.521783   -1.159395
     44          8           0        4.451996   -4.128733   -2.301823
     45          8           0        3.745396   -5.630532   -0.793105
     46          6           0        3.090894   -6.367651   -1.838348
     47          6           0       -1.988080   -4.200901   -0.296051
     48          6           0       -3.161878   -3.136577   -0.295144
     49          6           0       -4.459115   -3.415456   -0.700082
     50          6           0       -4.919524   -4.729651   -1.295767
     51          6           0       -5.583649   -2.367340   -0.466270
     52          6           0       -5.563070   -1.586232    0.864623
     53          6           0       -6.595135   -0.417383    0.761861
     54          6           0       -7.868679   -0.599404    1.700010
     55          6           0       -7.481624   -0.535784    3.159170
     56          6           0       -9.021321    0.408557    1.321029
     57          6           0      -10.111090   -0.156048    0.410304
     58          6           0      -11.397719   -0.579008    1.175822
     59          6           0      -12.474878    0.569934    1.198428
     60          6           0      -13.366698    0.548684    2.480125
     61          6           0      -13.367022    0.415129   -0.118237
     62          6           0      -13.516317    1.709024   -0.876181
     63          6           0      -14.869114    1.695267   -1.601172
     64          6           0      -15.852201    2.771139   -1.030656
     65          6           0      -17.086170    2.023253   -0.640296
     66          6           0      -16.073063    3.912687   -2.093350
     67          1           0        0.817787    1.878264   -0.689772
     68          1           0        6.021003    5.486518    0.202098
     69          1           0        9.845562    0.463688    0.155705
     70          1           0        2.064042   -2.729304   -0.534937
     71          1           0        0.454608   -0.480830    0.508490
     72          1           0        0.655840   -1.962007   -1.871187
     73          1           0        0.848687   -0.343644   -2.388512
     74          1           0       -0.518147   -0.792722   -1.333765
     75          1           0        1.565932   -1.900903    2.336383
     76          1           0        2.880416   -2.939633    1.978660
     77          1           0        0.471088   -3.841390    2.583518
     78          1           0        1.845866   -4.728198    1.650971
     79          1           0        0.443184    5.315395   -0.050086
     80          1           0        0.074214    3.699993   -0.684585
     81          1           0        0.503037    4.748151   -1.726087
     82          1           0        1.775516    6.798999   -1.627574
     83          1           0        2.562799    8.280376   -1.146142
     84          1           0        1.621465    7.403398    0.034747
     85          1           0        8.474692    4.933729    0.794457
     86          1           0        9.984368    3.028117   -0.622476
     87          1           0        8.589711    6.069782   -1.208523
     88          1           0        7.662454    4.761234   -1.998425
     89          1           0        9.444350    4.671739   -1.823770
     90          1           0       10.441212    4.056627    1.560364
     91          1           0       11.081623    2.359663    1.323417
     92          1           0        9.485633    3.270056    3.555703
     93          1           0       10.215010    1.669630    3.261411
     94          1           0        8.577141    2.139240    2.651709
     95          1           0       10.175330   -2.351944   -0.859070
     96          1           0        9.580611   -3.720329    0.023064
     97          1           0       10.166742   -2.348997    0.930085
     98          1           0        4.538482   -4.274686    0.940482
     99          1           0        3.883789   -6.743132   -2.486175
    100          1           0        2.331456   -5.767946   -2.340289
    101          1           0        2.538111   -7.089528   -1.238061
    102          1           0       -2.356676   -5.076617    0.237642
    103          1           0       -1.713318   -4.263467   -1.349582
    104          1           0       -3.034491   -2.148961    0.146948
    105          1           0       -5.230759   -5.299171   -0.419929
    106          1           0       -4.304688   -5.333636   -1.962262
    107          1           0       -5.780905   -4.521531   -1.931462
    108          1           0       -6.553472   -2.864799   -0.482346
    109          1           0       -5.498181   -1.670747   -1.300488
    110          1           0       -4.585581   -1.150264    1.070544
    111          1           0       -5.917033   -2.096664    1.760288
    112          1           0       -7.072037   -0.483333   -0.216778
    113          1           0       -6.043788    0.518285    0.861019
    114          1           0       -8.333941   -1.558971    1.476285
    115          1           0       -8.171389    0.001564    3.811136
    116          1           0       -6.547736    0.022751    3.210944
    117          1           0       -7.424349   -1.555317    3.541191
    118          1           0       -8.708007    1.391834    0.969641
    119          1           0       -9.489805    0.692048    2.263442
    120          1           0       -9.763792   -1.089062   -0.034839
    121          1           0      -10.261642    0.586235   -0.373378
    122          1           0      -11.139876   -0.643914    2.233466
    123          1           0      -11.670651   -1.592461    0.881466
    124          1           0      -11.940815    1.519496    1.204199
    125          1           0      -14.419687    0.705656    2.246146
    126          1           0      -13.026549    1.332974    3.156236
    127          1           0      -13.237084   -0.399971    3.001497
    128          1           0      -14.301741   -0.064668    0.173680
    129          1           0      -12.834099   -0.212683   -0.832194
    130          1           0      -12.679786    1.913366   -1.544886
    131          1           0      -13.429744    2.516740   -0.149063
    132          1           0      -15.268300    0.703467   -1.815677
    133          1           0      -14.535803    1.960884   -2.604064
    134          1           0      -15.482753    3.233119   -0.115196
    135          1           0      -17.571262    2.564661    0.171315
    136          1           0      -16.834950    1.002931   -0.349102
    137          1           0      -17.818443    1.917809   -1.441521
    138          1           0      -15.558418    3.803846   -3.047533
    139          1           0      -15.678807    4.878783   -1.778820
    140          1           0      -17.124524    4.135916   -2.272588
 ---------------------------------------------------------------------

 SCF Done:  E(RB-LYP) =  -3007.35348801     A.U. after   22 cycles

 Excitation energies and oscillator strengths:

 Excited State   1:      Singlet-A      1.8085 eV  685.57 nm  f=0.2905  <S**2>=0.000
     245 -> 248        0.21101
     246 -> 247        0.68461
     246 <- 247       -0.14470
 This state for optimization and/or second-order correction.
 Total Energy, E(TD-HF/TD-DFT) =  -3007.28702699
 Copying the excited state density for this state as the 1-particle RhoCI density.

 Excited State   2:      Singlet-A      1.9437 eV  637.87 nm  f=0.0128  <S**2>=0.000
     243 -> 247        0.47057
     244 -> 247       -0.40583
     245 -> 247       -0.31596
     246 -> 248        0.10708

 Excited State   3:      Singlet-A      1.9470 eV  636.80 nm  f=0.0066  <S**2>=0.000
     243 -> 247        0.35077
     244 -> 247        0.57576
     245 -> 247       -0.19471

 Excited State   4:      Singlet-A      2.0104 eV  616.70 nm  f=0.0526  <S**2>=0.000
     243 -> 247        0.39192
     245 -> 247        0.52960
     246 -> 248       -0.23470

 Excited State   5:      Singlet-A      2.3525 eV  527.03 nm  f=0.0000  <S**2>=0.000
     242 -> 247        0.70540

 The electronic state is 1-A.
 Alpha  occ. eigenvalues --  -46.26407 -18.82948 -18.81135 -18.78026 -18.75398
 Alpha  occ. eigenvalues --  -18.74877 -18.74783 -14.03504 -14.02642 -14.00738
 Alpha  occ. eigenvalues --  -13.99992 -10.04847 -10.02180  -9.99680  -9.98829
 Alpha  occ. eigenvalues --   -9.98067  -9.96984  -9.96390  -9.96099  -9.95938
 Alpha  occ. eigenvalues --   -9.95923  -9.95844  -9.94659  -9.94283  -9.94069
 Alpha  occ. eigenvalues --   -9.93963  -9.93933  -9.93900  -9.93793  -9.93755
 Alpha  occ. eigenvalues --   -9.93695  -9.93631  -9.93295  -9.93190  -9.93167
 Alpha  occ. eigenvalues --   -9.92995  -9.92979  -9.92965  -9.92805  -9.92790
 Alpha  occ. eigenvalues --   -9.92756  -9.92678  -9.92508  -9.92220  -9.92214
 Alpha  occ. eigenvalues --   -9.92106  -9.92024  -9.92009  -9.91960  -9.91942
 Alpha  occ. eigenvalues --   -9.91938  -9.91682  -9.91619  -9.91385  -9.91278
 Alpha  occ. eigenvalues --   -9.91221  -9.91155  -9.91034  -9.91021  -9.90976
 Alpha  occ. eigenvalues --   -9.90856  -9.90637  -9.90617  -9.90528  -9.90473
 Alpha  occ. eigenvalues --   -9.90091  -2.91142  -1.71579  -1.71018  -1.70850
 Alpha  occ. eigenvalues --   -1.01631  -0.98637  -0.93196  -0.92562  -0.89843
 Alpha  occ. eigenvalues --   -0.89067  -0.87214  -0.86344  -0.86026  -0.84753
 Alpha  occ. eigenvalues --   -0.74768  -0.73787  -0.73439  -0.72802  -0.72613
 Alpha  occ. eigenvalues --   -0.72026  -0.71860  -0.70868  -0.70658  -0.70347
 Alpha  occ. eigenvalues --   -0.69996  -0.69663  -0.68362  -0.67388  -0.67071
 Alpha  occ. eigenvalues --   -0.66635  -0.66102  -0.65697  -0.65130  -0.64640
 Alpha  occ. eigenvalues --   -0.64278  -0.62740  -0.62541  -0.61948  -0.60626
 Alpha  occ. eigenvalues --   -0.60417  -0.60271  -0.59633  -0.59566  -0.58766
 Alpha  occ. eigenvalues --   -0.58463  -0.57415  -0.56475  -0.55737  -0.55109
 Alpha  occ. eigenvalues --   -0.54137  -0.53749  -0.52368  -0.52284  -0.51252
 Alpha  occ. eigenvalues --   -0.51171  -0.50844  -0.50565  -0.50339  -0.50209
 Alpha  occ. eigenvalues --   -0.49727  -0.49677  -0.48652  -0.47671  -0.47407
 Alpha  occ. eigenvalues --   -0.46793  -0.45999  -0.45479  -0.45216  -0.44863
 Alpha  occ. eigenvalues --   -0.44326  -0.44031  -0.43447  -0.43313  -0.42847
 Alpha  occ. eigenvalues --   -0.42606  -0.42269  -0.41793  -0.41501  -0.41348
 Alpha  occ. eigenvalues --   -0.40784  -0.40755  -0.40620  -0.40267  -0.40054
 Alpha  occ. eigenvalues --   -0.39996  -0.39658  -0.39519  -0.39305  -0.39141
 Alpha  occ. eigenvalues --   -0.38975  -0.38591  -0.38542  -0.38224  -0.38136
 Alpha  occ. eigenvalues --   -0.37911  -0.37794  -0.37750  -0.37440  -0.37391
 Alpha  occ. eigenvalues --   -0.37306  -0.37194  -0.36845  -0.36791  -0.36447
 Alpha  occ. eigenvalues --   -0.36292  -0.36179  -0.35991  -0.35766  -0.35580
 Alpha  occ. eigenvalues --   -0.35476  -0.35456  -0.35259  -0.34910  -0.34825
 Alpha  occ. eigenvalues --   -0.34441  -0.34304  -0.34075  -0.33905  -0.33539
 Alpha  occ. eigenvalues --   -0.33505  -0.33379  -0.33353  -0.33324  -0.33237
 Alpha  occ. eigenvalues --   -0.33107  -0.32955  -0.32683  -0.32522  -0.32443
 Alpha  occ. eigenvalues --   -0.32219  -0.32135  -0.31832  -0.31563  -0.31513
 Alpha  occ. eigenvalues --   -0.31387  -0.31226  -0.30797  -0.30625  -0.30606
 Alpha  occ. eigenvalues --   -0.30376  -0.30247  -0.29895  -0.29718  -0.29542
 Alpha  occ. eigenvalues --   -0.29269  -0.29219  -0.28921  -0.28667  -0.28617
 Alpha  occ. eigenvalues --   -0.28586  -0.28457  -0.28434  -0.28299  -0.28101
 Alpha  occ. eigenvalues --   -0.27760  -0.27620  -0.27573  -0.26977  -0.26769
 Alpha  occ. eigenvalues --   -0.26348  -0.26068  -0.26054  -0.25708  -0.25477
 Alpha  occ. eigenvalues --   -0.24880  -0.24778  -0.24278  -0.23849  -0.23260
 Alpha  occ. eigenvalues --   -0.23182  -0.22394  -0.21369  -0.20591  -0.20390
 Alpha  occ. eigenvalues --   -0.19914  -0.19855  -0.18338  -0.18252  -0.16907
 Alpha  occ. eigenvalues --   -0.15537
 Alpha virt. eigenvalues --   -0.11210  -0.06775  -0.05942  -0.04208  -0.03427
 Alpha virt. eigenvalues --   -0.02260  -0.01747  -0.00907  -0.00506   0.00224
 Alpha virt. eigenvalues --    0.01260   0.01552   0.02197   0.02536   0.02744

 Mulliken charges:
               1
     1  Mg   0.694655
     2  C   -0.015903
     3  C   -0.072808
     4  C   -0.041583
     5  C   -0.066436
     6  N   -0.183403
     7  C   -0.112578
     8  C    0.042104
     9  C   -0.009813
    10  C    0.003705
    11  C    0.127140
    12  C    0.121769
    13  C    0.213694
    14  C    0.019370
    15  O   -0.152712
    16  O   -0.228417
    17  N   -0.209546
    18  C    0.125047
    19  C   -0.087602
    20  C   -0.002456
    21  C    0.079384
    22  C    0.168221
    23  C   -0.040561
    24  O   -0.181826
    25  C    0.124131
    26  N   -0.240070
    27  C    0.011062
    28  C   -0.024377
    29  C    0.049499
    30  C   -0.021315
    31  C    0.132566
    32  C    0.083917
    33  C    0.075879
    34  N   -0.306305
    35  C    0.159331
    36  C   -0.157926
    37  C    0.131601
    38  C    0.098981
    39  C    0.175229
    40  C   -0.128480
    41  O   -0.103341
    42  C    0.074751
    43  C    0.068200
    44  O   -0.191081
    45  O   -0.226038
    46  C    0.236175
    47  C    0.317464
    48  C   -0.130022
    49  C   -0.158482
    50  C    0.128954
    51  C    0.114959
    52  C    0.094079
    53  C    0.063033
    54  C   -0.082105
    55  C    0.126433
    56  C    0.100572
    57  C    0.072062
    58  C    0.092508
    59  C   -0.091671
    60  C    0.116639
    61  C    0.107354
    62  C    0.049889
    63  C    0.105098
    64  C   -0.046890
    65  C    0.104147
    66  C    0.096206
    67  H   -0.078038
    68  H   -0.047137
    69  H   -0.071055
    70  H   -0.005865
    71  H   -0.030552
    72  H   -0.012358
    73  H    0.003723
    74  H   -0.012338
    75  H   -0.029325
    76  H   -0.025723
    77  H   -0.002954
    78  H   -0.004079
    79  H    0.004895
    80  H   -0.036552
    81  H   -0.011535
    82  H   -0.000397
    83  H   -0.012892
    84  H    0.008950
    85  H   -0.030764
    86  H   -0.034157
    87  H    0.003223
    88  H    0.007727
    89  H   -0.018062
    90  H   -0.014989
    91  H   -0.012559
    92  H   -0.012216
    93  H   -0.002497
    94  H    0.007484
    95  H    0.004882
    96  H   -0.000556
    97  H   -0.005351
    98  H   -0.010750
    99  H    0.018988
   100  H    0.013169
   101  H    0.006289
   102  H    0.000975
   103  H    0.016878
   104  H   -0.036466
   105  H    0.011018
   106  H   -0.000866
   107  H   -0.011121
   108  H   -0.026545
   109  H   -0.001949
   110  H   -0.031220
   111  H   -0.032251
   112  H   -0.032539
   113  H   -0.025480
   114  H   -0.043741
   115  H   -0.021981
   116  H   -0.017782
   117  H   -0.004842
   118  H   -0.045817
   119  H   -0.053585
   120  H   -0.035908
   121  H   -0.027726
   122  H   -0.048588
   123  H   -0.030106
   124  H   -0.036151
   125  H   -0.013126
   126  H   -0.018178
   127  H   -0.016461
   128  H   -0.026279
   129  H   -0.035533
   130  H   -0.033078
   131  H   -0.035492
   132  H   -0.030149
   133  H   -0.055257
   134  H   -0.024979
   135  H   -0.023823
   136  H   -0.014044
   137  H   -0.021506
   138  H   -0.014246
   139  H   -0.029162
   140  H   -0.021584
 Sum of Mulliken charges =  -0.00000

 Dipole moment (field-independent basis, Debye):
    X=             -5.3407    Y=              1.0313    Z=              2.3673  Tot=              5.9322
 Quadrupole moment (field-independent basis, Debye-Ang):
   XX=           -389.3731   YY=           -438.5994   ZZ=           -405.8926
   XY=             22.3666   XZ=             15.1351   YZ=             -9.0507

 Normal termination of Gaussian 16 at Wed May  4 20:14:34 2022.
