 Gaussian 16, Revision A.03,
 Gaussian 16:  ES64L-G16RevA.03 25-Dec-2016

 -----------------------------------
 #p cam-b3lyp/Def2SVP td=(nstates=5)
 -----------------------------------

 -------------------------------------------------------
 step_401_chromophore_18 TDDFT with cam-b3lyp functional
 -------------------------------------------------------
 Symbolic Z-matrix:
 Charge =  0 Multiplicity = 1

                         Standard orientation:
 ---------------------------------------------------------------------
 Center     Atomic      Atomic             Coordinates (Angstroms)
 Number     Number       Type             X           Y           Z
 ---------------------------------------------------------------------
      1         12           0        5.340044    1.187569    0.087280
      2          6           0        4.714461   -2.271502    0.064998
      3          6           0        1.884311    1.702345   -0.536705
      4          6           0        5.767543    4.428441    0.116190
      5          6           0        8.756272    0.530341    0.120891
      6          7           0        3.524074   -0.075269   -0.142589
      7          6           0        3.502880   -1.454695    0.058334
      8          6           0        2.091095   -1.993331    0.268347
      9          6           0        1.228531   -0.799840   -0.189895
     10          6           0        2.267139    0.359494   -0.245225
     11          6           0        0.545459   -0.934193   -1.524491
     12          6           0        1.870708   -2.692467    1.650911
     13          6           0        1.071240   -3.961029    1.681612
     14          6           0        0.226892   -4.291020    0.417981
     15          8           0        0.521915   -5.090613   -0.407221
     16          8           0       -0.979858   -3.712121    0.501241
     17          7           0        4.014488    2.888653   -0.217608
     18          6           0        2.655605    2.859710   -0.482888
     19          6           0        2.188330    4.194902   -0.551916
     20          6           0        3.360269    5.000639   -0.321861
     21          6           0        4.433264    4.099780   -0.196663
     22          6           0        0.796924    4.516392   -0.701835
     23          6           0        3.519998    6.541548   -0.364076
     24          8           0        4.545450    7.218758   -0.135819
     25          6           0        2.305202    7.278102   -0.804938
     26          7           0        7.047097    2.302067    0.155462
     27          6           0        6.930057    3.637362    0.180823
     28          6           0        8.351796    4.201213   -0.003595
     29          6           0        9.317121    2.980660    0.237593
     30          6           0        8.349740    1.902324    0.143741
     31          6           0        8.513389    4.993157   -1.356500
     32          6           0       10.219610    2.989143    1.541891
     33          6           0        9.602586    2.462112    2.832441
     34          7           0        6.482911   -0.477946    0.076203
     35          6           0        7.914843   -0.615602    0.171005
     36          6           0        8.282262   -2.039036    0.109972
     37          6           0        7.024796   -2.691568    0.056214
     38          6           0        6.002799   -1.718788    0.130968
     39          6           0        9.614825   -2.631388    0.033345
     40          6           0        6.476520   -3.944091   -0.110658
     41          8           0        7.005519   -4.999734   -0.251440
     42          6           0        4.915159   -3.807090    0.030321
     43          6           0        4.356729   -4.521783   -1.159395
     44          8           0        4.451996   -4.128733   -2.301823
     45          8           0        3.745396   -5.630532   -0.793105
     46          6           0        3.090894   -6.367651   -1.838348
     47          6           0       -1.988080   -4.200901   -0.296051
     48          6           0       -3.161878   -3.136577   -0.295144
     49          6           0       -4.459115   -3.415456   -0.700082
     50          6           0       -4.919524   -4.729651   -1.295767
     51          6           0       -5.583649   -2.367340   -0.466270
     52          6           0       -5.563070   -1.586232    0.864623
     53          6           0       -6.595135   -0.417383    0.761861
     54          6           0       -7.868679   -0.599404    1.700010
     55          6           0       -7.481624   -0.535784    3.159170
     56          6           0       -9.021321    0.408557    1.321029
     57          6           0      -10.111090   -0.156048    0.410304
     58          6           0      -11.397719   -0.579008    1.175822
     59          6           0      -12.474878    0.569934    1.198428
     60          6           0      -13.366698    0.548684    2.480125
     61          6           0      -13.367022    0.415129   -0.118237
     62          6           0      -13.516317    1.709024   -0.876181
     63          6           0      -14.869114    1.695267   -1.601172
     64          6           0      -15.852201    2.771139   -1.030656
     65          6           0      -17.086170    2.023253   -0.640296
     66          6           0      -16.073063    3.912687   -2.093350
     67          1           0        0.817787    1.878264   -0.689772
     68          1           0        6.021003    5.486518    0.202098
     69          1           0        9.845562    0.463688    0.155705
     70          1           0        2.064042   -2.729304   -0.534937
     71          1           0        0.454608   -0.480830    0.508490
     72          1           0        0.655840   -1.962007   -1.871187
     73          1           0        0.848687   -0.343644   -2.388512
     74          1           0       -0.518147   -0.792722   -1.333765
     75          1           0        1.565932   -1.900903    2.336383
     76          1           0        2.880416   -2.939633    1.978660
     77          1           0        0.471088   -3.841390    2.583518
     78          1           0        1.845866   -4.728198    1.650971
     79          1           0        0.443184    5.315395   -0.050086
     80          1           0        0.074214    3.699993   -0.684585
     81          1           0        0.503037    4.748151   -1.726087
     82          1           0        1.775516    6.798999   -1.627574
     83          1           0        2.562799    8.280376   -1.146142
     84          1           0        1.621465    7.403398    0.034747
     85          1           0        8.474692    4.933729    0.794457
     86          1           0        9.984368    3.028117   -0.622476
     87          1           0        8.589711    6.069782   -1.208523
     88          1           0        7.662454    4.761234   -1.998425
     89          1           0        9.444350    4.671739   -1.823770
     90          1           0       10.441212    4.056627    1.560364
     91          1           0       11.081623    2.359663    1.323417
     92          1           0        9.485633    3.270056    3.555703
     93          1           0       10.215010    1.669630    3.261411
     94          1           0        8.577141    2.139240    2.651709
     95          1           0       10.175330   -2.351944   -0.859070
     96          1           0        9.580611   -3.720329    0.023064
     97          1           0       10.166742   -2.348997    0.930085
     98          1           0        4.538482   -4.274686    0.940482
     99          1           0        3.883789   -6.743132   -2.486175
    100          1           0        2.331456   -5.767946   -2.340289
    101          1           0        2.538111   -7.089528   -1.238061
    102          1           0       -2.356676   -5.076617    0.237642
    103          1           0       -1.713318   -4.263467   -1.349582
    104          1           0       -3.034491   -2.148961    0.146948
    105          1           0       -5.230759   -5.299171   -0.419929
    106          1           0       -4.304688   -5.333636   -1.962262
    107          1           0       -5.780905   -4.521531   -1.931462
    108          1           0       -6.553472   -2.864799   -0.482346
    109          1           0       -5.498181   -1.670747   -1.300488
    110          1           0       -4.585581   -1.150264    1.070544
    111          1           0       -5.917033   -2.096664    1.760288
    112          1           0       -7.072037   -0.483333   -0.216778
    113          1           0       -6.043788    0.518285    0.861019
    114          1           0       -8.333941   -1.558971    1.476285
    115          1           0       -8.171389    0.001564    3.811136
    116          1           0       -6.547736    0.022751    3.210944
    117          1           0       -7.424349   -1.555317    3.541191
    118          1           0       -8.708007    1.391834    0.969641
    119          1           0       -9.489805    0.692048    2.263442
    120          1           0       -9.763792   -1.089062   -0.034839
    121          1           0      -10.261642    0.586235   -0.373378
    122          1           0      -11.139876   -0.643914    2.233466
    123          1           0      -11.670651   -1.592461    0.881466
    124          1           0      -11.940815    1.519496    1.204199
    125          1           0      -14.419687    0.705656    2.246146
    126          1           0      -13.026549    1.332974    3.156236
    127          1           0      -13.237084   -0.399971    3.001497
    128          1           0      -14.301741   -0.064668    0.173680
    129          1           0      -12.834099   -0.212683   -0.832194
    130          1           0      -12.679786    1.913366   -1.544886
    131          1           0      -13.429744    2.516740   -0.149063
    132          1           0      -15.268300    0.703467   -1.815677
    133          1           0      -14.535803    1.960884   -2.604064
    134          1           0      -15.482753    3.233119   -0.115196
    135          1           0      -17.571262    2.564661    0.171315
    136          1           0      -16.834950    1.002931   -0.349102
    137          1           0      -17.818443    1.917809   -1.441521
    138          1           0      -15.558418    3.803846   -3.047533
    139          1           0      -15.678807    4.878783   -1.778820
    140          1           0      -17.124524    4.135916   -2.272588
 ---------------------------------------------------------------------

 SCF Done:  E(RCAM-B3LYP) =  -3007.16241651     A.U. after   17 cycles

 Excitation energies and oscillator strengths:

 Excited State   1:      Singlet-A      1.7023 eV  728.35 nm  f=0.3766  <S**2>=0.000
     245 -> 248        0.19389
     246 -> 247        0.68211
     245 <- 248        0.11149
 This state for optimization and/or second-order correction.
 Total Energy, E(TD-HF/TD-DFT) =  -3007.09985983
 Copying the excited state density for this state as the 1-particle RhoCI density.

 Excited State   2:      Singlet-A      2.2077 eV  561.59 nm  f=0.0940  <S**2>=0.000
     245 -> 247        0.63121
     246 -> 248       -0.30879

 Excited State   3:      Singlet-A      3.3531 eV  369.76 nm  f=0.0452  <S**2>=0.000
     244 -> 247        0.63615
     246 -> 248        0.25221

 Excited State   4:      Singlet-A      3.4692 eV  357.39 nm  f=0.3972  <S**2>=0.000
     241 -> 247       -0.13515
     242 -> 247        0.36884
     244 -> 247       -0.21772
     245 -> 247        0.21475
     246 -> 248        0.46652

 Excited State   5:      Singlet-A      3.5033 eV  353.91 nm  f=0.1796  <S**2>=0.000
     240 -> 247        0.21495
     240 -> 249       -0.11547
     241 -> 247        0.47023
     241 -> 249       -0.22912
     241 -> 250       -0.13852
     242 -> 247       -0.13335
     244 -> 247       -0.13889
     245 -> 247        0.13622
     246 -> 248        0.25714

 The electronic state is 1-A.
 Alpha  occ. eigenvalues --  -46.87918 -19.25742 -19.24054 -19.21037 -19.18653
 Alpha  occ. eigenvalues --  -19.18046 -19.17815 -14.42520 -14.41416 -14.39196
 Alpha  occ. eigenvalues --  -14.38354 -10.40054 -10.37481 -10.35032 -10.33291
 Alpha  occ. eigenvalues --  -10.32755 -10.31633 -10.30871 -10.30326 -10.30287
 Alpha  occ. eigenvalues --  -10.30257 -10.30001 -10.28918 -10.28552 -10.28391
 Alpha  occ. eigenvalues --  -10.28219 -10.28212 -10.28056 -10.27928 -10.27918
 Alpha  occ. eigenvalues --  -10.27883 -10.27869 -10.27687 -10.27399 -10.27054
 Alpha  occ. eigenvalues --  -10.27026 -10.26943 -10.26893 -10.26753 -10.26684
 Alpha  occ. eigenvalues --  -10.26670 -10.26443 -10.26394 -10.26305 -10.26280
 Alpha  occ. eigenvalues --  -10.25923 -10.25900 -10.25764 -10.25627 -10.25623
 Alpha  occ. eigenvalues --  -10.25560 -10.25440 -10.25351 -10.25241 -10.25134
 Alpha  occ. eigenvalues --  -10.24960 -10.24937 -10.24682 -10.24640 -10.24636
 Alpha  occ. eigenvalues --  -10.24460 -10.24315 -10.24241 -10.24173 -10.24146
 Alpha  occ. eigenvalues --  -10.24031  -3.16564  -1.91476  -1.91025  -1.90863
 Alpha  occ. eigenvalues --   -1.20166  -1.17217  -1.11171  -1.11050  -1.08237
 Alpha  occ. eigenvalues --   -1.07052  -1.04958  -1.04003  -1.03766  -1.02310
 Alpha  occ. eigenvalues --   -0.91905  -0.90641  -0.90303  -0.89597  -0.89424
 Alpha  occ. eigenvalues --   -0.88728  -0.88493  -0.87480  -0.87251  -0.86845
 Alpha  occ. eigenvalues --   -0.86554  -0.86159  -0.84616  -0.83513  -0.83189
 Alpha  occ. eigenvalues --   -0.82698  -0.82144  -0.81684  -0.81088  -0.80506
 Alpha  occ. eigenvalues --   -0.80152  -0.78571  -0.78228  -0.77443  -0.75985
 Alpha  occ. eigenvalues --   -0.75793  -0.75668  -0.74915  -0.74865  -0.73931
 Alpha  occ. eigenvalues --   -0.73580  -0.72453  -0.71385  -0.70551  -0.69715
 Alpha  occ. eigenvalues --   -0.68752  -0.68427  -0.66779  -0.66671  -0.65531
 Alpha  occ. eigenvalues --   -0.65416  -0.64827  -0.64483  -0.64347  -0.64272
 Alpha  occ. eigenvalues --   -0.63697  -0.63663  -0.62529  -0.61446  -0.61145
 Alpha  occ. eigenvalues --   -0.60463  -0.59575  -0.59019  -0.58678  -0.58233
 Alpha  occ. eigenvalues --   -0.57731  -0.57560  -0.56958  -0.56565  -0.56185
 Alpha  occ. eigenvalues --   -0.55797  -0.55052  -0.54976  -0.54326  -0.54109
 Alpha  occ. eigenvalues --   -0.53869  -0.53565  -0.53362  -0.53179  -0.52748
 Alpha  occ. eigenvalues --   -0.52653  -0.52590  -0.52144  -0.51985  -0.51848
 Alpha  occ. eigenvalues --   -0.51374  -0.51329  -0.51026  -0.50899  -0.50494
 Alpha  occ. eigenvalues --   -0.50367  -0.50167  -0.50134  -0.49843  -0.49788
 Alpha  occ. eigenvalues --   -0.49505  -0.49467  -0.49061  -0.48866  -0.48839
 Alpha  occ. eigenvalues --   -0.48697  -0.48593  -0.48289  -0.48081  -0.47898
 Alpha  occ. eigenvalues --   -0.47566  -0.47501  -0.47303  -0.47109  -0.46730
 Alpha  occ. eigenvalues --   -0.46562  -0.46319  -0.46054  -0.45841  -0.45451
 Alpha  occ. eigenvalues --   -0.45413  -0.45273  -0.45043  -0.45037  -0.44957
 Alpha  occ. eigenvalues --   -0.44944  -0.44557  -0.44418  -0.44266  -0.43921
 Alpha  occ. eigenvalues --   -0.43882  -0.43799  -0.43377  -0.43109  -0.42874
 Alpha  occ. eigenvalues --   -0.42804  -0.42636  -0.42581  -0.42195  -0.41962
 Alpha  occ. eigenvalues --   -0.41672  -0.41498  -0.41134  -0.40980  -0.40837
 Alpha  occ. eigenvalues --   -0.40788  -0.40706  -0.40393  -0.40150  -0.39736
 Alpha  occ. eigenvalues --   -0.39691  -0.39656  -0.39431  -0.39372  -0.39085
 Alpha  occ. eigenvalues --   -0.38636  -0.38534  -0.38440  -0.38051  -0.37772
 Alpha  occ. eigenvalues --   -0.37239  -0.37207  -0.36740  -0.36703  -0.36285
 Alpha  occ. eigenvalues --   -0.35779  -0.35448  -0.35338  -0.35117  -0.34221
 Alpha  occ. eigenvalues --   -0.33441  -0.32799  -0.32710  -0.30662  -0.30474
 Alpha  occ. eigenvalues --   -0.30241  -0.29797  -0.29473  -0.29199  -0.23635
 Alpha  occ. eigenvalues --   -0.20793
 Alpha virt. eigenvalues --   -0.08357  -0.01753   0.00483   0.02782   0.03425
 Alpha virt. eigenvalues --    0.04261   0.05263   0.05672   0.06872   0.07256
 Alpha virt. eigenvalues --    0.08066   0.08471   0.08741   0.08851   0.09013

 Mulliken charges:
               1
     1  Mg   0.830426
     2  C   -0.038812
     3  C   -0.080687
     4  C   -0.066190
     5  C   -0.070572
     6  N   -0.250945
     7  C   -0.063521
     8  C   -0.022948
     9  C   -0.056167
    10  C    0.022092
    11  C    0.067561
    12  C    0.075457
    13  C    0.139896
    14  C    0.094862
    15  O   -0.192841
    16  O   -0.288995
    17  N   -0.298737
    18  C    0.129264
    19  C   -0.094064
    20  C   -0.066960
    21  C    0.107282
    22  C    0.097990
    23  C    0.043960
    24  O   -0.222984
    25  C    0.037301
    26  N   -0.317314
    27  C    0.036217
    28  C   -0.081873
    29  C   -0.008199
    30  C   -0.005154
    31  C    0.075619
    32  C    0.032656
    33  C    0.012537
    34  N   -0.393308
    35  C    0.158972
    36  C   -0.144381
    37  C    0.045289
    38  C    0.133925
    39  C    0.117768
    40  C   -0.031853
    41  O   -0.142650
    42  C    0.003785
    43  C    0.155411
    44  O   -0.228131
    45  O   -0.287318
    46  C    0.192372
    47  C    0.283197
    48  C   -0.148097
    49  C   -0.178428
    50  C    0.062662
    51  C    0.059768
    52  C    0.037807
    53  C    0.012756
    54  C   -0.134380
    55  C    0.061788
    56  C    0.050038
    57  C    0.015053
    58  C    0.038144
    59  C   -0.145156
    60  C    0.058924
    61  C    0.055248
    62  C    0.002433
    63  C    0.040571
    64  C   -0.107381
    65  C    0.045869
    66  C    0.037221
    67  H   -0.042005
    68  H   -0.005736
    69  H   -0.034524
    70  H    0.025209
    71  H    0.005463
    72  H    0.011415
    73  H    0.031492
    74  H    0.010878
    75  H    0.002271
    76  H    0.006214
    77  H    0.032293
    78  H    0.027312
    79  H    0.031586
    80  H   -0.004749
    81  H    0.018438
    82  H    0.027980
    83  H    0.023137
    84  H    0.037049
    85  H    0.004009
    86  H    0.003724
    87  H    0.027069
    88  H    0.032652
    89  H    0.005394
    90  H    0.012823
    91  H    0.013723
    92  H    0.012314
    93  H    0.021100
    94  H    0.029129
    95  H    0.031473
    96  H    0.029732
    97  H    0.020200
    98  H    0.030663
    99  H    0.043394
   100  H    0.036586
   101  H    0.031305
   102  H    0.027499
   103  H    0.044247
   104  H   -0.005095
   105  H    0.035117
   106  H    0.024646
   107  H    0.014105
   108  H    0.001584
   109  H    0.027518
   110  H   -0.003682
   111  H   -0.002969
   112  H   -0.005462
   113  H    0.002873
   114  H   -0.012732
   115  H    0.004554
   116  H    0.006426
   117  H    0.018279
   118  H   -0.015390
   119  H   -0.025213
   120  H   -0.007934
   121  H   -0.000306
   122  H   -0.020180
   123  H   -0.000386
   124  H   -0.005696
   125  H    0.009693
   126  H    0.005788
   127  H    0.007673
   128  H    0.000122
   129  H   -0.006846
   130  H   -0.005047
   131  H   -0.008841
   132  H   -0.000166
   133  H   -0.023540
   134  H    0.005771
   135  H    0.001325
   136  H    0.007825
   137  H    0.003102
   138  H    0.009575
   139  H   -0.004271
   140  H    0.002947
 Sum of Mulliken charges =  -0.00000

 Dipole moment (field-independent basis, Debye):
    X=             -5.7820    Y=              1.4014    Z=              2.4107  Tot=              6.4193
 Quadrupole moment (field-independent basis, Debye-Ang):
   XX=           -389.6990   YY=           -435.5864   ZZ=           -405.8962
   XY=             22.2450   XZ=             15.8608   YZ=            -10.1122

 Normal termination of Gaussian 16 at Wed May  4 19:17:26 2022.
