 Gaussian 16, Revision A.03,
 Gaussian 16:  ES64L-G16RevA.03 25-Dec-2016

 ---------------------------------
 #p PBE1PBE/Def2SVP td=(nstates=5)
 ---------------------------------

 -----------------------------------------------------
 step_401_chromophore_18 TDDFT with PBE1PBE functional
 -----------------------------------------------------
 Symbolic Z-matrix:
 Charge =  0 Multiplicity = 1

                         Standard orientation:
 ---------------------------------------------------------------------
 Center     Atomic      Atomic             Coordinates (Angstroms)
 Number     Number       Type             X           Y           Z
 ---------------------------------------------------------------------
      1         12           0        5.340044    1.187569    0.087280
      2          6           0        4.714461   -2.271502    0.064998
      3          6           0        1.884311    1.702345   -0.536705
      4          6           0        5.767543    4.428441    0.116190
      5          6           0        8.756272    0.530341    0.120891
      6          7           0        3.524074   -0.075269   -0.142589
      7          6           0        3.502880   -1.454695    0.058334
      8          6           0        2.091095   -1.993331    0.268347
      9          6           0        1.228531   -0.799840   -0.189895
     10          6           0        2.267139    0.359494   -0.245225
     11          6           0        0.545459   -0.934193   -1.524491
     12          6           0        1.870708   -2.692467    1.650911
     13          6           0        1.071240   -3.961029    1.681612
     14          6           0        0.226892   -4.291020    0.417981
     15          8           0        0.521915   -5.090613   -0.407221
     16          8           0       -0.979858   -3.712121    0.501241
     17          7           0        4.014488    2.888653   -0.217608
     18          6           0        2.655605    2.859710   -0.482888
     19          6           0        2.188330    4.194902   -0.551916
     20          6           0        3.360269    5.000639   -0.321861
     21          6           0        4.433264    4.099780   -0.196663
     22          6           0        0.796924    4.516392   -0.701835
     23          6           0        3.519998    6.541548   -0.364076
     24          8           0        4.545450    7.218758   -0.135819
     25          6           0        2.305202    7.278102   -0.804938
     26          7           0        7.047097    2.302067    0.155462
     27          6           0        6.930057    3.637362    0.180823
     28          6           0        8.351796    4.201213   -0.003595
     29          6           0        9.317121    2.980660    0.237593
     30          6           0        8.349740    1.902324    0.143741
     31          6           0        8.513389    4.993157   -1.356500
     32          6           0       10.219610    2.989143    1.541891
     33          6           0        9.602586    2.462112    2.832441
     34          7           0        6.482911   -0.477946    0.076203
     35          6           0        7.914843   -0.615602    0.171005
     36          6           0        8.282262   -2.039036    0.109972
     37          6           0        7.024796   -2.691568    0.056214
     38          6           0        6.002799   -1.718788    0.130968
     39          6           0        9.614825   -2.631388    0.033345
     40          6           0        6.476520   -3.944091   -0.110658
     41          8           0        7.005519   -4.999734   -0.251440
     42          6           0        4.915159   -3.807090    0.030321
     43          6           0        4.356729   -4.521783   -1.159395
     44          8           0        4.451996   -4.128733   -2.301823
     45          8           0        3.745396   -5.630532   -0.793105
     46          6           0        3.090894   -6.367651   -1.838348
     47          6           0       -1.988080   -4.200901   -0.296051
     48          6           0       -3.161878   -3.136577   -0.295144
     49          6           0       -4.459115   -3.415456   -0.700082
     50          6           0       -4.919524   -4.729651   -1.295767
     51          6           0       -5.583649   -2.367340   -0.466270
     52          6           0       -5.563070   -1.586232    0.864623
     53          6           0       -6.595135   -0.417383    0.761861
     54          6           0       -7.868679   -0.599404    1.700010
     55          6           0       -7.481624   -0.535784    3.159170
     56          6           0       -9.021321    0.408557    1.321029
     57          6           0      -10.111090   -0.156048    0.410304
     58          6           0      -11.397719   -0.579008    1.175822
     59          6           0      -12.474878    0.569934    1.198428
     60          6           0      -13.366698    0.548684    2.480125
     61          6           0      -13.367022    0.415129   -0.118237
     62          6           0      -13.516317    1.709024   -0.876181
     63          6           0      -14.869114    1.695267   -1.601172
     64          6           0      -15.852201    2.771139   -1.030656
     65          6           0      -17.086170    2.023253   -0.640296
     66          6           0      -16.073063    3.912687   -2.093350
     67          1           0        0.817787    1.878264   -0.689772
     68          1           0        6.021003    5.486518    0.202098
     69          1           0        9.845562    0.463688    0.155705
     70          1           0        2.064042   -2.729304   -0.534937
     71          1           0        0.454608   -0.480830    0.508490
     72          1           0        0.655840   -1.962007   -1.871187
     73          1           0        0.848687   -0.343644   -2.388512
     74          1           0       -0.518147   -0.792722   -1.333765
     75          1           0        1.565932   -1.900903    2.336383
     76          1           0        2.880416   -2.939633    1.978660
     77          1           0        0.471088   -3.841390    2.583518
     78          1           0        1.845866   -4.728198    1.650971
     79          1           0        0.443184    5.315395   -0.050086
     80          1           0        0.074214    3.699993   -0.684585
     81          1           0        0.503037    4.748151   -1.726087
     82          1           0        1.775516    6.798999   -1.627574
     83          1           0        2.562799    8.280376   -1.146142
     84          1           0        1.621465    7.403398    0.034747
     85          1           0        8.474692    4.933729    0.794457
     86          1           0        9.984368    3.028117   -0.622476
     87          1           0        8.589711    6.069782   -1.208523
     88          1           0        7.662454    4.761234   -1.998425
     89          1           0        9.444350    4.671739   -1.823770
     90          1           0       10.441212    4.056627    1.560364
     91          1           0       11.081623    2.359663    1.323417
     92          1           0        9.485633    3.270056    3.555703
     93          1           0       10.215010    1.669630    3.261411
     94          1           0        8.577141    2.139240    2.651709
     95          1           0       10.175330   -2.351944   -0.859070
     96          1           0        9.580611   -3.720329    0.023064
     97          1           0       10.166742   -2.348997    0.930085
     98          1           0        4.538482   -4.274686    0.940482
     99          1           0        3.883789   -6.743132   -2.486175
    100          1           0        2.331456   -5.767946   -2.340289
    101          1           0        2.538111   -7.089528   -1.238061
    102          1           0       -2.356676   -5.076617    0.237642
    103          1           0       -1.713318   -4.263467   -1.349582
    104          1           0       -3.034491   -2.148961    0.146948
    105          1           0       -5.230759   -5.299171   -0.419929
    106          1           0       -4.304688   -5.333636   -1.962262
    107          1           0       -5.780905   -4.521531   -1.931462
    108          1           0       -6.553472   -2.864799   -0.482346
    109          1           0       -5.498181   -1.670747   -1.300488
    110          1           0       -4.585581   -1.150264    1.070544
    111          1           0       -5.917033   -2.096664    1.760288
    112          1           0       -7.072037   -0.483333   -0.216778
    113          1           0       -6.043788    0.518285    0.861019
    114          1           0       -8.333941   -1.558971    1.476285
    115          1           0       -8.171389    0.001564    3.811136
    116          1           0       -6.547736    0.022751    3.210944
    117          1           0       -7.424349   -1.555317    3.541191
    118          1           0       -8.708007    1.391834    0.969641
    119          1           0       -9.489805    0.692048    2.263442
    120          1           0       -9.763792   -1.089062   -0.034839
    121          1           0      -10.261642    0.586235   -0.373378
    122          1           0      -11.139876   -0.643914    2.233466
    123          1           0      -11.670651   -1.592461    0.881466
    124          1           0      -11.940815    1.519496    1.204199
    125          1           0      -14.419687    0.705656    2.246146
    126          1           0      -13.026549    1.332974    3.156236
    127          1           0      -13.237084   -0.399971    3.001497
    128          1           0      -14.301741   -0.064668    0.173680
    129          1           0      -12.834099   -0.212683   -0.832194
    130          1           0      -12.679786    1.913366   -1.544886
    131          1           0      -13.429744    2.516740   -0.149063
    132          1           0      -15.268300    0.703467   -1.815677
    133          1           0      -14.535803    1.960884   -2.604064
    134          1           0      -15.482753    3.233119   -0.115196
    135          1           0      -17.571262    2.564661    0.171315
    136          1           0      -16.834950    1.002931   -0.349102
    137          1           0      -17.818443    1.917809   -1.441521
    138          1           0      -15.558418    3.803846   -3.047533
    139          1           0      -15.678807    4.878783   -1.778820
    140          1           0      -17.124524    4.135916   -2.272588
 ---------------------------------------------------------------------

 SCF Done:  E(RPBE1PBE) =  -3005.35257076     A.U. after   15 cycles

 Excitation energies and oscillator strengths:

 Excited State   1:      Singlet-A      1.8596 eV  666.71 nm  f=0.3618  <S**2>=0.000
     245 -> 248        0.18872
     246 -> 247        0.68910
     246 <- 247       -0.10327
 This state for optimization and/or second-order correction.
 Total Energy, E(TD-HF/TD-DFT) =  -3005.28423008
 Copying the excited state density for this state as the 1-particle RhoCI density.

 Excited State   2:      Singlet-A      2.2119 eV  560.54 nm  f=0.0931  <S**2>=0.000
     245 -> 247        0.64470
     246 -> 248       -0.28098

 Excited State   3:      Singlet-A      2.9698 eV  417.48 nm  f=0.0004  <S**2>=0.000
     242 -> 247        0.64641
     242 -> 249       -0.15370
     243 -> 247        0.17245

 Excited State   4:      Singlet-A      3.0232 eV  410.11 nm  f=0.0001  <S**2>=0.000
     240 -> 247       -0.11436
     241 -> 247       -0.20236
     242 -> 247       -0.16665
     243 -> 247        0.61306
     244 -> 247       -0.10192
     246 -> 248        0.10865

 Excited State   5:      Singlet-A      3.1035 eV  399.50 nm  f=0.0001  <S**2>=0.000
     240 -> 247        0.12772
     241 -> 247        0.62246
     241 -> 249        0.12215
     243 -> 247        0.24436

 The electronic state is 1-A.
 Alpha  occ. eigenvalues --  -46.91304 -19.26392 -19.24678 -19.21251 -19.18850
 Alpha  occ. eigenvalues --  -19.18242 -19.18041 -14.41961 -14.40960 -14.38869
 Alpha  occ. eigenvalues --  -14.37963 -10.37074 -10.34463 -10.32124 -10.30377
 Alpha  occ. eigenvalues --  -10.30152 -10.29413 -10.28589 -10.28063 -10.28052
 Alpha  occ. eigenvalues --  -10.27973 -10.27224 -10.26569 -10.26116 -10.26060
 Alpha  occ. eigenvalues --  -10.26003 -10.25888 -10.25851 -10.25669 -10.25552
 Alpha  occ. eigenvalues --  -10.25494 -10.25349 -10.25272 -10.25003 -10.24908
 Alpha  occ. eigenvalues --  -10.24880 -10.24566 -10.24501 -10.24347 -10.24317
 Alpha  occ. eigenvalues --  -10.24081 -10.24059 -10.24026 -10.23904 -10.23834
 Alpha  occ. eigenvalues --  -10.23649 -10.23568 -10.23329 -10.23072 -10.23069
 Alpha  occ. eigenvalues --  -10.23069 -10.23047 -10.23042 -10.22549 -10.22528
 Alpha  occ. eigenvalues --  -10.22517 -10.22471 -10.22269 -10.22031 -10.22029
 Alpha  occ. eigenvalues --  -10.21866 -10.21854 -10.21837 -10.21774 -10.21758
 Alpha  occ. eigenvalues --  -10.21392  -3.13529  -1.86384  -1.85910  -1.85751
 Alpha  occ. eigenvalues --   -1.15011  -1.12023  -1.06037  -1.05802  -1.02907
 Alpha  occ. eigenvalues --   -1.01861  -0.99621  -0.98642  -0.98359  -0.96976
 Alpha  occ. eigenvalues --   -0.86235  -0.84837  -0.84414  -0.83707  -0.83689
 Alpha  occ. eigenvalues --   -0.82850  -0.82791  -0.81746  -0.81399  -0.81132
 Alpha  occ. eigenvalues --   -0.80848  -0.80435  -0.78794  -0.77774  -0.77465
 Alpha  occ. eigenvalues --   -0.76928  -0.76371  -0.75883  -0.75372  -0.74667
 Alpha  occ. eigenvalues --   -0.74469  -0.72842  -0.72498  -0.71778  -0.70243
 Alpha  occ. eigenvalues --   -0.69942  -0.69872  -0.69248  -0.69019  -0.68153
 Alpha  occ. eigenvalues --   -0.67838  -0.66902  -0.65793  -0.64878  -0.64055
 Alpha  occ. eigenvalues --   -0.62990  -0.62839  -0.61118  -0.60955  -0.59873
 Alpha  occ. eigenvalues --   -0.59691  -0.59379  -0.58955  -0.58826  -0.58404
 Alpha  occ. eigenvalues --   -0.58251  -0.57832  -0.56718  -0.55986  -0.55675
 Alpha  occ. eigenvalues --   -0.54856  -0.54084  -0.53512  -0.53084  -0.52811
 Alpha  occ. eigenvalues --   -0.52333  -0.51990  -0.51441  -0.51126  -0.50659
 Alpha  occ. eigenvalues --   -0.50268  -0.49602  -0.49510  -0.48784  -0.48522
 Alpha  occ. eigenvalues --   -0.48388  -0.48072  -0.47915  -0.47631  -0.47353
 Alpha  occ. eigenvalues --   -0.47091  -0.47049  -0.46707  -0.46513  -0.46373
 Alpha  occ. eigenvalues --   -0.45906  -0.45832  -0.45562  -0.45443  -0.45049
 Alpha  occ. eigenvalues --   -0.44978  -0.44749  -0.44696  -0.44443  -0.44349
 Alpha  occ. eigenvalues --   -0.44068  -0.44042  -0.43666  -0.43487  -0.43393
 Alpha  occ. eigenvalues --   -0.43317  -0.43208  -0.42914  -0.42672  -0.42498
 Alpha  occ. eigenvalues --   -0.42263  -0.42142  -0.41915  -0.41756  -0.41404
 Alpha  occ. eigenvalues --   -0.41198  -0.40986  -0.40732  -0.40613  -0.40171
 Alpha  occ. eigenvalues --   -0.40112  -0.39993  -0.39806  -0.39707  -0.39615
 Alpha  occ. eigenvalues --   -0.39591  -0.39252  -0.39177  -0.39026  -0.38695
 Alpha  occ. eigenvalues --   -0.38652  -0.38588  -0.38174  -0.37970  -0.37619
 Alpha  occ. eigenvalues --   -0.37554  -0.37386  -0.37318  -0.36986  -0.36717
 Alpha  occ. eigenvalues --   -0.36489  -0.36441  -0.35851  -0.35832  -0.35626
 Alpha  occ. eigenvalues --   -0.35597  -0.35453  -0.35256  -0.34995  -0.34614
 Alpha  occ. eigenvalues --   -0.34528  -0.34444  -0.34385  -0.34175  -0.33819
 Alpha  occ. eigenvalues --   -0.33486  -0.33399  -0.33220  -0.32977  -0.32569
 Alpha  occ. eigenvalues --   -0.32238  -0.32124  -0.31724  -0.31593  -0.31356
 Alpha  occ. eigenvalues --   -0.30696  -0.30362  -0.30208  -0.29986  -0.29414
 Alpha  occ. eigenvalues --   -0.28952  -0.27675  -0.27612  -0.26128  -0.25543
 Alpha  occ. eigenvalues --   -0.25386  -0.25052  -0.24807  -0.24751  -0.20573
 Alpha  occ. eigenvalues --   -0.18445
 Alpha virt. eigenvalues --   -0.10802  -0.05195  -0.03687  -0.01606  -0.00223
 Alpha virt. eigenvalues --    0.00584   0.00819   0.01770   0.02600   0.03079
 Alpha virt. eigenvalues --    0.04025   0.04651   0.05112   0.05463   0.05670

 Mulliken charges:
               1
     1  Mg   0.983035
     2  C   -0.036031
     3  C   -0.072803
     4  C   -0.058528
     5  C   -0.056570
     6  N   -0.355624
     7  C    0.005836
     8  C   -0.102206
     9  C   -0.130808
    10  C    0.065556
    11  C    0.013588
    12  C    0.026689
    13  C    0.054261
    14  C    0.166558
    15  O   -0.228986
    16  O   -0.323457
    17  N   -0.418963
    18  C    0.153359
    19  C   -0.134270
    20  C   -0.105392
    21  C    0.145369
    22  C    0.041384
    23  C    0.092829
    24  O   -0.261591
    25  C   -0.035209
    26  N   -0.430054
    27  C    0.073977
    28  C   -0.158692
    29  C   -0.078723
    30  C    0.028681
    31  C    0.016948
    32  C   -0.031202
    33  C   -0.060712
    34  N   -0.515901
    35  C    0.169772
    36  C   -0.150514
    37  C   -0.008917
    38  C    0.181734
    39  C    0.064984
    40  C    0.060654
    41  O   -0.190873
    42  C   -0.113209
    43  C    0.253104
    44  O   -0.263829
    45  O   -0.324189
    46  C    0.137395
    47  C    0.244766
    48  C   -0.161628
    49  C   -0.215392
    50  C   -0.002794
    51  C   -0.007270
    52  C   -0.026932
    53  C   -0.042106
    54  C   -0.222051
    55  C    0.001929
    56  C    0.002672
    57  C   -0.049492
    58  C   -0.021535
    59  C   -0.226673
    60  C   -0.001840
    61  C    0.001778
    62  C   -0.056749
    63  C   -0.018224
    64  C   -0.199448
    65  C   -0.015652
    66  C   -0.019278
    67  H   -0.009109
    68  H    0.026816
    69  H   -0.002169
    70  H    0.071709
    71  H    0.041915
    72  H    0.039208
    73  H    0.057929
    74  H    0.038679
    75  H    0.034303
    76  H    0.042304
    77  H    0.064218
    78  H    0.061561
    79  H    0.059023
    80  H    0.021882
    81  H    0.045734
    82  H    0.054408
    83  H    0.050754
    84  H    0.063818
    85  H    0.041995
    86  H    0.041602
    87  H    0.053737
    88  H    0.061040
    89  H    0.032995
    90  H    0.046097
    91  H    0.045218
    92  H    0.040637
    93  H    0.048147
    94  H    0.060472
    95  H    0.058475
    96  H    0.057370
    97  H    0.048007
    98  H    0.068003
    99  H    0.065698
   100  H    0.058574
   101  H    0.052873
   102  H    0.055275
   103  H    0.069882
   104  H    0.024981
   105  H    0.063602
   106  H    0.050695
   107  H    0.041448
   108  H    0.034149
   109  H    0.060680
   110  H    0.029343
   111  H    0.031925
   112  H    0.029508
   113  H    0.034538
   114  H    0.026582
   115  H    0.031787
   116  H    0.034790
   117  H    0.044619
   118  H    0.016440
   119  H    0.007454
   120  H    0.024526
   121  H    0.032362
   122  H    0.014419
   123  H    0.030624
   124  H    0.030895
   125  H    0.036995
   126  H    0.033611
   127  H    0.034842
   128  H    0.032088
   129  H    0.027633
   130  H    0.026337
   131  H    0.023917
   132  H    0.030242
   133  H    0.010470
   134  H    0.041766
   135  H    0.029531
   136  H    0.036129
   137  H    0.030847
   138  H    0.035290
   139  H    0.023472
   140  H    0.029836
 Sum of Mulliken charges =  -0.00000

 Dipole moment (field-independent basis, Debye):
    X=             -5.6826    Y=              1.3652    Z=              2.4266  Tot=              6.3280
 Quadrupole moment (field-independent basis, Debye-Ang):
   XX=           -382.9848   YY=           -432.7429   ZZ=           -403.4685
   XY=             22.9004   XZ=             16.0245   YZ=             -9.9193

 Normal termination of Gaussian 16 at Wed May  4 19:34:19 2022.
