 Gaussian 16, Revision A.03,
 Gaussian 16:  ES64L-G16RevA.03 25-Dec-2016

 --------------------------------
 #p wB97XD/Def2SVP td=(nstates=5)
 --------------------------------

 ----------------------------------------------------
 step_401_chromophore_18 TDDFT with wB97XD functional
 ----------------------------------------------------
 Symbolic Z-matrix:
 Charge =  0 Multiplicity = 1

                         Standard orientation:
 ---------------------------------------------------------------------
 Center     Atomic      Atomic             Coordinates (Angstroms)
 Number     Number       Type             X           Y           Z
 ---------------------------------------------------------------------
      1         12           0        5.340044    1.187569    0.087280
      2          6           0        4.714461   -2.271502    0.064998
      3          6           0        1.884311    1.702345   -0.536705
      4          6           0        5.767543    4.428441    0.116190
      5          6           0        8.756272    0.530341    0.120891
      6          7           0        3.524074   -0.075269   -0.142589
      7          6           0        3.502880   -1.454695    0.058334
      8          6           0        2.091095   -1.993331    0.268347
      9          6           0        1.228531   -0.799840   -0.189895
     10          6           0        2.267139    0.359494   -0.245225
     11          6           0        0.545459   -0.934193   -1.524491
     12          6           0        1.870708   -2.692467    1.650911
     13          6           0        1.071240   -3.961029    1.681612
     14          6           0        0.226892   -4.291020    0.417981
     15          8           0        0.521915   -5.090613   -0.407221
     16          8           0       -0.979858   -3.712121    0.501241
     17          7           0        4.014488    2.888653   -0.217608
     18          6           0        2.655605    2.859710   -0.482888
     19          6           0        2.188330    4.194902   -0.551916
     20          6           0        3.360269    5.000639   -0.321861
     21          6           0        4.433264    4.099780   -0.196663
     22          6           0        0.796924    4.516392   -0.701835
     23          6           0        3.519998    6.541548   -0.364076
     24          8           0        4.545450    7.218758   -0.135819
     25          6           0        2.305202    7.278102   -0.804938
     26          7           0        7.047097    2.302067    0.155462
     27          6           0        6.930057    3.637362    0.180823
     28          6           0        8.351796    4.201213   -0.003595
     29          6           0        9.317121    2.980660    0.237593
     30          6           0        8.349740    1.902324    0.143741
     31          6           0        8.513389    4.993157   -1.356500
     32          6           0       10.219610    2.989143    1.541891
     33          6           0        9.602586    2.462112    2.832441
     34          7           0        6.482911   -0.477946    0.076203
     35          6           0        7.914843   -0.615602    0.171005
     36          6           0        8.282262   -2.039036    0.109972
     37          6           0        7.024796   -2.691568    0.056214
     38          6           0        6.002799   -1.718788    0.130968
     39          6           0        9.614825   -2.631388    0.033345
     40          6           0        6.476520   -3.944091   -0.110658
     41          8           0        7.005519   -4.999734   -0.251440
     42          6           0        4.915159   -3.807090    0.030321
     43          6           0        4.356729   -4.521783   -1.159395
     44          8           0        4.451996   -4.128733   -2.301823
     45          8           0        3.745396   -5.630532   -0.793105
     46          6           0        3.090894   -6.367651   -1.838348
     47          6           0       -1.988080   -4.200901   -0.296051
     48          6           0       -3.161878   -3.136577   -0.295144
     49          6           0       -4.459115   -3.415456   -0.700082
     50          6           0       -4.919524   -4.729651   -1.295767
     51          6           0       -5.583649   -2.367340   -0.466270
     52          6           0       -5.563070   -1.586232    0.864623
     53          6           0       -6.595135   -0.417383    0.761861
     54          6           0       -7.868679   -0.599404    1.700010
     55          6           0       -7.481624   -0.535784    3.159170
     56          6           0       -9.021321    0.408557    1.321029
     57          6           0      -10.111090   -0.156048    0.410304
     58          6           0      -11.397719   -0.579008    1.175822
     59          6           0      -12.474878    0.569934    1.198428
     60          6           0      -13.366698    0.548684    2.480125
     61          6           0      -13.367022    0.415129   -0.118237
     62          6           0      -13.516317    1.709024   -0.876181
     63          6           0      -14.869114    1.695267   -1.601172
     64          6           0      -15.852201    2.771139   -1.030656
     65          6           0      -17.086170    2.023253   -0.640296
     66          6           0      -16.073063    3.912687   -2.093350
     67          1           0        0.817787    1.878264   -0.689772
     68          1           0        6.021003    5.486518    0.202098
     69          1           0        9.845562    0.463688    0.155705
     70          1           0        2.064042   -2.729304   -0.534937
     71          1           0        0.454608   -0.480830    0.508490
     72          1           0        0.655840   -1.962007   -1.871187
     73          1           0        0.848687   -0.343644   -2.388512
     74          1           0       -0.518147   -0.792722   -1.333765
     75          1           0        1.565932   -1.900903    2.336383
     76          1           0        2.880416   -2.939633    1.978660
     77          1           0        0.471088   -3.841390    2.583518
     78          1           0        1.845866   -4.728198    1.650971
     79          1           0        0.443184    5.315395   -0.050086
     80          1           0        0.074214    3.699993   -0.684585
     81          1           0        0.503037    4.748151   -1.726087
     82          1           0        1.775516    6.798999   -1.627574
     83          1           0        2.562799    8.280376   -1.146142
     84          1           0        1.621465    7.403398    0.034747
     85          1           0        8.474692    4.933729    0.794457
     86          1           0        9.984368    3.028117   -0.622476
     87          1           0        8.589711    6.069782   -1.208523
     88          1           0        7.662454    4.761234   -1.998425
     89          1           0        9.444350    4.671739   -1.823770
     90          1           0       10.441212    4.056627    1.560364
     91          1           0       11.081623    2.359663    1.323417
     92          1           0        9.485633    3.270056    3.555703
     93          1           0       10.215010    1.669630    3.261411
     94          1           0        8.577141    2.139240    2.651709
     95          1           0       10.175330   -2.351944   -0.859070
     96          1           0        9.580611   -3.720329    0.023064
     97          1           0       10.166742   -2.348997    0.930085
     98          1           0        4.538482   -4.274686    0.940482
     99          1           0        3.883789   -6.743132   -2.486175
    100          1           0        2.331456   -5.767946   -2.340289
    101          1           0        2.538111   -7.089528   -1.238061
    102          1           0       -2.356676   -5.076617    0.237642
    103          1           0       -1.713318   -4.263467   -1.349582
    104          1           0       -3.034491   -2.148961    0.146948
    105          1           0       -5.230759   -5.299171   -0.419929
    106          1           0       -4.304688   -5.333636   -1.962262
    107          1           0       -5.780905   -4.521531   -1.931462
    108          1           0       -6.553472   -2.864799   -0.482346
    109          1           0       -5.498181   -1.670747   -1.300488
    110          1           0       -4.585581   -1.150264    1.070544
    111          1           0       -5.917033   -2.096664    1.760288
    112          1           0       -7.072037   -0.483333   -0.216778
    113          1           0       -6.043788    0.518285    0.861019
    114          1           0       -8.333941   -1.558971    1.476285
    115          1           0       -8.171389    0.001564    3.811136
    116          1           0       -6.547736    0.022751    3.210944
    117          1           0       -7.424349   -1.555317    3.541191
    118          1           0       -8.708007    1.391834    0.969641
    119          1           0       -9.489805    0.692048    2.263442
    120          1           0       -9.763792   -1.089062   -0.034839
    121          1           0      -10.261642    0.586235   -0.373378
    122          1           0      -11.139876   -0.643914    2.233466
    123          1           0      -11.670651   -1.592461    0.881466
    124          1           0      -11.940815    1.519496    1.204199
    125          1           0      -14.419687    0.705656    2.246146
    126          1           0      -13.026549    1.332974    3.156236
    127          1           0      -13.237084   -0.399971    3.001497
    128          1           0      -14.301741   -0.064668    0.173680
    129          1           0      -12.834099   -0.212683   -0.832194
    130          1           0      -12.679786    1.913366   -1.544886
    131          1           0      -13.429744    2.516740   -0.149063
    132          1           0      -15.268300    0.703467   -1.815677
    133          1           0      -14.535803    1.960884   -2.604064
    134          1           0      -15.482753    3.233119   -0.115196
    135          1           0      -17.571262    2.564661    0.171315
    136          1           0      -16.834950    1.002931   -0.349102
    137          1           0      -17.818443    1.917809   -1.441521
    138          1           0      -15.558418    3.803846   -3.047533
    139          1           0      -15.678807    4.878783   -1.778820
    140          1           0      -17.124524    4.135916   -2.272588
 ---------------------------------------------------------------------

 SCF Done:  E(RwB97XD) =  -3007.86140744     A.U. after   18 cycles

 Excitation energies and oscillator strengths:

 Excited State   1:      Singlet-A      1.6412 eV  755.47 nm  f=0.3743  <S**2>=0.000
     245 -> 248        0.19951
     246 -> 247        0.68001
     245 <- 248        0.12137
 This state for optimization and/or second-order correction.
 Total Energy, E(TD-HF/TD-DFT) =  -3007.80109589
 Copying the excited state density for this state as the 1-particle RhoCI density.

 Excited State   2:      Singlet-A      2.1492 eV  576.89 nm  f=0.0913  <S**2>=0.000
     245 -> 247        0.62952
     246 -> 248       -0.31073

 Excited State   3:      Singlet-A      3.3706 eV  367.84 nm  f=0.0639  <S**2>=0.000
     244 -> 247        0.61923
     246 -> 248        0.27767

 Excited State   4:      Singlet-A      3.4771 eV  356.58 nm  f=0.4487  <S**2>=0.000
     242 -> 247        0.35495
     242 -> 249       -0.10285
     244 -> 247       -0.25969
     245 -> 247        0.22497
     246 -> 248        0.48412

 Excited State   5:      Singlet-A      3.5299 eV  351.24 nm  f=0.1113  <S**2>=0.000
     241 -> 247        0.47371
     241 -> 249       -0.26434
     241 -> 250       -0.16112
     242 -> 247       -0.26390
     242 -> 249        0.12146
     244 -> 247       -0.10667
     245 -> 247        0.10500
     246 -> 248        0.18561

 The electronic state is 1-A.
 Alpha  occ. eigenvalues --  -46.94246 -19.30946 -19.29257 -19.25919 -19.23705
 Alpha  occ. eigenvalues --  -19.23073 -19.22761 -14.47116 -14.45975 -14.43815
 Alpha  occ. eigenvalues --  -14.42929 -10.43849 -10.41310 -10.39022 -10.37263
 Alpha  occ. eigenvalues --  -10.36640 -10.35677 -10.34882 -10.34346 -10.34304
 Alpha  occ. eigenvalues --  -10.34275 -10.33743 -10.32942 -10.32531 -10.32398
 Alpha  occ. eigenvalues --  -10.32354 -10.32341 -10.32110 -10.32062 -10.31931
 Alpha  occ. eigenvalues --  -10.31900 -10.31769 -10.31636 -10.31452 -10.31086
 Alpha  occ. eigenvalues --  -10.31047 -10.31004 -10.30909 -10.30712 -10.30607
 Alpha  occ. eigenvalues --  -10.30607 -10.30497 -10.30302 -10.30277 -10.30271
 Alpha  occ. eigenvalues --  -10.29921 -10.29848 -10.29713 -10.29488 -10.29455
 Alpha  occ. eigenvalues --  -10.29412 -10.29402 -10.29401 -10.29102 -10.28927
 Alpha  occ. eigenvalues --  -10.28883 -10.28879 -10.28621 -10.28466 -10.28459
 Alpha  occ. eigenvalues --  -10.28274 -10.28235 -10.28167 -10.28130 -10.28103
 Alpha  occ. eigenvalues --  -10.27832  -3.20316  -1.93922  -1.93448  -1.93286
 Alpha  occ. eigenvalues --   -1.22349  -1.19407  -1.13345  -1.13277  -1.10456
 Alpha  occ. eigenvalues --   -1.09236  -1.06986  -1.05996  -1.05769  -1.04343
 Alpha  occ. eigenvalues --   -0.93879  -0.92481  -0.92089  -0.91362  -0.91342
 Alpha  occ. eigenvalues --   -0.90517  -0.90368  -0.89384  -0.89057  -0.88724
 Alpha  occ. eigenvalues --   -0.88483  -0.88071  -0.86452  -0.85414  -0.85087
 Alpha  occ. eigenvalues --   -0.84564  -0.84033  -0.83570  -0.83023  -0.82331
 Alpha  occ. eigenvalues --   -0.82104  -0.80526  -0.80137  -0.79354  -0.77883
 Alpha  occ. eigenvalues --   -0.77583  -0.77569  -0.76828  -0.76698  -0.75791
 Alpha  occ. eigenvalues --   -0.75469  -0.74441  -0.73336  -0.72478  -0.71602
 Alpha  occ. eigenvalues --   -0.70629  -0.70407  -0.68681  -0.68594  -0.67394
 Alpha  occ. eigenvalues --   -0.67354  -0.66806  -0.66425  -0.66299  -0.66078
 Alpha  occ. eigenvalues --   -0.65689  -0.65493  -0.64361  -0.63419  -0.63141
 Alpha  occ. eigenvalues --   -0.62375  -0.61524  -0.60970  -0.60572  -0.60200
 Alpha  occ. eigenvalues --   -0.59719  -0.59485  -0.58924  -0.58537  -0.58090
 Alpha  occ. eigenvalues --   -0.57702  -0.56991  -0.56912  -0.56218  -0.55970
 Alpha  occ. eigenvalues --   -0.55800  -0.55467  -0.55272  -0.55049  -0.54663
 Alpha  occ. eigenvalues --   -0.54586  -0.54482  -0.54073  -0.53880  -0.53749
 Alpha  occ. eigenvalues --   -0.53307  -0.53208  -0.52985  -0.52793  -0.52396
 Alpha  occ. eigenvalues --   -0.52310  -0.52060  -0.52012  -0.51800  -0.51687
 Alpha  occ. eigenvalues --   -0.51396  -0.51373  -0.50981  -0.50781  -0.50706
 Alpha  occ. eigenvalues --   -0.50629  -0.50522  -0.50202  -0.49972  -0.49825
 Alpha  occ. eigenvalues --   -0.49487  -0.49386  -0.49166  -0.49007  -0.48675
 Alpha  occ. eigenvalues --   -0.48434  -0.48251  -0.47981  -0.47736  -0.47398
 Alpha  occ. eigenvalues --   -0.47329  -0.47182  -0.46942  -0.46877  -0.46853
 Alpha  occ. eigenvalues --   -0.46795  -0.46433  -0.46326  -0.46183  -0.45821
 Alpha  occ. eigenvalues --   -0.45791  -0.45720  -0.45281  -0.44992  -0.44740
 Alpha  occ. eigenvalues --   -0.44690  -0.44592  -0.44449  -0.44114  -0.43841
 Alpha  occ. eigenvalues --   -0.43596  -0.43422  -0.42986  -0.42945  -0.42815
 Alpha  occ. eigenvalues --   -0.42734  -0.42563  -0.42281  -0.42044  -0.41612
 Alpha  occ. eigenvalues --   -0.41561  -0.41520  -0.41327  -0.41234  -0.40914
 Alpha  occ. eigenvalues --   -0.40481  -0.40422  -0.40287  -0.40030  -0.39613
 Alpha  occ. eigenvalues --   -0.39160  -0.39072  -0.38623  -0.38599  -0.38405
 Alpha  occ. eigenvalues --   -0.37796  -0.37292  -0.37203  -0.37008  -0.36206
 Alpha  occ. eigenvalues --   -0.35659  -0.34767  -0.34538  -0.32670  -0.32605
 Alpha  occ. eigenvalues --   -0.32264  -0.31938  -0.31534  -0.31385  -0.25541
 Alpha  occ. eigenvalues --   -0.22582
 Alpha virt. eigenvalues --   -0.06717   0.00153   0.02552   0.04901   0.06470
 Alpha virt. eigenvalues --    0.06622   0.07534   0.08299   0.09387   0.09505
 Alpha virt. eigenvalues --    0.10637   0.11531   0.11900   0.12244   0.12441

 Mulliken charges:
               1
     1  Mg   0.971138
     2  C   -0.046880
     3  C   -0.087733
     4  C   -0.075920
     5  C   -0.076286
     6  N   -0.321660
     7  C   -0.020082
     8  C   -0.066396
     9  C   -0.107645
    10  C    0.049237
    11  C    0.021292
    12  C    0.036019
    13  C    0.075239
    14  C    0.149145
    15  O   -0.223728
    16  O   -0.319452
    17  N   -0.382702
    18  C    0.144858
    19  C   -0.116505
    20  C   -0.104223
    21  C    0.135185
    22  C    0.048093
    23  C    0.089458
    24  O   -0.254556
    25  C   -0.024138
    26  N   -0.395300
    27  C    0.060436
    28  C   -0.135184
    29  C   -0.055438
    30  C    0.017999
    31  C    0.028957
    32  C   -0.016524
    33  C   -0.042467
    34  N   -0.480619
    35  C    0.164935
    36  C   -0.149872
    37  C   -0.003293
    38  C    0.165817
    39  C    0.072944
    40  C    0.044355
    41  O   -0.180707
    42  C   -0.067985
    43  C    0.225788
    44  O   -0.257725
    45  O   -0.319468
    46  C    0.147191
    47  C    0.255970
    48  C   -0.167727
    49  C   -0.205074
    50  C    0.010193
    51  C    0.015479
    52  C   -0.010599
    53  C   -0.025565
    54  C   -0.188655
    55  C    0.011862
    56  C    0.016617
    57  C   -0.033704
    58  C   -0.000338
    59  C   -0.199836
    60  C    0.010803
    61  C    0.015259
    62  C   -0.038000
    63  C   -0.002380
    64  C   -0.171953
    65  C   -0.002772
    66  C   -0.008625
    67  H   -0.017302
    68  H    0.021115
    69  H   -0.006873
    70  H    0.046367
    71  H    0.033104
    72  H    0.032914
    73  H    0.053210
    74  H    0.033468
    75  H    0.028379
    76  H    0.030451
    77  H    0.060554
    78  H    0.054759
    79  H    0.054257
    80  H    0.018488
    81  H    0.041679
    82  H    0.047964
    83  H    0.049646
    84  H    0.059345
    85  H    0.030997
    86  H    0.031040
    87  H    0.049073
    88  H    0.053836
    89  H    0.026521
    90  H    0.037664
    91  H    0.038029
    92  H    0.035359
    93  H    0.043548
    94  H    0.048680
    95  H    0.054261
    96  H    0.054039
    97  H    0.042748
    98  H    0.060058
    99  H    0.062872
   100  H    0.055557
   101  H    0.051483
   102  H    0.050157
   103  H    0.065167
   104  H    0.019605
   105  H    0.057395
   106  H    0.046982
   107  H    0.035876
   108  H    0.024373
   109  H    0.052397
   110  H    0.020077
   111  H    0.021180
   112  H    0.015356
   113  H    0.027901
   114  H    0.011189
   115  H    0.026734
   116  H    0.027837
   117  H    0.039438
   118  H    0.009852
   119  H   -0.006285
   120  H    0.014751
   121  H    0.023897
   122  H    0.000293
   123  H    0.024657
   124  H    0.017924
   125  H    0.030327
   126  H    0.028305
   127  H    0.028797
   128  H    0.021186
   129  H    0.017497
   130  H    0.019830
   131  H    0.011256
   132  H    0.022072
   133  H    0.000883
   134  H    0.031202
   135  H    0.024595
   136  H    0.027747
   137  H    0.024711
   138  H    0.029121
   139  H    0.017735
   140  H    0.024138
 Sum of Mulliken charges =  -0.00000

 Dipole moment (field-independent basis, Debye):
    X=             -5.8588    Y=              1.4515    Z=              2.4236  Tot=              6.5043
 Quadrupole moment (field-independent basis, Debye-Ang):
   XX=           -384.6028   YY=           -431.1531   ZZ=           -403.0776
   XY=             22.1551   XZ=             16.0920   YZ=            -10.2279

 Normal termination of Gaussian 16 at Wed May  4 20:00:28 2022.
