 Gaussian 16, Revision A.03,
 Gaussian 16:  ES64L-G16RevA.03 25-Dec-2016

 --------------------
 #p ZINDO=(nstates=5)
 --------------------

 -----------------------------
 step_401_chromophore_18 ZINDO
 -----------------------------
 Symbolic Z-matrix:
 Charge =  0 Multiplicity = 1

                         Standard orientation:
 ---------------------------------------------------------------------
 Center     Atomic      Atomic             Coordinates (Angstroms)
 Number     Number       Type             X           Y           Z
 ---------------------------------------------------------------------
      1         12           0        5.340044    1.187569    0.087280
      2          6           0        4.714461   -2.271502    0.064998
      3          6           0        1.884311    1.702345   -0.536705
      4          6           0        5.767543    4.428441    0.116190
      5          6           0        8.756272    0.530341    0.120891
      6          7           0        3.524074   -0.075269   -0.142589
      7          6           0        3.502880   -1.454695    0.058334
      8          6           0        2.091095   -1.993331    0.268347
      9          6           0        1.228531   -0.799840   -0.189895
     10          6           0        2.267139    0.359494   -0.245225
     11          6           0        0.545459   -0.934193   -1.524491
     12          6           0        1.870708   -2.692467    1.650911
     13          6           0        1.071240   -3.961029    1.681612
     14          6           0        0.226892   -4.291020    0.417981
     15          8           0        0.521915   -5.090613   -0.407221
     16          8           0       -0.979858   -3.712121    0.501241
     17          7           0        4.014488    2.888653   -0.217608
     18          6           0        2.655605    2.859710   -0.482888
     19          6           0        2.188330    4.194902   -0.551916
     20          6           0        3.360269    5.000639   -0.321861
     21          6           0        4.433264    4.099780   -0.196663
     22          6           0        0.796924    4.516392   -0.701835
     23          6           0        3.519998    6.541548   -0.364076
     24          8           0        4.545450    7.218758   -0.135819
     25          6           0        2.305202    7.278102   -0.804938
     26          7           0        7.047097    2.302067    0.155462
     27          6           0        6.930057    3.637362    0.180823
     28          6           0        8.351796    4.201213   -0.003595
     29          6           0        9.317121    2.980660    0.237593
     30          6           0        8.349740    1.902324    0.143741
     31          6           0        8.513389    4.993157   -1.356500
     32          6           0       10.219610    2.989143    1.541891
     33          6           0        9.602586    2.462112    2.832441
     34          7           0        6.482911   -0.477946    0.076203
     35          6           0        7.914843   -0.615602    0.171005
     36          6           0        8.282262   -2.039036    0.109972
     37          6           0        7.024796   -2.691568    0.056214
     38          6           0        6.002799   -1.718788    0.130968
     39          6           0        9.614825   -2.631388    0.033345
     40          6           0        6.476520   -3.944091   -0.110658
     41          8           0        7.005519   -4.999734   -0.251440
     42          6           0        4.915159   -3.807090    0.030321
     43          6           0        4.356729   -4.521783   -1.159395
     44          8           0        4.451996   -4.128733   -2.301823
     45          8           0        3.745396   -5.630532   -0.793105
     46          6           0        3.090894   -6.367651   -1.838348
     47          6           0       -1.988080   -4.200901   -0.296051
     48          6           0       -3.161878   -3.136577   -0.295144
     49          6           0       -4.459115   -3.415456   -0.700082
     50          6           0       -4.919524   -4.729651   -1.295767
     51          6           0       -5.583649   -2.367340   -0.466270
     52          6           0       -5.563070   -1.586232    0.864623
     53          6           0       -6.595135   -0.417383    0.761861
     54          6           0       -7.868679   -0.599404    1.700010
     55          6           0       -7.481624   -0.535784    3.159170
     56          6           0       -9.021321    0.408557    1.321029
     57          6           0      -10.111090   -0.156048    0.410304
     58          6           0      -11.397719   -0.579008    1.175822
     59          6           0      -12.474878    0.569934    1.198428
     60          6           0      -13.366698    0.548684    2.480125
     61          6           0      -13.367022    0.415129   -0.118237
     62          6           0      -13.516317    1.709024   -0.876181
     63          6           0      -14.869114    1.695267   -1.601172
     64          6           0      -15.852201    2.771139   -1.030656
     65          6           0      -17.086170    2.023253   -0.640296
     66          6           0      -16.073063    3.912687   -2.093350
     67          1           0        0.817787    1.878264   -0.689772
     68          1           0        6.021003    5.486518    0.202098
     69          1           0        9.845562    0.463688    0.155705
     70          1           0        2.064042   -2.729304   -0.534937
     71          1           0        0.454608   -0.480830    0.508490
     72          1           0        0.655840   -1.962007   -1.871187
     73          1           0        0.848687   -0.343644   -2.388512
     74          1           0       -0.518147   -0.792722   -1.333765
     75          1           0        1.565932   -1.900903    2.336383
     76          1           0        2.880416   -2.939633    1.978660
     77          1           0        0.471088   -3.841390    2.583518
     78          1           0        1.845866   -4.728198    1.650971
     79          1           0        0.443184    5.315395   -0.050086
     80          1           0        0.074214    3.699993   -0.684585
     81          1           0        0.503037    4.748151   -1.726087
     82          1           0        1.775516    6.798999   -1.627574
     83          1           0        2.562799    8.280376   -1.146142
     84          1           0        1.621465    7.403398    0.034747
     85          1           0        8.474692    4.933729    0.794457
     86          1           0        9.984368    3.028117   -0.622476
     87          1           0        8.589711    6.069782   -1.208523
     88          1           0        7.662454    4.761234   -1.998425
     89          1           0        9.444350    4.671739   -1.823770
     90          1           0       10.441212    4.056627    1.560364
     91          1           0       11.081623    2.359663    1.323417
     92          1           0        9.485633    3.270056    3.555703
     93          1           0       10.215010    1.669630    3.261411
     94          1           0        8.577141    2.139240    2.651709
     95          1           0       10.175330   -2.351944   -0.859070
     96          1           0        9.580611   -3.720329    0.023064
     97          1           0       10.166742   -2.348997    0.930085
     98          1           0        4.538482   -4.274686    0.940482
     99          1           0        3.883789   -6.743132   -2.486175
    100          1           0        2.331456   -5.767946   -2.340289
    101          1           0        2.538111   -7.089528   -1.238061
    102          1           0       -2.356676   -5.076617    0.237642
    103          1           0       -1.713318   -4.263467   -1.349582
    104          1           0       -3.034491   -2.148961    0.146948
    105          1           0       -5.230759   -5.299171   -0.419929
    106          1           0       -4.304688   -5.333636   -1.962262
    107          1           0       -5.780905   -4.521531   -1.931462
    108          1           0       -6.553472   -2.864799   -0.482346
    109          1           0       -5.498181   -1.670747   -1.300488
    110          1           0       -4.585581   -1.150264    1.070544
    111          1           0       -5.917033   -2.096664    1.760288
    112          1           0       -7.072037   -0.483333   -0.216778
    113          1           0       -6.043788    0.518285    0.861019
    114          1           0       -8.333941   -1.558971    1.476285
    115          1           0       -8.171389    0.001564    3.811136
    116          1           0       -6.547736    0.022751    3.210944
    117          1           0       -7.424349   -1.555317    3.541191
    118          1           0       -8.708007    1.391834    0.969641
    119          1           0       -9.489805    0.692048    2.263442
    120          1           0       -9.763792   -1.089062   -0.034839
    121          1           0      -10.261642    0.586235   -0.373378
    122          1           0      -11.139876   -0.643914    2.233466
    123          1           0      -11.670651   -1.592461    0.881466
    124          1           0      -11.940815    1.519496    1.204199
    125          1           0      -14.419687    0.705656    2.246146
    126          1           0      -13.026549    1.332974    3.156236
    127          1           0      -13.237084   -0.399971    3.001497
    128          1           0      -14.301741   -0.064668    0.173680
    129          1           0      -12.834099   -0.212683   -0.832194
    130          1           0      -12.679786    1.913366   -1.544886
    131          1           0      -13.429744    2.516740   -0.149063
    132          1           0      -15.268300    0.703467   -1.815677
    133          1           0      -14.535803    1.960884   -2.604064
    134          1           0      -15.482753    3.233119   -0.115196
    135          1           0      -17.571262    2.564661    0.171315
    136          1           0      -16.834950    1.002931   -0.349102
    137          1           0      -17.818443    1.917809   -1.441521
    138          1           0      -15.558418    3.803846   -3.047533
    139          1           0      -15.678807    4.878783   -1.778820
    140          1           0      -17.124524    4.135916   -2.272588
 ---------------------------------------------------------------------

 SCF Done:  E(RZINDO/S) =  -474.768094736     A.U. after   20 cycles

 Excitation energies and oscillator strengths:

 Excited State   1:      Singlet-A      1.2284 eV 1009.29 nm  f=0.5950  <S**2>=0.000
     175 ->178        -0.20354
     176 ->177         0.65898
 This state for optimization and/or second-order correction.
 Total Energy, E(CIS/TDA) =  -474.722950618
 Copying the excited state density for this state as the 1-particle RhoCI density.

 Excited State   2:      Singlet-A      1.8841 eV  658.04 nm  f=0.0325  <S**2>=0.000
     175 ->177         0.53464
     176 ->178         0.44008

 Excited State   3:      Singlet-A      2.8787 eV  430.70 nm  f=0.0108  <S**2>=0.000
     170 ->177         0.34561
     170 ->178        -0.13066
     170 ->179         0.33412
     170 ->180         0.24088
     170 ->186        -0.17751
     170 ->187        -0.12924
     171 ->177         0.15811
     171 ->179         0.10755
     176 ->179        -0.10953

 Excited State   4:      Singlet-A      2.9322 eV  422.84 nm  f=0.7617  <S**2>=0.000
     175 ->177        -0.32894
     176 ->178         0.44577
     176 ->179        -0.35384

 Excited State   5:      Singlet-A      3.0075 eV  412.25 nm  f=0.0249  <S**2>=0.000
     169 ->177         0.24986
     169 ->179        -0.29346
     169 ->180         0.36329
     169 ->186         0.19771
     169 ->187        -0.11331
     172 ->177        -0.15580
     176 ->179         0.21853

 The electronic state is 1-A.
 Alpha  occ. eigenvalues --   -1.84655  -1.83596  -1.82056  -1.78635  -1.75663
 Alpha  occ. eigenvalues --   -1.72471  -1.65271  -1.61297  -1.61026  -1.56422
 Alpha  occ. eigenvalues --   -1.55041  -1.52664  -1.48751  -1.48307  -1.47145
 Alpha  occ. eigenvalues --   -1.45699  -1.43555  -1.41471  -1.39262  -1.39083
 Alpha  occ. eigenvalues --   -1.37142  -1.34081  -1.32905  -1.32458  -1.28563
 Alpha  occ. eigenvalues --   -1.28085  -1.24898  -1.22566  -1.20376  -1.18616
 Alpha  occ. eigenvalues --   -1.17162  -1.16932  -1.15686  -1.13622  -1.13412
 Alpha  occ. eigenvalues --   -1.12593  -1.11158  -1.09778  -1.04697  -1.03473
 Alpha  occ. eigenvalues --   -1.02366  -1.00796  -0.98068  -0.97736  -0.97543
 Alpha  occ. eigenvalues --   -0.96001  -0.94833  -0.94135  -0.93972  -0.92702
 Alpha  occ. eigenvalues --   -0.91190  -0.90063  -0.89584  -0.87594  -0.87071
 Alpha  occ. eigenvalues --   -0.85071  -0.84850  -0.82408  -0.81997  -0.80623
 Alpha  occ. eigenvalues --   -0.79733  -0.78621  -0.77009  -0.76347  -0.76063
 Alpha  occ. eigenvalues --   -0.75656  -0.75321  -0.74895  -0.74239  -0.73758
 Alpha  occ. eigenvalues --   -0.73549  -0.72715  -0.72534  -0.71935  -0.71702
 Alpha  occ. eigenvalues --   -0.70158  -0.69419  -0.68926  -0.68679  -0.68538
 Alpha  occ. eigenvalues --   -0.67713  -0.67552  -0.66777  -0.66031  -0.65700
 Alpha  occ. eigenvalues --   -0.65174  -0.64422  -0.63914  -0.63841  -0.63573
 Alpha  occ. eigenvalues --   -0.63506  -0.63197  -0.62879  -0.62439  -0.62012
 Alpha  occ. eigenvalues --   -0.61427  -0.61279  -0.61131  -0.60667  -0.60298
 Alpha  occ. eigenvalues --   -0.59888  -0.59711  -0.58589  -0.58379  -0.58101
 Alpha  occ. eigenvalues --   -0.57559  -0.57484  -0.56914  -0.56600  -0.56294
 Alpha  occ. eigenvalues --   -0.56163  -0.55587  -0.55287  -0.54842  -0.54326
 Alpha  occ. eigenvalues --   -0.54196  -0.53912  -0.53280  -0.53029  -0.52681
 Alpha  occ. eigenvalues --   -0.52456  -0.52286  -0.51815  -0.51460  -0.50808
 Alpha  occ. eigenvalues --   -0.50556  -0.50368  -0.50265  -0.50169  -0.50048
 Alpha  occ. eigenvalues --   -0.49685  -0.49445  -0.48936  -0.48796  -0.48361
 Alpha  occ. eigenvalues --   -0.48249  -0.48174  -0.47861  -0.47792  -0.47563
 Alpha  occ. eigenvalues --   -0.47545  -0.47303  -0.47096  -0.46985  -0.46797
 Alpha  occ. eigenvalues --   -0.46497  -0.46131  -0.45935  -0.45359  -0.45205
 Alpha  occ. eigenvalues --   -0.44898  -0.44886  -0.44576  -0.44265  -0.43623
 Alpha  occ. eigenvalues --   -0.43333  -0.43187  -0.42664  -0.42605  -0.42268
 Alpha  occ. eigenvalues --   -0.41374  -0.40542  -0.39940  -0.39280  -0.38268
 Alpha  occ. eigenvalues --   -0.37240  -0.36690  -0.34987  -0.34701  -0.34174
 Alpha  occ. eigenvalues --   -0.32697  -0.31988  -0.31754  -0.31313  -0.26089
 Alpha  occ. eigenvalues --   -0.21322
 Alpha virt. eigenvalues --   -0.08173  -0.02024  -0.00158   0.01795   0.01968
 Alpha virt. eigenvalues --    0.03000   0.03485   0.03923   0.04103   0.05088
 Alpha virt. eigenvalues --    0.06337   0.06851   0.07753   0.08058   0.08571

 Mulliken charges:
               1
     1  Mg   0.421058
     2  C   -0.060304
     3  C   -0.076171
     4  C   -0.076743
     5  C   -0.079144
     6  N   -0.264357
     7  C    0.119003
     8  C    0.003380
     9  C    0.014523
    10  C    0.122429
    11  C   -0.046880
    12  C   -0.016566
    13  C    0.002166
    14  C    0.470861
    15  O   -0.507533
    16  O   -0.267438
    17  N   -0.322638
    18  C    0.087653
    19  C    0.016866
    20  C   -0.068372
    21  C    0.164258
    22  C   -0.041443
    23  C    0.325541
    24  O   -0.534171
    25  C   -0.030665
    26  N   -0.261825
    27  C    0.128589
    28  C   -0.002951
    29  C    0.001767
    30  C    0.142892
    31  C   -0.049536
    32  C   -0.025995
    33  C   -0.052925
    34  N   -0.329565
    35  C    0.082699
    36  C    0.045659
    37  C   -0.050026
    38  C    0.129014
    39  C   -0.028363
    40  C    0.345154
    41  O   -0.519265
    42  C    0.047902
    43  C    0.498312
    44  O   -0.536949
    45  O   -0.257108
    46  C    0.076805
    47  C    0.111844
    48  C   -0.121680
    49  C   -0.018958
    50  C   -0.044077
    51  C   -0.015107
    52  C   -0.040295
    53  C   -0.045924
    54  C   -0.011190
    55  C   -0.053959
    56  C   -0.041506
    57  C   -0.035432
    58  C   -0.039271
    59  C   -0.021683
    60  C   -0.060009
    61  C   -0.037408
    62  C   -0.032604
    63  C   -0.039384
    64  C    0.000174
    65  C   -0.050887
    66  C   -0.062472
    67  H    0.023161
    68  H    0.041012
    69  H    0.026741
    70  H    0.040801
    71  H    0.026470
    72  H    0.018858
    73  H    0.034014
    74  H    0.013691
    75  H    0.024562
    76  H    0.019039
    77  H    0.047012
    78  H    0.045371
    79  H    0.027501
    80  H    0.021475
    81  H    0.028391
    82  H    0.028699
    83  H    0.030829
    84  H    0.039799
    85  H    0.021158
    86  H    0.029130
    87  H    0.028119
    88  H    0.030217
    89  H    0.016255
    90  H    0.026440
    91  H    0.023046
    92  H    0.016581
    93  H    0.024772
    94  H    0.026651
    95  H    0.036088
    96  H    0.032059
    97  H    0.027197
    98  H    0.049077
    99  H    0.054307
   100  H    0.049179
   101  H    0.030202
   102  H    0.051501
   103  H    0.062754
   104  H    0.039997
   105  H    0.032456
   106  H    0.031176
   107  H    0.015553
   108  H    0.022629
   109  H    0.033077
   110  H    0.021078
   111  H    0.028582
   112  H    0.011079
   113  H    0.027377
   114  H    0.021716
   115  H    0.016607
   116  H    0.018903
   117  H    0.018913
   118  H    0.016272
   119  H    0.009375
   120  H    0.012384
   121  H    0.021474
   122  H    0.007657
   123  H    0.027571
   124  H    0.026663
   125  H    0.021392
   126  H    0.015443
   127  H    0.019705
   128  H    0.027370
   129  H    0.013982
   130  H    0.018581
   131  H    0.013963
   132  H    0.030351
   133  H    0.002670
   134  H    0.027682
   135  H    0.011252
   136  H    0.017327
   137  H    0.016970
   138  H    0.023391
   139  H    0.009730
   140  H    0.017721
 Sum of Mulliken charges =  -0.00000

 Dipole moment (field-independent basis, Debye):
    X=             -6.7864    Y=              1.4362    Z=              3.9989  Tot=              8.0068
 N-N= 4.301602214785D+03 E-N= 0.000000000000D+00  KE=-9.278267924914D+03
 Leave Link  601 at Wed May  4 20:14:40 2022, MaxMem=  6710886400 cpu:               2.4 elap:               0.1
 (Enter /sw/apps/gaussian-16.0/g16/l9999.exe)
 1\1\GINC-BP1-COMPUTE128\SP\RZINDO CIS\STO-3G\C55H74Mg1N4O6\OF15641\04-
 May-2022\0\\#p ZINDO=(nstates=5)\\step_401_chromophore_18 ZINDO\\0,1\M
 g,0,34.837,49.313,25.046\C,0,34.906,47.522,28.07\C,0,32.932,51.81,26.6
 99\C,0,34.721,51.103,22.313\C,0,36.195,46.551,23.424\N,0,34.069,49.677
 ,27.101\C,0,34.375,48.877,28.201\C,0,34.096,49.576,29.528\C,0,33.242,5
 0.778,29.076\C,0,33.468,50.786,27.535\C,0,31.768,50.708,29.373\C,0,35.
 357,49.751,30.438\C,0,35.207,49.5,31.909\C,0,33.757,49.44,32.468\O,0,3

 Normal termination of Gaussian 16 at Wed May  4 20:14:40 2022.
