 Gaussian 16, Revision A.03,
 Gaussian 16:  ES64L-G16RevA.03 25-Dec-2016

 ------------------------------
 #p blyp/Def2SVP td=(nstates=5)
 ------------------------------

 --------------------------------------------------
 step_651_chromophore_17 TDDFT with blyp functional
 --------------------------------------------------
 Symbolic Z-matrix:
 Charge =  0 Multiplicity = 1

                         Standard orientation:
 ---------------------------------------------------------------------
 Center     Atomic      Atomic             Coordinates (Angstroms)
 Number     Number       Type             X           Y           Z
 ---------------------------------------------------------------------
      1         12           0        3.886614    1.528034   -0.964458
      2          6           0        4.282802   -1.989283   -0.486909
      3          6           0        1.398488    0.813138   -3.108750
      4          6           0        2.918432    4.546367   -0.496501
      5          6           0        6.049036    1.802080    1.964551
      6          7           0        2.946037   -0.407269   -1.668058
      7          6           0        3.288218   -1.694572   -1.415678
      8          6           0        2.263858   -2.658738   -2.088092
      9          6           0        1.623818   -1.720756   -3.202270
     10          6           0        2.019607   -0.306479   -2.596250
     11          6           0        2.059203   -2.017627   -4.714729
     12          6           0        1.368723   -3.206141   -0.976885
     13          6           0        0.985142   -4.679474   -1.003746
     14          6           0       -0.556588   -4.910659   -0.901263
     15          8           0       -1.414295   -4.681385   -1.702704
     16          8           0       -0.855141   -5.321580    0.389894
     17          7           0        2.424073    2.573321   -1.773739
     18          6           0        1.543180    2.167147   -2.719442
     19          6           0        0.840611    3.311279   -3.216039
     20          6           0        1.215141    4.425643   -2.421059
     21          6           0        2.164401    3.851969   -1.455862
     22          6           0       -0.198395    3.279736   -4.379478
     23          6           0        0.585754    5.809725   -2.464508
     24          8           0       -0.112161    6.101093   -3.408012
     25          6           0        0.934765    6.909725   -1.464171
     26          7           0        4.158423    2.920784    0.832667
     27          6           0        3.786369    4.207493    0.500637
     28          6           0        4.475573    5.184503    1.581203
     29          6           0        5.295870    4.266250    2.469901
     30          6           0        5.202436    2.893971    1.704232
     31          6           0        5.300682    6.314823    0.847159
     32          6           0        4.863450    4.066252    3.941006
     33          6           0        5.070025    5.268259    4.828772
     34          7           0        5.234368    0.246061    0.216400
     35          6           0        5.987810    0.525341    1.346353
     36          6           0        6.630639   -0.689210    1.775322
     37          6           0        6.003897   -1.754990    1.085120
     38          6           0        5.138771   -1.099375    0.175504
     39          6           0        7.544491   -0.766735    3.006174
     40          6           0        5.891964   -3.209581    0.891881
     41          8           0        6.449563   -4.236219    1.352245
     42          6           0        4.700156   -3.415455   -0.033856
     43          6           0        5.164795   -4.316059   -1.205263
     44          8           0        5.992252   -4.040628   -2.044620
     45          8           0        4.405399   -5.423431   -1.259658
     46          6           0        4.705013   -6.485342   -2.209642
     47          6           0       -2.300339   -5.625056    0.672653
     48          6           0       -3.010623   -4.471981    1.385941
     49          6           0       -4.330599   -4.269462    1.489268
     50          6           0       -5.543234   -5.210257    1.044996
     51          6           0       -4.802902   -2.956122    2.004764
     52          6           0       -4.488813   -2.723523    3.484289
     53          6           0       -3.904928   -1.298910    3.851550
     54          6           0       -5.020131   -0.399384    4.400039
     55          6           0       -4.820235   -0.012568    5.868892
     56          6           0       -5.227250    0.915902    3.558746
     57          6           0       -6.557776    0.834236    2.816151
     58          6           0       -6.532538    1.251975    1.323474
     59          6           0       -7.640585    0.603136    0.444133
     60          6           0       -7.235274   -0.697390   -0.133914
     61          6           0       -8.177350    1.579366   -0.590935
     62          6           0       -9.687133    1.867140   -0.524197
     63          6           0      -10.577394    1.262024   -1.599054
     64          6           0      -11.969998    2.023233   -1.618232
     65          6           0      -13.034886    1.469464   -0.628658
     66          6           0      -12.605354    1.995525   -3.035261
     67          1           0        0.643194    0.563750   -3.856602
     68          1           0        2.702416    5.601529   -0.313785
     69          1           0        6.733045    2.043430    2.780755
     70          1           0        2.801719   -3.427147   -2.643054
     71          1           0        0.534584   -1.683660   -3.227139
     72          1           0        3.001684   -1.561851   -5.018108
     73          1           0        1.245894   -1.733813   -5.381905
     74          1           0        2.222683   -3.081738   -4.888622
     75          1           0        0.459015   -2.611168   -0.897007
     76          1           0        1.845160   -3.077087   -0.004844
     77          1           0        1.530261   -5.180569   -0.204097
     78          1           0        1.473621   -5.081711   -1.890167
     79          1           0       -1.239506    3.495940   -4.144221
     80          1           0       -0.160971    2.322540   -4.900508
     81          1           0        0.112675    4.038613   -5.097071
     82          1           0        0.723339    6.618008   -0.435729
     83          1           0        0.312045    7.759451   -1.740855
     84          1           0        1.945561    7.281402   -1.635121
     85          1           0        3.631492    5.591525    2.137547
     86          1           0        6.348501    4.550054    2.470605
     87          1           0        5.028568    6.377325   -0.206757
     88          1           0        6.351037    6.036517    0.939102
     89          1           0        5.015021    7.264437    1.300709
     90          1           0        5.461026    3.256234    4.361225
     91          1           0        3.807842    3.800543    3.993751
     92          1           0        4.041428    5.433957    5.148637
     93          1           0        5.426564    6.117765    4.246607
     94          1           0        5.705852    4.907134    5.637275
     95          1           0        8.119252   -1.681489    3.148035
     96          1           0        6.977790   -0.599633    3.920845
     97          1           0        8.205481    0.095889    2.923292
     98          1           0        3.928737   -3.961382    0.508922
     99          1           0        4.199338   -7.346913   -1.773574
    100          1           0        5.763088   -6.709423   -2.345867
    101          1           0        4.363285   -6.223777   -3.211624
    102          1           0       -2.363136   -6.476443    1.349606
    103          1           0       -2.920808   -5.946579   -0.163873
    104          1           0       -2.344903   -3.719412    1.807839
    105          1           0       -6.108744   -5.397271    1.957802
    106          1           0       -5.227125   -6.178657    0.657127
    107          1           0       -6.223285   -4.795970    0.300806
    108          1           0       -5.889293   -2.996543    1.931345
    109          1           0       -4.391869   -2.117484    1.442279
    110          1           0       -3.791261   -3.473130    3.858602
    111          1           0       -5.434026   -2.890049    4.000863
    112          1           0       -3.368328   -0.871704    3.004446
    113          1           0       -3.109578   -1.409889    4.588907
    114          1           0       -5.973626   -0.926569    4.440162
    115          1           0       -4.425537    0.984105    6.064220
    116          1           0       -4.186324   -0.630330    6.506316
    117          1           0       -5.743978   -0.124802    6.435879
    118          1           0       -4.441760    1.048186    2.814161
    119          1           0       -5.189020    1.840418    4.134306
    120          1           0       -7.409764    1.385683    3.213483
    121          1           0       -6.920544   -0.191217    2.750252
    122          1           0       -5.511920    1.185624    0.946930
    123          1           0       -6.814277    2.304204    1.288792
    124          1           0       -8.405375    0.408513    1.196158
    125          1           0       -6.146492   -0.723404   -0.092222
    126          1           0       -7.526119   -0.905946   -1.163207
    127          1           0       -7.645477   -1.494587    0.486657
    128          1           0       -7.991204    1.228148   -1.605874
    129          1           0       -7.692534    2.544427   -0.439177
    130          1           0       -9.702148    2.955631   -0.462062
    131          1           0      -10.042913    1.453522    0.419155
    132          1           0      -10.650578    0.243440   -1.218602
    133          1           0       -9.948383    1.316570   -2.487986
    134          1           0      -11.762770    3.038572   -1.279976
    135          1           0      -13.842088    0.906690   -1.098892
    136          1           0      -13.545018    2.314177   -0.167023
    137          1           0      -12.481972    0.849636    0.077025
    138          1           0      -12.114863    2.742891   -3.659786
    139          1           0      -13.650129    2.292185   -2.950352
    140          1           0      -12.512945    1.019770   -3.511679
 ---------------------------------------------------------------------

 SCF Done:  E(RB-LYP) =  -3007.36619607     A.U. after   21 cycles

 Excitation energies and oscillator strengths:

 Excited State   1:      Singlet-A      1.8437 eV  672.49 nm  f=0.3024  <S**2>=0.000
     245 -> 248        0.18656
     246 -> 247        0.68426
     246 <- 247       -0.14835
 This state for optimization and/or second-order correction.
 Total Energy, E(TD-HF/TD-DFT) =  -3007.29844274
 Copying the excited state density for this state as the 1-particle RhoCI density.

 Excited State   2:      Singlet-A      1.8885 eV  656.52 nm  f=0.0091  <S**2>=0.000
     244 -> 247        0.69947

 Excited State   3:      Singlet-A      1.9456 eV  637.25 nm  f=0.0039  <S**2>=0.000
     243 -> 247        0.68375
     245 -> 247        0.16923

 Excited State   4:      Singlet-A      2.0135 eV  615.77 nm  f=0.0758  <S**2>=0.000
     241 -> 247       -0.11267
     243 -> 247       -0.17752
     245 -> 247        0.63157
     246 -> 248       -0.20635

 Excited State   5:      Singlet-A      2.1151 eV  586.18 nm  f=0.0002  <S**2>=0.000
     242 -> 247        0.70670

 The electronic state is 1-A.
 Alpha  occ. eigenvalues --  -46.29061 -18.82523 -18.81783 -18.77034 -18.76410
 Alpha  occ. eigenvalues --  -18.75699 -18.75566 -14.03434 -14.02709 -14.01539
 Alpha  occ. eigenvalues --  -14.01374 -10.04191 -10.03970 -10.00083  -9.99850
 Alpha  occ. eigenvalues --   -9.98284  -9.97901  -9.96702  -9.96689  -9.96618
 Alpha  occ. eigenvalues --   -9.96495  -9.96181  -9.96081  -9.95670  -9.94917
 Alpha  occ. eigenvalues --   -9.94586  -9.94523  -9.94469  -9.93949  -9.93944
 Alpha  occ. eigenvalues --   -9.93937  -9.93818  -9.93798  -9.93396  -9.93218
 Alpha  occ. eigenvalues --   -9.93154  -9.93069  -9.92910  -9.92862  -9.92782
 Alpha  occ. eigenvalues --   -9.92667  -9.92664  -9.92648  -9.92523  -9.92394
 Alpha  occ. eigenvalues --   -9.92255  -9.92130  -9.91988  -9.91984  -9.91895
 Alpha  occ. eigenvalues --   -9.91845  -9.91583  -9.91225  -9.91184  -9.91137
 Alpha  occ. eigenvalues --   -9.91083  -9.91014  -9.90835  -9.90767  -9.90696
 Alpha  occ. eigenvalues --   -9.90606  -9.90343  -9.90308  -9.90171  -9.90114
 Alpha  occ. eigenvalues --   -9.90107  -2.93547  -1.73904  -1.73498  -1.73246
 Alpha  occ. eigenvalues --   -0.98757  -0.97552  -0.92506  -0.90231  -0.89795
 Alpha  occ. eigenvalues --   -0.89542  -0.87534  -0.86826  -0.86098  -0.84869
 Alpha  occ. eigenvalues --   -0.75496  -0.73549  -0.73123  -0.72922  -0.72802
 Alpha  occ. eigenvalues --   -0.72072  -0.71722  -0.70818  -0.70714  -0.69901
 Alpha  occ. eigenvalues --   -0.69371  -0.68713  -0.68050  -0.67853  -0.67489
 Alpha  occ. eigenvalues --   -0.66614  -0.66220  -0.65556  -0.65201  -0.64892
 Alpha  occ. eigenvalues --   -0.63842  -0.62445  -0.62288  -0.61786  -0.61054
 Alpha  occ. eigenvalues --   -0.60326  -0.60084  -0.59843  -0.59510  -0.58877
 Alpha  occ. eigenvalues --   -0.58344  -0.57930  -0.56872  -0.55601  -0.54421
 Alpha  occ. eigenvalues --   -0.53842  -0.53332  -0.53170  -0.51975  -0.51892
 Alpha  occ. eigenvalues --   -0.51088  -0.50965  -0.50754  -0.50561  -0.49983
 Alpha  occ. eigenvalues --   -0.49443  -0.49339  -0.49118  -0.48881  -0.46570
 Alpha  occ. eigenvalues --   -0.46262  -0.46096  -0.45785  -0.45003  -0.44666
 Alpha  occ. eigenvalues --   -0.44348  -0.43979  -0.43312  -0.42361  -0.42168
 Alpha  occ. eigenvalues --   -0.42036  -0.41850  -0.41699  -0.41382  -0.41136
 Alpha  occ. eigenvalues --   -0.41016  -0.40950  -0.40718  -0.40209  -0.39976
 Alpha  occ. eigenvalues --   -0.39776  -0.39765  -0.39673  -0.39194  -0.39092
 Alpha  occ. eigenvalues --   -0.38720  -0.38497  -0.38392  -0.38288  -0.38060
 Alpha  occ. eigenvalues --   -0.37900  -0.37688  -0.37540  -0.37439  -0.37083
 Alpha  occ. eigenvalues --   -0.36894  -0.36765  -0.36572  -0.36530  -0.36326
 Alpha  occ. eigenvalues --   -0.36211  -0.36021  -0.35983  -0.35575  -0.35377
 Alpha  occ. eigenvalues --   -0.35293  -0.34981  -0.34861  -0.34641  -0.34609
 Alpha  occ. eigenvalues --   -0.34464  -0.34368  -0.34233  -0.34111  -0.34078
 Alpha  occ. eigenvalues --   -0.34001  -0.33802  -0.33562  -0.33360  -0.33222
 Alpha  occ. eigenvalues --   -0.33072  -0.33013  -0.32759  -0.32712  -0.32486
 Alpha  occ. eigenvalues --   -0.32313  -0.32028  -0.31925  -0.31761  -0.31308
 Alpha  occ. eigenvalues --   -0.31229  -0.31097  -0.30913  -0.30811  -0.30506
 Alpha  occ. eigenvalues --   -0.30336  -0.30212  -0.30019  -0.29848  -0.29808
 Alpha  occ. eigenvalues --   -0.29547  -0.29464  -0.29317  -0.29029  -0.28902
 Alpha  occ. eigenvalues --   -0.28752  -0.28267  -0.28192  -0.28111  -0.27808
 Alpha  occ. eigenvalues --   -0.27638  -0.27011  -0.26976  -0.26811  -0.26763
 Alpha  occ. eigenvalues --   -0.26322  -0.26018  -0.25607  -0.25491  -0.25365
 Alpha  occ. eigenvalues --   -0.25021  -0.24896  -0.24587  -0.24124  -0.23722
 Alpha  occ. eigenvalues --   -0.23475  -0.22790  -0.22085  -0.21663  -0.21061
 Alpha  occ. eigenvalues --   -0.20587  -0.19594  -0.18921  -0.18641  -0.17551
 Alpha  occ. eigenvalues --   -0.16183
 Alpha virt. eigenvalues --   -0.11822  -0.06994  -0.06385  -0.04877  -0.04299
 Alpha virt. eigenvalues --   -0.02535  -0.02090  -0.01910  -0.01472   0.00261
 Alpha virt. eigenvalues --    0.01326   0.01934   0.02140   0.02202   0.02783

 Mulliken charges:
               1
     1  Mg   0.708279
     2  C    0.015602
     3  C   -0.067191
     4  C   -0.017204
     5  C   -0.051780
     6  N   -0.166642
     7  C   -0.131136
     8  C    0.052944
     9  C   -0.018091
    10  C    0.002311
    11  C    0.114024
    12  C    0.118535
    13  C    0.150519
    14  C    0.075154
    15  O   -0.157710
    16  O   -0.288807
    17  N   -0.324691
    18  C    0.160872
    19  C   -0.136190
    20  C    0.044373
    21  C    0.147981
    22  C    0.177602
    23  C   -0.098879
    24  O   -0.152267
    25  C    0.139034
    26  N   -0.215708
    27  C   -0.075254
    28  C    0.036480
    29  C    0.029243
    30  C   -0.034582
    31  C    0.131907
    32  C    0.049346
    33  C    0.111658
    34  N   -0.218090
    35  C    0.145514
    36  C   -0.184496
    37  C    0.066073
    38  C    0.078915
    39  C    0.157003
    40  C   -0.005696
    41  O   -0.168122
    42  C    0.063810
    43  C    0.088301
    44  O   -0.168812
    45  O   -0.257145
    46  C    0.216164
    47  C    0.312949
    48  C   -0.111978
    49  C   -0.133752
    50  C    0.112967
    51  C    0.149518
    52  C    0.035091
    53  C    0.134536
    54  C   -0.049575
    55  C    0.082683
    56  C    0.158102
    57  C    0.033481
    58  C    0.068251
    59  C   -0.095150
    60  C    0.139719
    61  C    0.144447
    62  C   -0.003340
    63  C    0.122090
    64  C   -0.076812
    65  C    0.096307
    66  C    0.111807
    67  H   -0.062849
    68  H   -0.076191
    69  H   -0.062391
    70  H   -0.025069
    71  H   -0.019567
    72  H   -0.001483
    73  H   -0.001024
    74  H   -0.007279
    75  H   -0.010817
    76  H   -0.013460
    77  H   -0.008839
    78  H   -0.015315
    79  H    0.009623
    80  H   -0.027985
    81  H    0.003746
    82  H    0.014193
    83  H   -0.017667
    84  H    0.020324
    85  H   -0.025357
    86  H   -0.040644
    87  H   -0.008284
    88  H   -0.003406
    89  H   -0.000678
    90  H   -0.028674
    91  H   -0.021754
    92  H   -0.010522
    93  H   -0.004196
    94  H   -0.000085
    95  H    0.011752
    96  H    0.002255
    97  H   -0.008353
    98  H    0.001084
    99  H    0.023203
   100  H    0.021395
   101  H    0.010395
   102  H   -0.001966
   103  H    0.006909
   104  H   -0.032861
   105  H   -0.000889
   106  H   -0.022185
   107  H    0.013253
   108  H   -0.040705
   109  H   -0.000551
   110  H   -0.026598
   111  H   -0.032722
   112  H   -0.036237
   113  H   -0.040909
   114  H   -0.019495
   115  H   -0.018626
   116  H   -0.035252
   117  H   -0.028406
   118  H   -0.040257
   119  H   -0.033369
   120  H   -0.029590
   121  H   -0.031829
   122  H   -0.033594
   123  H   -0.048255
   124  H   -0.044076
   125  H   -0.018599
   126  H   -0.020984
   127  H   -0.016133
   128  H   -0.045748
   129  H   -0.044311
   130  H   -0.034039
   131  H   -0.039250
   132  H   -0.032584
   133  H   -0.030387
   134  H   -0.031994
   135  H   -0.016201
   136  H   -0.014541
   137  H   -0.016747
   138  H   -0.021185
   139  H   -0.022354
   140  H   -0.007308
 Sum of Mulliken charges =  -0.00000

 Dipole moment (field-independent basis, Debye):
    X=             -1.0196    Y=              1.8887    Z=              1.9937  Tot=              2.9295
 Quadrupole moment (field-independent basis, Debye-Ang):
   XX=           -415.9402   YY=           -397.4533   ZZ=           -403.7137
   XY=             41.8828   XZ=             -6.5935   YZ=             25.3250

 Normal termination of Gaussian 16 at Sat Apr 30 08:03:58 2022.
