 Gaussian 16, Revision A.03,
 Gaussian 16:  ES64L-G16RevA.03 25-Dec-2016

 -----------------------------------
 #p cam-b3lyp/Def2SVP td=(nstates=5)
 -----------------------------------

 -------------------------------------------------------
 step_651_chromophore_17 TDDFT with cam-b3lyp functional
 -------------------------------------------------------
 Symbolic Z-matrix:
 Charge =  0 Multiplicity = 1

                         Standard orientation:
 ---------------------------------------------------------------------
 Center     Atomic      Atomic             Coordinates (Angstroms)
 Number     Number       Type             X           Y           Z
 ---------------------------------------------------------------------
      1         12           0        3.886614    1.528034   -0.964458
      2          6           0        4.282802   -1.989283   -0.486909
      3          6           0        1.398488    0.813138   -3.108750
      4          6           0        2.918432    4.546367   -0.496501
      5          6           0        6.049036    1.802080    1.964551
      6          7           0        2.946037   -0.407269   -1.668058
      7          6           0        3.288218   -1.694572   -1.415678
      8          6           0        2.263858   -2.658738   -2.088092
      9          6           0        1.623818   -1.720756   -3.202270
     10          6           0        2.019607   -0.306479   -2.596250
     11          6           0        2.059203   -2.017627   -4.714729
     12          6           0        1.368723   -3.206141   -0.976885
     13          6           0        0.985142   -4.679474   -1.003746
     14          6           0       -0.556588   -4.910659   -0.901263
     15          8           0       -1.414295   -4.681385   -1.702704
     16          8           0       -0.855141   -5.321580    0.389894
     17          7           0        2.424073    2.573321   -1.773739
     18          6           0        1.543180    2.167147   -2.719442
     19          6           0        0.840611    3.311279   -3.216039
     20          6           0        1.215141    4.425643   -2.421059
     21          6           0        2.164401    3.851969   -1.455862
     22          6           0       -0.198395    3.279736   -4.379478
     23          6           0        0.585754    5.809725   -2.464508
     24          8           0       -0.112161    6.101093   -3.408012
     25          6           0        0.934765    6.909725   -1.464171
     26          7           0        4.158423    2.920784    0.832667
     27          6           0        3.786369    4.207493    0.500637
     28          6           0        4.475573    5.184503    1.581203
     29          6           0        5.295870    4.266250    2.469901
     30          6           0        5.202436    2.893971    1.704232
     31          6           0        5.300682    6.314823    0.847159
     32          6           0        4.863450    4.066252    3.941006
     33          6           0        5.070025    5.268259    4.828772
     34          7           0        5.234368    0.246061    0.216400
     35          6           0        5.987810    0.525341    1.346353
     36          6           0        6.630639   -0.689210    1.775322
     37          6           0        6.003897   -1.754990    1.085120
     38          6           0        5.138771   -1.099375    0.175504
     39          6           0        7.544491   -0.766735    3.006174
     40          6           0        5.891964   -3.209581    0.891881
     41          8           0        6.449563   -4.236219    1.352245
     42          6           0        4.700156   -3.415455   -0.033856
     43          6           0        5.164795   -4.316059   -1.205263
     44          8           0        5.992252   -4.040628   -2.044620
     45          8           0        4.405399   -5.423431   -1.259658
     46          6           0        4.705013   -6.485342   -2.209642
     47          6           0       -2.300339   -5.625056    0.672653
     48          6           0       -3.010623   -4.471981    1.385941
     49          6           0       -4.330599   -4.269462    1.489268
     50          6           0       -5.543234   -5.210257    1.044996
     51          6           0       -4.802902   -2.956122    2.004764
     52          6           0       -4.488813   -2.723523    3.484289
     53          6           0       -3.904928   -1.298910    3.851550
     54          6           0       -5.020131   -0.399384    4.400039
     55          6           0       -4.820235   -0.012568    5.868892
     56          6           0       -5.227250    0.915902    3.558746
     57          6           0       -6.557776    0.834236    2.816151
     58          6           0       -6.532538    1.251975    1.323474
     59          6           0       -7.640585    0.603136    0.444133
     60          6           0       -7.235274   -0.697390   -0.133914
     61          6           0       -8.177350    1.579366   -0.590935
     62          6           0       -9.687133    1.867140   -0.524197
     63          6           0      -10.577394    1.262024   -1.599054
     64          6           0      -11.969998    2.023233   -1.618232
     65          6           0      -13.034886    1.469464   -0.628658
     66          6           0      -12.605354    1.995525   -3.035261
     67          1           0        0.643194    0.563750   -3.856602
     68          1           0        2.702416    5.601529   -0.313785
     69          1           0        6.733045    2.043430    2.780755
     70          1           0        2.801719   -3.427147   -2.643054
     71          1           0        0.534584   -1.683660   -3.227139
     72          1           0        3.001684   -1.561851   -5.018108
     73          1           0        1.245894   -1.733813   -5.381905
     74          1           0        2.222683   -3.081738   -4.888622
     75          1           0        0.459015   -2.611168   -0.897007
     76          1           0        1.845160   -3.077087   -0.004844
     77          1           0        1.530261   -5.180569   -0.204097
     78          1           0        1.473621   -5.081711   -1.890167
     79          1           0       -1.239506    3.495940   -4.144221
     80          1           0       -0.160971    2.322540   -4.900508
     81          1           0        0.112675    4.038613   -5.097071
     82          1           0        0.723339    6.618008   -0.435729
     83          1           0        0.312045    7.759451   -1.740855
     84          1           0        1.945561    7.281402   -1.635121
     85          1           0        3.631492    5.591525    2.137547
     86          1           0        6.348501    4.550054    2.470605
     87          1           0        5.028568    6.377325   -0.206757
     88          1           0        6.351037    6.036517    0.939102
     89          1           0        5.015021    7.264437    1.300709
     90          1           0        5.461026    3.256234    4.361225
     91          1           0        3.807842    3.800543    3.993751
     92          1           0        4.041428    5.433957    5.148637
     93          1           0        5.426564    6.117765    4.246607
     94          1           0        5.705852    4.907134    5.637275
     95          1           0        8.119252   -1.681489    3.148035
     96          1           0        6.977790   -0.599633    3.920845
     97          1           0        8.205481    0.095889    2.923292
     98          1           0        3.928737   -3.961382    0.508922
     99          1           0        4.199338   -7.346913   -1.773574
    100          1           0        5.763088   -6.709423   -2.345867
    101          1           0        4.363285   -6.223777   -3.211624
    102          1           0       -2.363136   -6.476443    1.349606
    103          1           0       -2.920808   -5.946579   -0.163873
    104          1           0       -2.344903   -3.719412    1.807839
    105          1           0       -6.108744   -5.397271    1.957802
    106          1           0       -5.227125   -6.178657    0.657127
    107          1           0       -6.223285   -4.795970    0.300806
    108          1           0       -5.889293   -2.996543    1.931345
    109          1           0       -4.391869   -2.117484    1.442279
    110          1           0       -3.791261   -3.473130    3.858602
    111          1           0       -5.434026   -2.890049    4.000863
    112          1           0       -3.368328   -0.871704    3.004446
    113          1           0       -3.109578   -1.409889    4.588907
    114          1           0       -5.973626   -0.926569    4.440162
    115          1           0       -4.425537    0.984105    6.064220
    116          1           0       -4.186324   -0.630330    6.506316
    117          1           0       -5.743978   -0.124802    6.435879
    118          1           0       -4.441760    1.048186    2.814161
    119          1           0       -5.189020    1.840418    4.134306
    120          1           0       -7.409764    1.385683    3.213483
    121          1           0       -6.920544   -0.191217    2.750252
    122          1           0       -5.511920    1.185624    0.946930
    123          1           0       -6.814277    2.304204    1.288792
    124          1           0       -8.405375    0.408513    1.196158
    125          1           0       -6.146492   -0.723404   -0.092222
    126          1           0       -7.526119   -0.905946   -1.163207
    127          1           0       -7.645477   -1.494587    0.486657
    128          1           0       -7.991204    1.228148   -1.605874
    129          1           0       -7.692534    2.544427   -0.439177
    130          1           0       -9.702148    2.955631   -0.462062
    131          1           0      -10.042913    1.453522    0.419155
    132          1           0      -10.650578    0.243440   -1.218602
    133          1           0       -9.948383    1.316570   -2.487986
    134          1           0      -11.762770    3.038572   -1.279976
    135          1           0      -13.842088    0.906690   -1.098892
    136          1           0      -13.545018    2.314177   -0.167023
    137          1           0      -12.481972    0.849636    0.077025
    138          1           0      -12.114863    2.742891   -3.659786
    139          1           0      -13.650129    2.292185   -2.950352
    140          1           0      -12.512945    1.019770   -3.511679
 ---------------------------------------------------------------------

 SCF Done:  E(RCAM-B3LYP) =  -3007.16139616     A.U. after   17 cycles

 Excitation energies and oscillator strengths:

 Excited State   1:      Singlet-A      1.7243 eV  719.06 nm  f=0.3841  <S**2>=0.000
     245 -> 248        0.18181
     246 -> 247        0.68444
     245 <- 248        0.10738
 This state for optimization and/or second-order correction.
 Total Energy, E(TD-HF/TD-DFT) =  -3007.09803057
 Copying the excited state density for this state as the 1-particle RhoCI density.

 Excited State   2:      Singlet-A      2.2422 eV  552.95 nm  f=0.1180  <S**2>=0.000
     245 -> 247        0.64446
     246 -> 248       -0.27312

 Excited State   3:      Singlet-A      3.3832 eV  366.47 nm  f=0.0132  <S**2>=0.000
     241 -> 247        0.11891
     243 -> 247        0.61760
     246 -> 248       -0.26392

 Excited State   4:      Singlet-A      3.4333 eV  361.12 nm  f=0.0044  <S**2>=0.000
     241 -> 247        0.53001
     241 -> 249       -0.30195
     241 -> 250        0.20128
     241 -> 251        0.14882
     242 -> 247        0.11883
     243 -> 247       -0.13450

 Excited State   5:      Singlet-A      3.5404 eV  350.20 nm  f=0.1543  <S**2>=0.000
     242 -> 247        0.47501
     243 -> 247       -0.17137
     245 -> 247       -0.13796
     246 -> 248       -0.37800
     246 -> 249       -0.15685
     246 -> 250       -0.19688

 The electronic state is 1-A.
 Alpha  occ. eigenvalues --  -46.90728 -19.25492 -19.24609 -19.20044 -19.19498
 Alpha  occ. eigenvalues --  -19.18941 -19.18911 -14.42386 -14.41402 -14.40006
 Alpha  occ. eigenvalues --  -14.39759 -10.39468 -10.39378 -10.35360 -10.35212
 Alpha  occ. eigenvalues --  -10.32320 -10.31956 -10.31243 -10.31180 -10.31079
 Alpha  occ. eigenvalues --  -10.30978 -10.30549 -10.30370 -10.29893 -10.29229
 Alpha  occ. eigenvalues --  -10.28622 -10.28617 -10.28566 -10.28436 -10.28406
 Alpha  occ. eigenvalues --  -10.28389 -10.28191 -10.27875 -10.27376 -10.27128
 Alpha  occ. eigenvalues --  -10.27080 -10.27071 -10.26963 -10.26817 -10.26769
 Alpha  occ. eigenvalues --  -10.26651 -10.26494 -10.26486 -10.26337 -10.26320
 Alpha  occ. eigenvalues --  -10.26146 -10.26096 -10.25877 -10.25809 -10.25583
 Alpha  occ. eigenvalues --  -10.25568 -10.25519 -10.24864 -10.24816 -10.24761
 Alpha  occ. eigenvalues --  -10.24724 -10.24673 -10.24491 -10.24348 -10.24327
 Alpha  occ. eigenvalues --  -10.24183 -10.23982 -10.23905 -10.23811 -10.23757
 Alpha  occ. eigenvalues --  -10.23651  -3.19105  -1.93941  -1.93596  -1.93398
 Alpha  occ. eigenvalues --   -1.17348  -1.16040  -1.10937  -1.08396  -1.07872
 Alpha  occ. eigenvalues --   -1.07593  -1.05304  -1.04494  -1.03700  -1.02402
 Alpha  occ. eigenvalues --   -0.92694  -0.90404  -0.89942  -0.89651  -0.89562
 Alpha  occ. eigenvalues --   -0.88734  -0.88391  -0.87381  -0.87288  -0.86406
 Alpha  occ. eigenvalues --   -0.85966  -0.85039  -0.84236  -0.84030  -0.83673
 Alpha  occ. eigenvalues --   -0.82654  -0.82261  -0.81431  -0.81204  -0.80846
 Alpha  occ. eigenvalues --   -0.79559  -0.78059  -0.77897  -0.77400  -0.76557
 Alpha  occ. eigenvalues --   -0.75641  -0.75376  -0.75185  -0.74809  -0.74106
 Alpha  occ. eigenvalues --   -0.73390  -0.72920  -0.71753  -0.70391  -0.69054
 Alpha  occ. eigenvalues --   -0.68359  -0.67890  -0.67711  -0.66244  -0.66162
 Alpha  occ. eigenvalues --   -0.65116  -0.64946  -0.64751  -0.64667  -0.64079
 Alpha  occ. eigenvalues --   -0.63179  -0.63088  -0.63065  -0.62804  -0.60225
 Alpha  occ. eigenvalues --   -0.59752  -0.59603  -0.59378  -0.58438  -0.58178
 Alpha  occ. eigenvalues --   -0.57797  -0.57508  -0.56596  -0.55689  -0.55248
 Alpha  occ. eigenvalues --   -0.55205  -0.54662  -0.54594  -0.54300  -0.54094
 Alpha  occ. eigenvalues --   -0.53879  -0.53745  -0.53603  -0.52893  -0.52642
 Alpha  occ. eigenvalues --   -0.52532  -0.52466  -0.52303  -0.51884  -0.51721
 Alpha  occ. eigenvalues --   -0.51665  -0.51163  -0.51024  -0.50682  -0.50548
 Alpha  occ. eigenvalues --   -0.50418  -0.49959  -0.49789  -0.49725  -0.49413
 Alpha  occ. eigenvalues --   -0.49284  -0.49109  -0.48994  -0.48812  -0.48612
 Alpha  occ. eigenvalues --   -0.48565  -0.48351  -0.48139  -0.47949  -0.47435
 Alpha  occ. eigenvalues --   -0.47263  -0.47046  -0.46860  -0.46683  -0.46597
 Alpha  occ. eigenvalues --   -0.46270  -0.46216  -0.46169  -0.46003  -0.45907
 Alpha  occ. eigenvalues --   -0.45748  -0.45676  -0.45204  -0.45140  -0.44864
 Alpha  occ. eigenvalues --   -0.44770  -0.44736  -0.44483  -0.44285  -0.44091
 Alpha  occ. eigenvalues --   -0.43914  -0.43631  -0.43459  -0.43329  -0.42896
 Alpha  occ. eigenvalues --   -0.42800  -0.42568  -0.42362  -0.42261  -0.42165
 Alpha  occ. eigenvalues --   -0.41930  -0.41723  -0.41583  -0.41389  -0.41025
 Alpha  occ. eigenvalues --   -0.41013  -0.40541  -0.40516  -0.40146  -0.39955
 Alpha  occ. eigenvalues --   -0.39807  -0.39283  -0.39182  -0.39124  -0.38740
 Alpha  occ. eigenvalues --   -0.38488  -0.38268  -0.37839  -0.37548  -0.37417
 Alpha  occ. eigenvalues --   -0.37057  -0.36908  -0.36754  -0.36607  -0.36202
 Alpha  occ. eigenvalues --   -0.36012  -0.35830  -0.35145  -0.34442  -0.34357
 Alpha  occ. eigenvalues --   -0.34111  -0.34038  -0.33255  -0.31850  -0.31205
 Alpha  occ. eigenvalues --   -0.31090  -0.30544  -0.29937  -0.29240  -0.24351
 Alpha  occ. eigenvalues --   -0.21495
 Alpha virt. eigenvalues --   -0.08955  -0.01765  -0.00039   0.00721   0.02261
 Alpha virt. eigenvalues --    0.05092   0.05494   0.05649   0.05966   0.07357
 Alpha virt. eigenvalues --    0.07877   0.08208   0.08416   0.08671   0.09250

 Mulliken charges:
               1
     1  Mg   0.836996
     2  C   -0.019886
     3  C   -0.071985
     4  C   -0.053670
     5  C   -0.066800
     6  N   -0.234397
     7  C   -0.087582
     8  C    0.002688
     9  C   -0.066793
    10  C    0.016286
    11  C    0.060712
    12  C    0.062743
    13  C    0.085278
    14  C    0.153568
    15  O   -0.198180
    16  O   -0.354628
    17  N   -0.416454
    18  C    0.157861
    19  C   -0.141215
    20  C   -0.023432
    21  C    0.181648
    22  C    0.129855
    23  C   -0.023105
    24  O   -0.191775
    25  C    0.054951
    26  N   -0.282856
    27  C   -0.042060
    28  C   -0.022915
    29  C   -0.026254
    30  C   -0.011281
    31  C    0.074663
    32  C    0.001266
    33  C    0.046329
    34  N   -0.303767
    35  C    0.148774
    36  C   -0.176256
    37  C   -0.014139
    38  C    0.120997
    39  C    0.105224
    40  C    0.094841
    41  O   -0.205827
    42  C   -0.007355
    43  C    0.175822
    44  O   -0.206137
    45  O   -0.321616
    46  C    0.177220
    47  C    0.282229
    48  C   -0.132423
    49  C   -0.159180
    50  C    0.058595
    51  C    0.091161
    52  C   -0.019254
    53  C    0.080091
    54  C   -0.111377
    55  C    0.026827
    56  C    0.100724
    57  C   -0.014336
    58  C    0.020959
    59  C   -0.151555
    60  C    0.081618
    61  C    0.084858
    62  C   -0.047262
    63  C    0.063935
    64  C   -0.137166
    65  C    0.037856
    66  C    0.051940
    67  H   -0.026964
    68  H   -0.043752
    69  H   -0.027527
    70  H    0.007345
    71  H    0.015552
    72  H    0.023386
    73  H    0.021938
    74  H    0.015950
    75  H    0.020864
    76  H    0.018350
    77  H    0.025934
    78  H    0.015865
    79  H    0.036275
    80  H   -0.003117
    81  H    0.031501
    82  H    0.041432
    83  H    0.019177
    84  H    0.046762
    85  H    0.009308
    86  H   -0.004752
    87  H    0.016902
    88  H    0.020915
    89  H    0.022778
    90  H   -0.000097
    91  H    0.006899
    92  H    0.012912
    93  H    0.017616
    94  H    0.023742
    95  H    0.038704
    96  H    0.027972
    97  H    0.014826
    98  H    0.042695
    99  H    0.045976
   100  H    0.045826
   101  H    0.031509
   102  H    0.025993
   103  H    0.036239
   104  H    0.000546
   105  H    0.021885
   106  H    0.001571
   107  H    0.036401
   108  H   -0.012163
   109  H    0.025600
   110  H    0.003877
   111  H   -0.004840
   112  H   -0.008472
   113  H   -0.009207
   114  H    0.011738
   115  H    0.004979
   116  H   -0.009215
   117  H   -0.003569
   118  H   -0.010916
   119  H   -0.002884
   120  H   -0.001604
   121  H   -0.008587
   122  H   -0.007147
   123  H   -0.018371
   124  H   -0.011693
   125  H    0.003777
   126  H    0.004641
   127  H    0.005270
   128  H   -0.016576
   129  H   -0.011957
   130  H   -0.006217
   131  H   -0.014592
   132  H   -0.005167
   133  H   -0.002342
   134  H   -0.000217
   135  H    0.008527
   136  H    0.009661
   137  H    0.005449
   138  H    0.003274
   139  H    0.002066
   140  H    0.015940
 Sum of Mulliken charges =  -0.00000

 Dipole moment (field-independent basis, Debye):
    X=             -1.0909    Y=              2.0591    Z=              1.9821  Tot=              3.0592
 Quadrupole moment (field-independent basis, Debye-Ang):
   XX=           -416.5910   YY=           -392.9507   ZZ=           -402.6691
   XY=             42.2311   XZ=             -5.9787   YZ=             26.5057

 Normal termination of Gaussian 16 at Sat Apr 30 07:03:25 2022.
