 Gaussian 16, Revision A.03,
 Gaussian 16:  ES64L-G16RevA.03 25-Dec-2016

 ---------------------------------
 #p PBE1PBE/Def2SVP td=(nstates=5)
 ---------------------------------

 -----------------------------------------------------
 step_651_chromophore_17 TDDFT with PBE1PBE functional
 -----------------------------------------------------
 Symbolic Z-matrix:
 Charge =  0 Multiplicity = 1

                         Standard orientation:
 ---------------------------------------------------------------------
 Center     Atomic      Atomic             Coordinates (Angstroms)
 Number     Number       Type             X           Y           Z
 ---------------------------------------------------------------------
      1         12           0        3.886614    1.528034   -0.964458
      2          6           0        4.282802   -1.989283   -0.486909
      3          6           0        1.398488    0.813138   -3.108750
      4          6           0        2.918432    4.546367   -0.496501
      5          6           0        6.049036    1.802080    1.964551
      6          7           0        2.946037   -0.407269   -1.668058
      7          6           0        3.288218   -1.694572   -1.415678
      8          6           0        2.263858   -2.658738   -2.088092
      9          6           0        1.623818   -1.720756   -3.202270
     10          6           0        2.019607   -0.306479   -2.596250
     11          6           0        2.059203   -2.017627   -4.714729
     12          6           0        1.368723   -3.206141   -0.976885
     13          6           0        0.985142   -4.679474   -1.003746
     14          6           0       -0.556588   -4.910659   -0.901263
     15          8           0       -1.414295   -4.681385   -1.702704
     16          8           0       -0.855141   -5.321580    0.389894
     17          7           0        2.424073    2.573321   -1.773739
     18          6           0        1.543180    2.167147   -2.719442
     19          6           0        0.840611    3.311279   -3.216039
     20          6           0        1.215141    4.425643   -2.421059
     21          6           0        2.164401    3.851969   -1.455862
     22          6           0       -0.198395    3.279736   -4.379478
     23          6           0        0.585754    5.809725   -2.464508
     24          8           0       -0.112161    6.101093   -3.408012
     25          6           0        0.934765    6.909725   -1.464171
     26          7           0        4.158423    2.920784    0.832667
     27          6           0        3.786369    4.207493    0.500637
     28          6           0        4.475573    5.184503    1.581203
     29          6           0        5.295870    4.266250    2.469901
     30          6           0        5.202436    2.893971    1.704232
     31          6           0        5.300682    6.314823    0.847159
     32          6           0        4.863450    4.066252    3.941006
     33          6           0        5.070025    5.268259    4.828772
     34          7           0        5.234368    0.246061    0.216400
     35          6           0        5.987810    0.525341    1.346353
     36          6           0        6.630639   -0.689210    1.775322
     37          6           0        6.003897   -1.754990    1.085120
     38          6           0        5.138771   -1.099375    0.175504
     39          6           0        7.544491   -0.766735    3.006174
     40          6           0        5.891964   -3.209581    0.891881
     41          8           0        6.449563   -4.236219    1.352245
     42          6           0        4.700156   -3.415455   -0.033856
     43          6           0        5.164795   -4.316059   -1.205263
     44          8           0        5.992252   -4.040628   -2.044620
     45          8           0        4.405399   -5.423431   -1.259658
     46          6           0        4.705013   -6.485342   -2.209642
     47          6           0       -2.300339   -5.625056    0.672653
     48          6           0       -3.010623   -4.471981    1.385941
     49          6           0       -4.330599   -4.269462    1.489268
     50          6           0       -5.543234   -5.210257    1.044996
     51          6           0       -4.802902   -2.956122    2.004764
     52          6           0       -4.488813   -2.723523    3.484289
     53          6           0       -3.904928   -1.298910    3.851550
     54          6           0       -5.020131   -0.399384    4.400039
     55          6           0       -4.820235   -0.012568    5.868892
     56          6           0       -5.227250    0.915902    3.558746
     57          6           0       -6.557776    0.834236    2.816151
     58          6           0       -6.532538    1.251975    1.323474
     59          6           0       -7.640585    0.603136    0.444133
     60          6           0       -7.235274   -0.697390   -0.133914
     61          6           0       -8.177350    1.579366   -0.590935
     62          6           0       -9.687133    1.867140   -0.524197
     63          6           0      -10.577394    1.262024   -1.599054
     64          6           0      -11.969998    2.023233   -1.618232
     65          6           0      -13.034886    1.469464   -0.628658
     66          6           0      -12.605354    1.995525   -3.035261
     67          1           0        0.643194    0.563750   -3.856602
     68          1           0        2.702416    5.601529   -0.313785
     69          1           0        6.733045    2.043430    2.780755
     70          1           0        2.801719   -3.427147   -2.643054
     71          1           0        0.534584   -1.683660   -3.227139
     72          1           0        3.001684   -1.561851   -5.018108
     73          1           0        1.245894   -1.733813   -5.381905
     74          1           0        2.222683   -3.081738   -4.888622
     75          1           0        0.459015   -2.611168   -0.897007
     76          1           0        1.845160   -3.077087   -0.004844
     77          1           0        1.530261   -5.180569   -0.204097
     78          1           0        1.473621   -5.081711   -1.890167
     79          1           0       -1.239506    3.495940   -4.144221
     80          1           0       -0.160971    2.322540   -4.900508
     81          1           0        0.112675    4.038613   -5.097071
     82          1           0        0.723339    6.618008   -0.435729
     83          1           0        0.312045    7.759451   -1.740855
     84          1           0        1.945561    7.281402   -1.635121
     85          1           0        3.631492    5.591525    2.137547
     86          1           0        6.348501    4.550054    2.470605
     87          1           0        5.028568    6.377325   -0.206757
     88          1           0        6.351037    6.036517    0.939102
     89          1           0        5.015021    7.264437    1.300709
     90          1           0        5.461026    3.256234    4.361225
     91          1           0        3.807842    3.800543    3.993751
     92          1           0        4.041428    5.433957    5.148637
     93          1           0        5.426564    6.117765    4.246607
     94          1           0        5.705852    4.907134    5.637275
     95          1           0        8.119252   -1.681489    3.148035
     96          1           0        6.977790   -0.599633    3.920845
     97          1           0        8.205481    0.095889    2.923292
     98          1           0        3.928737   -3.961382    0.508922
     99          1           0        4.199338   -7.346913   -1.773574
    100          1           0        5.763088   -6.709423   -2.345867
    101          1           0        4.363285   -6.223777   -3.211624
    102          1           0       -2.363136   -6.476443    1.349606
    103          1           0       -2.920808   -5.946579   -0.163873
    104          1           0       -2.344903   -3.719412    1.807839
    105          1           0       -6.108744   -5.397271    1.957802
    106          1           0       -5.227125   -6.178657    0.657127
    107          1           0       -6.223285   -4.795970    0.300806
    108          1           0       -5.889293   -2.996543    1.931345
    109          1           0       -4.391869   -2.117484    1.442279
    110          1           0       -3.791261   -3.473130    3.858602
    111          1           0       -5.434026   -2.890049    4.000863
    112          1           0       -3.368328   -0.871704    3.004446
    113          1           0       -3.109578   -1.409889    4.588907
    114          1           0       -5.973626   -0.926569    4.440162
    115          1           0       -4.425537    0.984105    6.064220
    116          1           0       -4.186324   -0.630330    6.506316
    117          1           0       -5.743978   -0.124802    6.435879
    118          1           0       -4.441760    1.048186    2.814161
    119          1           0       -5.189020    1.840418    4.134306
    120          1           0       -7.409764    1.385683    3.213483
    121          1           0       -6.920544   -0.191217    2.750252
    122          1           0       -5.511920    1.185624    0.946930
    123          1           0       -6.814277    2.304204    1.288792
    124          1           0       -8.405375    0.408513    1.196158
    125          1           0       -6.146492   -0.723404   -0.092222
    126          1           0       -7.526119   -0.905946   -1.163207
    127          1           0       -7.645477   -1.494587    0.486657
    128          1           0       -7.991204    1.228148   -1.605874
    129          1           0       -7.692534    2.544427   -0.439177
    130          1           0       -9.702148    2.955631   -0.462062
    131          1           0      -10.042913    1.453522    0.419155
    132          1           0      -10.650578    0.243440   -1.218602
    133          1           0       -9.948383    1.316570   -2.487986
    134          1           0      -11.762770    3.038572   -1.279976
    135          1           0      -13.842088    0.906690   -1.098892
    136          1           0      -13.545018    2.314177   -0.167023
    137          1           0      -12.481972    0.849636    0.077025
    138          1           0      -12.114863    2.742891   -3.659786
    139          1           0      -13.650129    2.292185   -2.950352
    140          1           0      -12.512945    1.019770   -3.511679
 ---------------------------------------------------------------------

 SCF Done:  E(RPBE1PBE) =  -3005.34910168     A.U. after   15 cycles

 Excitation energies and oscillator strengths:

 Excited State   1:      Singlet-A      1.8890 eV  656.34 nm  f=0.3722  <S**2>=0.000
     245 -> 248        0.17492
     246 -> 247        0.69194
     246 <- 247       -0.10724
 This state for optimization and/or second-order correction.
 Total Energy, E(TD-HF/TD-DFT) =  -3005.27968112
 Copying the excited state density for this state as the 1-particle RhoCI density.

 Excited State   2:      Singlet-A      2.2444 eV  552.42 nm  f=0.1114  <S**2>=0.000
     245 -> 247        0.65519
     246 -> 248       -0.24477

 Excited State   3:      Singlet-A      2.9612 eV  418.69 nm  f=0.0005  <S**2>=0.000
     241 -> 247        0.10679
     242 -> 247        0.62838
     242 -> 249        0.19595
     243 -> 247        0.18986

 Excited State   4:      Singlet-A      3.0888 eV  401.40 nm  f=0.0027  <S**2>=0.000
     242 -> 247       -0.19495
     243 -> 247        0.64827
     246 -> 248       -0.16400

 Excited State   5:      Singlet-A      3.1297 eV  396.15 nm  f=0.0002  <S**2>=0.000
     241 -> 247        0.66747
     241 -> 249       -0.11561
     242 -> 247       -0.11194

 The electronic state is 1-A.
 Alpha  occ. eigenvalues --  -46.94105 -19.26113 -19.25329 -19.20276 -19.19698
 Alpha  occ. eigenvalues --  -19.19141 -19.19119 -14.41790 -14.40988 -14.39624
 Alpha  occ. eigenvalues --  -14.39430 -10.36501 -10.36392 -10.32475 -10.32371
 Alpha  occ. eigenvalues --  -10.29523 -10.29374 -10.28969 -10.28940 -10.28832
 Alpha  occ. eigenvalues --  -10.28609 -10.28257 -10.28088 -10.27594 -10.26915
 Alpha  occ. eigenvalues --  -10.26424 -10.26421 -10.26385 -10.26126 -10.26067
 Alpha  occ. eigenvalues --  -10.26035 -10.25942 -10.25709 -10.24859 -10.24849
 Alpha  occ. eigenvalues --  -10.24717 -10.24666 -10.24633 -10.24433 -10.24306
 Alpha  occ. eigenvalues --  -10.24197 -10.24124 -10.23964 -10.23878 -10.23802
 Alpha  occ. eigenvalues --  -10.23642 -10.23585 -10.23550 -10.23305 -10.23247
 Alpha  occ. eigenvalues --  -10.23052 -10.23000 -10.22440 -10.22389 -10.22296
 Alpha  occ. eigenvalues --  -10.22285 -10.22220 -10.22165 -10.21857 -10.21728
 Alpha  occ. eigenvalues --  -10.21557 -10.21557 -10.21345 -10.21324 -10.21301
 Alpha  occ. eigenvalues --  -10.20999  -3.16066  -1.88839  -1.88476  -1.88281
 Alpha  occ. eigenvalues --   -1.12122  -1.10836  -1.05694  -1.03128  -1.02613
 Alpha  occ. eigenvalues --   -1.02477  -0.99930  -0.99158  -0.98384  -0.97040
 Alpha  occ. eigenvalues --   -0.87028  -0.84503  -0.84076  -0.83925  -0.83764
 Alpha  occ. eigenvalues --   -0.83063  -0.82503  -0.81717  -0.81391  -0.80759
 Alpha  occ. eigenvalues --   -0.80292  -0.79267  -0.78479  -0.78298  -0.77875
 Alpha  occ. eigenvalues --   -0.76847  -0.76477  -0.75789  -0.75388  -0.75060
 Alpha  occ. eigenvalues --   -0.73727  -0.72381  -0.72155  -0.71675  -0.70856
 Alpha  occ. eigenvalues --   -0.69819  -0.69701  -0.69307  -0.68883  -0.68293
 Alpha  occ. eigenvalues --   -0.67805  -0.67260  -0.66193  -0.64695  -0.63462
 Alpha  occ. eigenvalues --   -0.62805  -0.62310  -0.61962  -0.60635  -0.60452
 Alpha  occ. eigenvalues --   -0.59621  -0.59386  -0.59272  -0.58778  -0.58330
 Alpha  occ. eigenvalues --   -0.57704  -0.57597  -0.57232  -0.56969  -0.54801
 Alpha  occ. eigenvalues --   -0.54400  -0.54041  -0.53804  -0.52998  -0.52724
 Alpha  occ. eigenvalues --   -0.52226  -0.51993  -0.51177  -0.50139  -0.49834
 Alpha  occ. eigenvalues --   -0.49689  -0.49158  -0.49077  -0.48904  -0.48494
 Alpha  occ. eigenvalues --   -0.48441  -0.48252  -0.48008  -0.47625  -0.47291
 Alpha  occ. eigenvalues --   -0.46970  -0.46841  -0.46767  -0.46468  -0.46285
 Alpha  occ. eigenvalues --   -0.46213  -0.45701  -0.45544  -0.45223  -0.45101
 Alpha  occ. eigenvalues --   -0.44980  -0.44447  -0.44377  -0.44285  -0.44018
 Alpha  occ. eigenvalues --   -0.43854  -0.43754  -0.43598  -0.43425  -0.43222
 Alpha  occ. eigenvalues --   -0.43177  -0.42962  -0.42767  -0.42541  -0.42068
 Alpha  occ. eigenvalues --   -0.41857  -0.41707  -0.41561  -0.41340  -0.41243
 Alpha  occ. eigenvalues --   -0.40952  -0.40879  -0.40830  -0.40693  -0.40593
 Alpha  occ. eigenvalues --   -0.40402  -0.40340  -0.39860  -0.39743  -0.39680
 Alpha  occ. eigenvalues --   -0.39531  -0.39499  -0.39170  -0.38978  -0.38830
 Alpha  occ. eigenvalues --   -0.38620  -0.38450  -0.38220  -0.38061  -0.37715
 Alpha  occ. eigenvalues --   -0.37643  -0.37426  -0.37235  -0.37076  -0.37022
 Alpha  occ. eigenvalues --   -0.36678  -0.36510  -0.36349  -0.36206  -0.35842
 Alpha  occ. eigenvalues --   -0.35743  -0.35443  -0.35394  -0.35055  -0.34812
 Alpha  occ. eigenvalues --   -0.34560  -0.34252  -0.34114  -0.33930  -0.33530
 Alpha  occ. eigenvalues --   -0.33262  -0.33230  -0.32591  -0.32487  -0.32372
 Alpha  occ. eigenvalues --   -0.31883  -0.31823  -0.31577  -0.31523  -0.31085
 Alpha  occ. eigenvalues --   -0.31000  -0.30766  -0.29981  -0.29565  -0.29431
 Alpha  occ. eigenvalues --   -0.29097  -0.28987  -0.28601  -0.27456  -0.26155
 Alpha  occ. eigenvalues --   -0.25924  -0.25832  -0.25589  -0.24474  -0.21287
 Alpha  occ. eigenvalues --   -0.19135
 Alpha virt. eigenvalues --   -0.11422  -0.05287  -0.04133  -0.02414  -0.01881
 Alpha virt. eigenvalues --    0.00601   0.01081   0.01112   0.01503   0.03311
 Alpha virt. eigenvalues --    0.04258   0.04685   0.05097   0.05141   0.05562

 Mulliken charges:
               1
     1  Mg   0.973710
     2  C   -0.045054
     3  C   -0.062090
     4  C   -0.067578
     5  C   -0.059399
     6  N   -0.340927
     7  C   -0.006609
     8  C   -0.076269
     9  C   -0.134726
    10  C    0.057969
    11  C    0.004068
    12  C    0.017611
    13  C    0.010594
    14  C    0.217510
    15  O   -0.232204
    16  O   -0.384170
    17  N   -0.535731
    18  C    0.176967
    19  C   -0.163704
    20  C   -0.066600
    21  C    0.210273
    22  C    0.075069
    23  C    0.028156
    24  O   -0.225448
    25  C   -0.023693
    26  N   -0.369534
    27  C   -0.001624
    28  C   -0.100956
    29  C   -0.100259
    30  C    0.026178
    31  C    0.016422
    32  C   -0.056929
    33  C   -0.026350
    34  N   -0.422267
    35  C    0.161351
    36  C   -0.181522
    37  C   -0.063269
    38  C    0.176118
    39  C    0.050532
    40  C    0.185154
    41  O   -0.250585
    42  C   -0.117754
    43  C    0.271288
    44  O   -0.242623
    45  O   -0.356418
    46  C    0.122939
    47  C    0.240164
    48  C   -0.142369
    49  C   -0.198819
    50  C   -0.008359
    51  C    0.022768
    52  C   -0.082396
    53  C    0.030378
    54  C   -0.204453
    55  C   -0.027216
    56  C    0.050237
    57  C   -0.079820
    58  C   -0.031441
    59  C   -0.239269
    60  C    0.024536
    61  C    0.028600
    62  C   -0.105271
    63  C    0.003356
    64  C   -0.227632
    65  C   -0.022858
    66  C   -0.013004
    67  H    0.003654
    68  H   -0.006844
    69  H    0.003350
    70  H    0.047442
    71  H    0.051491
    72  H    0.050528
    73  H    0.048342
    74  H    0.043096
    75  H    0.053063
    76  H    0.052940
    77  H    0.058215
    78  H    0.049284
    79  H    0.062869
    80  H    0.024552
    81  H    0.059246
    82  H    0.067530
    83  H    0.047957
    84  H    0.072817
    85  H    0.046421
    86  H    0.032696
    87  H    0.044271
    88  H    0.048047
    89  H    0.049807
    90  H    0.033371
    91  H    0.039768
    92  H    0.040678
    93  H    0.046066
    94  H    0.051104
    95  H    0.065857
    96  H    0.056020
    97  H    0.042272
    98  H    0.079908
    99  H    0.067189
   100  H    0.066947
   101  H    0.052693
   102  H    0.053754
   103  H    0.062432
   104  H    0.030741
   105  H    0.050490
   106  H    0.028984
   107  H    0.062846
   108  H    0.023106
   109  H    0.058426
   110  H    0.036183
   111  H    0.027705
   112  H    0.021856
   113  H    0.023236
   114  H    0.048103
   115  H    0.031613
   116  H    0.018067
   117  H    0.024177
   118  H    0.021020
   119  H    0.028924
   120  H    0.031262
   121  H    0.026944
   122  H    0.023875
   123  H    0.017093
   124  H    0.027016
   125  H    0.032914
   126  H    0.031575
   127  H    0.031715
   128  H    0.016087
   129  H    0.020495
   130  H    0.025248
   131  H    0.018862
   132  H    0.029103
   133  H    0.029747
   134  H    0.036850
   135  H    0.035708
   136  H    0.037334
   137  H    0.032909
   138  H    0.032134
   139  H    0.030534
   140  H    0.043541
 Sum of Mulliken charges =  -0.00000

 Dipole moment (field-independent basis, Debye):
    X=             -1.0924    Y=              2.1590    Z=              2.0573  Tot=              3.1760
 Quadrupole moment (field-independent basis, Debye-Ang):
   XX=           -413.2496   YY=           -389.6512   ZZ=           -398.8007
   XY=             43.2148   XZ=             -5.0860   YZ=             27.2775

 Normal termination of Gaussian 16 at Sat Apr 30 07:22:57 2022.
