 Gaussian 16, Revision A.03,
 Gaussian 16:  ES64L-G16RevA.03 25-Dec-2016

 --------------------------------
 #p wB97XD/Def2SVP td=(nstates=5)
 --------------------------------

 ----------------------------------------------------
 step_651_chromophore_17 TDDFT with wB97XD functional
 ----------------------------------------------------
 Symbolic Z-matrix:
 Charge =  0 Multiplicity = 1

                         Standard orientation:
 ---------------------------------------------------------------------
 Center     Atomic      Atomic             Coordinates (Angstroms)
 Number     Number       Type             X           Y           Z
 ---------------------------------------------------------------------
      1         12           0        3.886614    1.528034   -0.964458
      2          6           0        4.282802   -1.989283   -0.486909
      3          6           0        1.398488    0.813138   -3.108750
      4          6           0        2.918432    4.546367   -0.496501
      5          6           0        6.049036    1.802080    1.964551
      6          7           0        2.946037   -0.407269   -1.668058
      7          6           0        3.288218   -1.694572   -1.415678
      8          6           0        2.263858   -2.658738   -2.088092
      9          6           0        1.623818   -1.720756   -3.202270
     10          6           0        2.019607   -0.306479   -2.596250
     11          6           0        2.059203   -2.017627   -4.714729
     12          6           0        1.368723   -3.206141   -0.976885
     13          6           0        0.985142   -4.679474   -1.003746
     14          6           0       -0.556588   -4.910659   -0.901263
     15          8           0       -1.414295   -4.681385   -1.702704
     16          8           0       -0.855141   -5.321580    0.389894
     17          7           0        2.424073    2.573321   -1.773739
     18          6           0        1.543180    2.167147   -2.719442
     19          6           0        0.840611    3.311279   -3.216039
     20          6           0        1.215141    4.425643   -2.421059
     21          6           0        2.164401    3.851969   -1.455862
     22          6           0       -0.198395    3.279736   -4.379478
     23          6           0        0.585754    5.809725   -2.464508
     24          8           0       -0.112161    6.101093   -3.408012
     25          6           0        0.934765    6.909725   -1.464171
     26          7           0        4.158423    2.920784    0.832667
     27          6           0        3.786369    4.207493    0.500637
     28          6           0        4.475573    5.184503    1.581203
     29          6           0        5.295870    4.266250    2.469901
     30          6           0        5.202436    2.893971    1.704232
     31          6           0        5.300682    6.314823    0.847159
     32          6           0        4.863450    4.066252    3.941006
     33          6           0        5.070025    5.268259    4.828772
     34          7           0        5.234368    0.246061    0.216400
     35          6           0        5.987810    0.525341    1.346353
     36          6           0        6.630639   -0.689210    1.775322
     37          6           0        6.003897   -1.754990    1.085120
     38          6           0        5.138771   -1.099375    0.175504
     39          6           0        7.544491   -0.766735    3.006174
     40          6           0        5.891964   -3.209581    0.891881
     41          8           0        6.449563   -4.236219    1.352245
     42          6           0        4.700156   -3.415455   -0.033856
     43          6           0        5.164795   -4.316059   -1.205263
     44          8           0        5.992252   -4.040628   -2.044620
     45          8           0        4.405399   -5.423431   -1.259658
     46          6           0        4.705013   -6.485342   -2.209642
     47          6           0       -2.300339   -5.625056    0.672653
     48          6           0       -3.010623   -4.471981    1.385941
     49          6           0       -4.330599   -4.269462    1.489268
     50          6           0       -5.543234   -5.210257    1.044996
     51          6           0       -4.802902   -2.956122    2.004764
     52          6           0       -4.488813   -2.723523    3.484289
     53          6           0       -3.904928   -1.298910    3.851550
     54          6           0       -5.020131   -0.399384    4.400039
     55          6           0       -4.820235   -0.012568    5.868892
     56          6           0       -5.227250    0.915902    3.558746
     57          6           0       -6.557776    0.834236    2.816151
     58          6           0       -6.532538    1.251975    1.323474
     59          6           0       -7.640585    0.603136    0.444133
     60          6           0       -7.235274   -0.697390   -0.133914
     61          6           0       -8.177350    1.579366   -0.590935
     62          6           0       -9.687133    1.867140   -0.524197
     63          6           0      -10.577394    1.262024   -1.599054
     64          6           0      -11.969998    2.023233   -1.618232
     65          6           0      -13.034886    1.469464   -0.628658
     66          6           0      -12.605354    1.995525   -3.035261
     67          1           0        0.643194    0.563750   -3.856602
     68          1           0        2.702416    5.601529   -0.313785
     69          1           0        6.733045    2.043430    2.780755
     70          1           0        2.801719   -3.427147   -2.643054
     71          1           0        0.534584   -1.683660   -3.227139
     72          1           0        3.001684   -1.561851   -5.018108
     73          1           0        1.245894   -1.733813   -5.381905
     74          1           0        2.222683   -3.081738   -4.888622
     75          1           0        0.459015   -2.611168   -0.897007
     76          1           0        1.845160   -3.077087   -0.004844
     77          1           0        1.530261   -5.180569   -0.204097
     78          1           0        1.473621   -5.081711   -1.890167
     79          1           0       -1.239506    3.495940   -4.144221
     80          1           0       -0.160971    2.322540   -4.900508
     81          1           0        0.112675    4.038613   -5.097071
     82          1           0        0.723339    6.618008   -0.435729
     83          1           0        0.312045    7.759451   -1.740855
     84          1           0        1.945561    7.281402   -1.635121
     85          1           0        3.631492    5.591525    2.137547
     86          1           0        6.348501    4.550054    2.470605
     87          1           0        5.028568    6.377325   -0.206757
     88          1           0        6.351037    6.036517    0.939102
     89          1           0        5.015021    7.264437    1.300709
     90          1           0        5.461026    3.256234    4.361225
     91          1           0        3.807842    3.800543    3.993751
     92          1           0        4.041428    5.433957    5.148637
     93          1           0        5.426564    6.117765    4.246607
     94          1           0        5.705852    4.907134    5.637275
     95          1           0        8.119252   -1.681489    3.148035
     96          1           0        6.977790   -0.599633    3.920845
     97          1           0        8.205481    0.095889    2.923292
     98          1           0        3.928737   -3.961382    0.508922
     99          1           0        4.199338   -7.346913   -1.773574
    100          1           0        5.763088   -6.709423   -2.345867
    101          1           0        4.363285   -6.223777   -3.211624
    102          1           0       -2.363136   -6.476443    1.349606
    103          1           0       -2.920808   -5.946579   -0.163873
    104          1           0       -2.344903   -3.719412    1.807839
    105          1           0       -6.108744   -5.397271    1.957802
    106          1           0       -5.227125   -6.178657    0.657127
    107          1           0       -6.223285   -4.795970    0.300806
    108          1           0       -5.889293   -2.996543    1.931345
    109          1           0       -4.391869   -2.117484    1.442279
    110          1           0       -3.791261   -3.473130    3.858602
    111          1           0       -5.434026   -2.890049    4.000863
    112          1           0       -3.368328   -0.871704    3.004446
    113          1           0       -3.109578   -1.409889    4.588907
    114          1           0       -5.973626   -0.926569    4.440162
    115          1           0       -4.425537    0.984105    6.064220
    116          1           0       -4.186324   -0.630330    6.506316
    117          1           0       -5.743978   -0.124802    6.435879
    118          1           0       -4.441760    1.048186    2.814161
    119          1           0       -5.189020    1.840418    4.134306
    120          1           0       -7.409764    1.385683    3.213483
    121          1           0       -6.920544   -0.191217    2.750252
    122          1           0       -5.511920    1.185624    0.946930
    123          1           0       -6.814277    2.304204    1.288792
    124          1           0       -8.405375    0.408513    1.196158
    125          1           0       -6.146492   -0.723404   -0.092222
    126          1           0       -7.526119   -0.905946   -1.163207
    127          1           0       -7.645477   -1.494587    0.486657
    128          1           0       -7.991204    1.228148   -1.605874
    129          1           0       -7.692534    2.544427   -0.439177
    130          1           0       -9.702148    2.955631   -0.462062
    131          1           0      -10.042913    1.453522    0.419155
    132          1           0      -10.650578    0.243440   -1.218602
    133          1           0       -9.948383    1.316570   -2.487986
    134          1           0      -11.762770    3.038572   -1.279976
    135          1           0      -13.842088    0.906690   -1.098892
    136          1           0      -13.545018    2.314177   -0.167023
    137          1           0      -12.481972    0.849636    0.077025
    138          1           0      -12.114863    2.742891   -3.659786
    139          1           0      -13.650129    2.292185   -2.950352
    140          1           0      -12.512945    1.019770   -3.511679
 ---------------------------------------------------------------------

 SCF Done:  E(RwB97XD) =  -3007.85957462     A.U. after   17 cycles

 Excitation energies and oscillator strengths:

 Excited State   1:      Singlet-A      1.6659 eV  744.24 nm  f=0.3833  <S**2>=0.000
     245 -> 248        0.18855
     246 -> 247        0.68222
     245 <- 248        0.11719
 This state for optimization and/or second-order correction.
 Total Energy, E(TD-HF/TD-DFT) =  -3007.79835296
 Copying the excited state density for this state as the 1-particle RhoCI density.

 Excited State   2:      Singlet-A      2.1902 eV  566.09 nm  f=0.1143  <S**2>=0.000
     245 -> 247        0.64215
     246 -> 248       -0.27736

 Excited State   3:      Singlet-A      3.3951 eV  365.19 nm  f=0.0159  <S**2>=0.000
     243 -> 247        0.61690
     246 -> 248       -0.26826

 Excited State   4:      Singlet-A      3.4628 eV  358.05 nm  f=0.0049  <S**2>=0.000
     241 -> 247        0.51341
     241 -> 249        0.36947
     241 -> 250        0.14662
     241 -> 251       -0.11758
     242 -> 247        0.13890
     243 -> 247       -0.11321

 Excited State   5:      Singlet-A      3.5810 eV  346.23 nm  f=0.1470  <S**2>=0.000
     242 -> 247        0.55017
     243 -> 247       -0.13575
     245 -> 247       -0.12666
     246 -> 248       -0.35116

 The electronic state is 1-A.
 Alpha  occ. eigenvalues --  -46.97052 -19.30724 -19.29885 -19.24981 -19.24463
 Alpha  occ. eigenvalues --  -19.24044 -19.23896 -14.46978 -14.45955 -14.44580
 Alpha  occ. eigenvalues --  -14.44357 -10.43294 -10.43262 -10.39421 -10.39158
 Alpha  occ. eigenvalues --  -10.36074 -10.35868 -10.35275 -10.35206 -10.35095
 Alpha  occ. eigenvalues --  -10.35006 -10.34539 -10.34406 -10.33904 -10.33227
 Alpha  occ. eigenvalues --  -10.32699 -10.32641 -10.32631 -10.32545 -10.32534
 Alpha  occ. eigenvalues --  -10.32523 -10.32343 -10.31902 -10.31291 -10.31148
 Alpha  occ. eigenvalues --  -10.31145 -10.31046 -10.31034 -10.30771 -10.30680
 Alpha  occ. eigenvalues --  -10.30519 -10.30514 -10.30325 -10.30245 -10.30185
 Alpha  occ. eigenvalues --  -10.30168 -10.30032 -10.29829 -10.29733 -10.29575
 Alpha  occ. eigenvalues --  -10.29447 -10.29363 -10.28792 -10.28744 -10.28673
 Alpha  occ. eigenvalues --  -10.28652 -10.28579 -10.28439 -10.28226 -10.28151
 Alpha  occ. eigenvalues --  -10.27991 -10.27902 -10.27726 -10.27701 -10.27671
 Alpha  occ. eigenvalues --  -10.27444  -3.22917  -1.96433  -1.96071  -1.95863
 Alpha  occ. eigenvalues --   -1.19554  -1.18216  -1.13130  -1.10628  -1.10114
 Alpha  occ. eigenvalues --   -1.09825  -1.07315  -1.06527  -1.05736  -1.04393
 Alpha  occ. eigenvalues --   -0.94692  -0.92165  -0.91730  -0.91509  -0.91399
 Alpha  occ. eigenvalues --   -0.90647  -0.90164  -0.89311  -0.89050  -0.88361
 Alpha  occ. eigenvalues --   -0.87929  -0.86914  -0.86092  -0.85933  -0.85529
 Alpha  occ. eigenvalues --   -0.84504  -0.84156  -0.83393  -0.83085  -0.82714
 Alpha  occ. eigenvalues --   -0.81399  -0.79999  -0.79803  -0.79328  -0.78491
 Alpha  occ. eigenvalues --   -0.77480  -0.77307  -0.76980  -0.76588  -0.75939
 Alpha  occ. eigenvalues --   -0.75355  -0.74856  -0.73722  -0.72310  -0.71022
 Alpha  occ. eigenvalues --   -0.70327  -0.69866  -0.69588  -0.68147  -0.68076
 Alpha  occ. eigenvalues --   -0.67089  -0.66849  -0.66749  -0.66455  -0.65937
 Alpha  occ. eigenvalues --   -0.65159  -0.65060  -0.64888  -0.64613  -0.62228
 Alpha  occ. eigenvalues --   -0.61754  -0.61522  -0.61315  -0.60412  -0.60157
 Alpha  occ. eigenvalues --   -0.59728  -0.59484  -0.58576  -0.57603  -0.57212
 Alpha  occ. eigenvalues --   -0.57138  -0.56548  -0.56483  -0.56282  -0.55934
 Alpha  occ. eigenvalues --   -0.55795  -0.55650  -0.55444  -0.54837  -0.54609
 Alpha  occ. eigenvalues --   -0.54429  -0.54348  -0.54171  -0.53828  -0.53646
 Alpha  occ. eigenvalues --   -0.53600  -0.53051  -0.52949  -0.52567  -0.52449
 Alpha  occ. eigenvalues --   -0.52345  -0.51809  -0.51701  -0.51610  -0.51356
 Alpha  occ. eigenvalues --   -0.51221  -0.51035  -0.50909  -0.50763  -0.50481
 Alpha  occ. eigenvalues --   -0.50467  -0.50251  -0.50057  -0.49822  -0.49332
 Alpha  occ. eigenvalues --   -0.49134  -0.48971  -0.48776  -0.48594  -0.48493
 Alpha  occ. eigenvalues --   -0.48187  -0.48098  -0.48075  -0.47936  -0.47815
 Alpha  occ. eigenvalues --   -0.47614  -0.47563  -0.47066  -0.47015  -0.46790
 Alpha  occ. eigenvalues --   -0.46690  -0.46661  -0.46365  -0.46147  -0.45994
 Alpha  occ. eigenvalues --   -0.45773  -0.45565  -0.45357  -0.45221  -0.44880
 Alpha  occ. eigenvalues --   -0.44738  -0.44514  -0.44292  -0.44171  -0.44108
 Alpha  occ. eigenvalues --   -0.43841  -0.43721  -0.43451  -0.43296  -0.42891
 Alpha  occ. eigenvalues --   -0.42861  -0.42444  -0.42421  -0.42049  -0.41817
 Alpha  occ. eigenvalues --   -0.41660  -0.41189  -0.41036  -0.41013  -0.40584
 Alpha  occ. eigenvalues --   -0.40316  -0.40184  -0.39660  -0.39558  -0.39389
 Alpha  occ. eigenvalues --   -0.38956  -0.38907  -0.38600  -0.38534  -0.38027
 Alpha  occ. eigenvalues --   -0.37936  -0.37699  -0.36979  -0.36458  -0.36333
 Alpha  occ. eigenvalues --   -0.36012  -0.35926  -0.35446  -0.34065  -0.33123
 Alpha  occ. eigenvalues --   -0.33086  -0.32707  -0.32102  -0.31253  -0.26276
 Alpha  occ. eigenvalues --   -0.23299
 Alpha virt. eigenvalues --   -0.07301   0.00165   0.02132   0.03798   0.04489
 Alpha virt. eigenvalues --    0.07392   0.07768   0.07889   0.08321   0.10019
 Alpha virt. eigenvalues --    0.10827   0.11296   0.11796   0.11913   0.12275

 Mulliken charges:
               1
     1  Mg   0.970398
     2  C   -0.039895
     3  C   -0.076484
     4  C   -0.075242
     5  C   -0.079235
     6  N   -0.302144
     7  C   -0.042057
     8  C   -0.044509
     9  C   -0.112368
    10  C    0.036571
    11  C    0.013349
    12  C    0.025485
    13  C    0.026448
    14  C    0.208976
    15  O   -0.229386
    16  O   -0.384018
    17  N   -0.504873
    18  C    0.169590
    19  C   -0.158100
    20  C   -0.063829
    21  C    0.206523
    22  C    0.085880
    23  C    0.023299
    24  O   -0.221777
    25  C   -0.009925
    26  N   -0.343793
    27  C   -0.010823
    28  C   -0.079026
    29  C   -0.073203
    30  C    0.015405
    31  C    0.028771
    32  C   -0.042044
    33  C   -0.012166
    34  N   -0.388038
    35  C    0.158341
    36  C   -0.183249
    37  C   -0.057969
    38  C    0.156470
    39  C    0.062719
    40  C    0.168170
    41  O   -0.241087
    42  C   -0.075495
    43  C    0.243531
    44  O   -0.236164
    45  O   -0.352515
    46  C    0.136452
    47  C    0.255968
    48  C   -0.155066
    49  C   -0.186661
    50  C    0.009603
    51  C    0.046603
    52  C   -0.063601
    53  C    0.041412
    54  C   -0.170571
    55  C   -0.016763
    56  C    0.061455
    57  C   -0.054917
    58  C   -0.015571
    59  C   -0.205302
    60  C    0.035271
    61  C    0.044672
    62  C   -0.085237
    63  C    0.018238
    64  C   -0.198820
    65  C   -0.011413
    66  C    0.000724
    67  H   -0.002377
    68  H   -0.022445
    69  H   -0.002436
    70  H    0.030755
    71  H    0.042634
    72  H    0.045204
    73  H    0.043364
    74  H    0.037235
    75  H    0.046232
    76  H    0.041859
    77  H    0.053175
    78  H    0.041896
    79  H    0.059857
    80  H    0.018881
    81  H    0.054812
    82  H    0.062982
    83  H    0.046078
    84  H    0.067924
    85  H    0.036723
    86  H    0.020900
    87  H    0.037282
    88  H    0.042192
    89  H    0.044686
    90  H    0.023774
    91  H    0.031772
    92  H    0.034877
    93  H    0.038657
    94  H    0.046535
    95  H    0.062955
    96  H    0.050583
    97  H    0.035281
    98  H    0.071683
    99  H    0.064398
   100  H    0.063534
   101  H    0.048956
   102  H    0.049221
   103  H    0.056662
   104  H    0.027569
   105  H    0.043446
   106  H    0.023498
   107  H    0.057755
   108  H    0.010544
   109  H    0.046953
   110  H    0.027543
   111  H    0.018988
   112  H    0.013042
   113  H    0.016159
   114  H    0.033090
   115  H    0.025283
   116  H    0.011888
   117  H    0.018590
   118  H    0.010512
   119  H    0.022137
   120  H    0.023928
   121  H    0.008697
   122  H    0.013908
   123  H    0.005770
   124  H    0.010438
   125  H    0.023838
   126  H    0.026538
   127  H    0.025540
   128  H    0.005401
   129  H    0.012029
   130  H    0.016929
   131  H    0.005752
   132  H    0.018977
   133  H    0.020874
   134  H    0.025456
   135  H    0.029844
   136  H    0.032093
   137  H    0.025971
   138  H    0.026201
   139  H    0.024073
   140  H    0.037467
 Sum of Mulliken charges =  -0.00000

 Dipole moment (field-independent basis, Debye):
    X=             -1.1086    Y=              2.0809    Z=              1.9824  Tot=              3.0804
 Quadrupole moment (field-independent basis, Debye-Ang):
   XX=           -412.9742   YY=           -388.4102   ZZ=           -398.6365
   XY=             42.4429   XZ=             -5.3745   YZ=             26.9060

 Normal termination of Gaussian 16 at Sat Apr 30 07:50:44 2022.
