 Gaussian 16, Revision A.03,
 Gaussian 16:  ES64L-G16RevA.03 25-Dec-2016

 --------------------
 #p ZINDO=(nstates=5)
 --------------------

 -----------------------------
 step_651_chromophore_17 ZINDO
 -----------------------------
 Symbolic Z-matrix:
 Charge =  0 Multiplicity = 1

                         Standard orientation:
 ---------------------------------------------------------------------
 Center     Atomic      Atomic             Coordinates (Angstroms)
 Number     Number       Type             X           Y           Z
 ---------------------------------------------------------------------
      1         12           0        3.886614    1.528034   -0.964458
      2          6           0        4.282802   -1.989283   -0.486909
      3          6           0        1.398488    0.813138   -3.108750
      4          6           0        2.918432    4.546367   -0.496501
      5          6           0        6.049036    1.802080    1.964551
      6          7           0        2.946037   -0.407269   -1.668058
      7          6           0        3.288218   -1.694572   -1.415678
      8          6           0        2.263858   -2.658738   -2.088092
      9          6           0        1.623818   -1.720756   -3.202270
     10          6           0        2.019607   -0.306479   -2.596250
     11          6           0        2.059203   -2.017627   -4.714729
     12          6           0        1.368723   -3.206141   -0.976885
     13          6           0        0.985142   -4.679474   -1.003746
     14          6           0       -0.556588   -4.910659   -0.901263
     15          8           0       -1.414295   -4.681385   -1.702704
     16          8           0       -0.855141   -5.321580    0.389894
     17          7           0        2.424073    2.573321   -1.773739
     18          6           0        1.543180    2.167147   -2.719442
     19          6           0        0.840611    3.311279   -3.216039
     20          6           0        1.215141    4.425643   -2.421059
     21          6           0        2.164401    3.851969   -1.455862
     22          6           0       -0.198395    3.279736   -4.379478
     23          6           0        0.585754    5.809725   -2.464508
     24          8           0       -0.112161    6.101093   -3.408012
     25          6           0        0.934765    6.909725   -1.464171
     26          7           0        4.158423    2.920784    0.832667
     27          6           0        3.786369    4.207493    0.500637
     28          6           0        4.475573    5.184503    1.581203
     29          6           0        5.295870    4.266250    2.469901
     30          6           0        5.202436    2.893971    1.704232
     31          6           0        5.300682    6.314823    0.847159
     32          6           0        4.863450    4.066252    3.941006
     33          6           0        5.070025    5.268259    4.828772
     34          7           0        5.234368    0.246061    0.216400
     35          6           0        5.987810    0.525341    1.346353
     36          6           0        6.630639   -0.689210    1.775322
     37          6           0        6.003897   -1.754990    1.085120
     38          6           0        5.138771   -1.099375    0.175504
     39          6           0        7.544491   -0.766735    3.006174
     40          6           0        5.891964   -3.209581    0.891881
     41          8           0        6.449563   -4.236219    1.352245
     42          6           0        4.700156   -3.415455   -0.033856
     43          6           0        5.164795   -4.316059   -1.205263
     44          8           0        5.992252   -4.040628   -2.044620
     45          8           0        4.405399   -5.423431   -1.259658
     46          6           0        4.705013   -6.485342   -2.209642
     47          6           0       -2.300339   -5.625056    0.672653
     48          6           0       -3.010623   -4.471981    1.385941
     49          6           0       -4.330599   -4.269462    1.489268
     50          6           0       -5.543234   -5.210257    1.044996
     51          6           0       -4.802902   -2.956122    2.004764
     52          6           0       -4.488813   -2.723523    3.484289
     53          6           0       -3.904928   -1.298910    3.851550
     54          6           0       -5.020131   -0.399384    4.400039
     55          6           0       -4.820235   -0.012568    5.868892
     56          6           0       -5.227250    0.915902    3.558746
     57          6           0       -6.557776    0.834236    2.816151
     58          6           0       -6.532538    1.251975    1.323474
     59          6           0       -7.640585    0.603136    0.444133
     60          6           0       -7.235274   -0.697390   -0.133914
     61          6           0       -8.177350    1.579366   -0.590935
     62          6           0       -9.687133    1.867140   -0.524197
     63          6           0      -10.577394    1.262024   -1.599054
     64          6           0      -11.969998    2.023233   -1.618232
     65          6           0      -13.034886    1.469464   -0.628658
     66          6           0      -12.605354    1.995525   -3.035261
     67          1           0        0.643194    0.563750   -3.856602
     68          1           0        2.702416    5.601529   -0.313785
     69          1           0        6.733045    2.043430    2.780755
     70          1           0        2.801719   -3.427147   -2.643054
     71          1           0        0.534584   -1.683660   -3.227139
     72          1           0        3.001684   -1.561851   -5.018108
     73          1           0        1.245894   -1.733813   -5.381905
     74          1           0        2.222683   -3.081738   -4.888622
     75          1           0        0.459015   -2.611168   -0.897007
     76          1           0        1.845160   -3.077087   -0.004844
     77          1           0        1.530261   -5.180569   -0.204097
     78          1           0        1.473621   -5.081711   -1.890167
     79          1           0       -1.239506    3.495940   -4.144221
     80          1           0       -0.160971    2.322540   -4.900508
     81          1           0        0.112675    4.038613   -5.097071
     82          1           0        0.723339    6.618008   -0.435729
     83          1           0        0.312045    7.759451   -1.740855
     84          1           0        1.945561    7.281402   -1.635121
     85          1           0        3.631492    5.591525    2.137547
     86          1           0        6.348501    4.550054    2.470605
     87          1           0        5.028568    6.377325   -0.206757
     88          1           0        6.351037    6.036517    0.939102
     89          1           0        5.015021    7.264437    1.300709
     90          1           0        5.461026    3.256234    4.361225
     91          1           0        3.807842    3.800543    3.993751
     92          1           0        4.041428    5.433957    5.148637
     93          1           0        5.426564    6.117765    4.246607
     94          1           0        5.705852    4.907134    5.637275
     95          1           0        8.119252   -1.681489    3.148035
     96          1           0        6.977790   -0.599633    3.920845
     97          1           0        8.205481    0.095889    2.923292
     98          1           0        3.928737   -3.961382    0.508922
     99          1           0        4.199338   -7.346913   -1.773574
    100          1           0        5.763088   -6.709423   -2.345867
    101          1           0        4.363285   -6.223777   -3.211624
    102          1           0       -2.363136   -6.476443    1.349606
    103          1           0       -2.920808   -5.946579   -0.163873
    104          1           0       -2.344903   -3.719412    1.807839
    105          1           0       -6.108744   -5.397271    1.957802
    106          1           0       -5.227125   -6.178657    0.657127
    107          1           0       -6.223285   -4.795970    0.300806
    108          1           0       -5.889293   -2.996543    1.931345
    109          1           0       -4.391869   -2.117484    1.442279
    110          1           0       -3.791261   -3.473130    3.858602
    111          1           0       -5.434026   -2.890049    4.000863
    112          1           0       -3.368328   -0.871704    3.004446
    113          1           0       -3.109578   -1.409889    4.588907
    114          1           0       -5.973626   -0.926569    4.440162
    115          1           0       -4.425537    0.984105    6.064220
    116          1           0       -4.186324   -0.630330    6.506316
    117          1           0       -5.743978   -0.124802    6.435879
    118          1           0       -4.441760    1.048186    2.814161
    119          1           0       -5.189020    1.840418    4.134306
    120          1           0       -7.409764    1.385683    3.213483
    121          1           0       -6.920544   -0.191217    2.750252
    122          1           0       -5.511920    1.185624    0.946930
    123          1           0       -6.814277    2.304204    1.288792
    124          1           0       -8.405375    0.408513    1.196158
    125          1           0       -6.146492   -0.723404   -0.092222
    126          1           0       -7.526119   -0.905946   -1.163207
    127          1           0       -7.645477   -1.494587    0.486657
    128          1           0       -7.991204    1.228148   -1.605874
    129          1           0       -7.692534    2.544427   -0.439177
    130          1           0       -9.702148    2.955631   -0.462062
    131          1           0      -10.042913    1.453522    0.419155
    132          1           0      -10.650578    0.243440   -1.218602
    133          1           0       -9.948383    1.316570   -2.487986
    134          1           0      -11.762770    3.038572   -1.279976
    135          1           0      -13.842088    0.906690   -1.098892
    136          1           0      -13.545018    2.314177   -0.167023
    137          1           0      -12.481972    0.849636    0.077025
    138          1           0      -12.114863    2.742891   -3.659786
    139          1           0      -13.650129    2.292185   -2.950352
    140          1           0      -12.512945    1.019770   -3.511679
 ---------------------------------------------------------------------

 SCF Done:  E(RZINDO/S) =  -474.306592207     A.U. after   20 cycles

 Excitation energies and oscillator strengths:

 Excited State   1:      Singlet-A      1.2134 eV 1021.75 nm  f=0.6082  <S**2>=0.000
     175 ->178         0.19631
     176 ->177         0.66062
 This state for optimization and/or second-order correction.
 Total Energy, E(CIS/TDA) =  -474.261998752
 Copying the excited state density for this state as the 1-particle RhoCI density.

 Excited State   2:      Singlet-A      1.8770 eV  660.56 nm  f=0.0446  <S**2>=0.000
     175 ->177         0.55404
     176 ->178        -0.41174

 Excited State   3:      Singlet-A      2.7949 eV  443.61 nm  f=0.1647  <S**2>=0.000
     175 ->177         0.17549
     176 ->178         0.28278
     176 ->179        -0.21459
     176 ->180         0.57288

 Excited State   4:      Singlet-A      2.9079 eV  426.37 nm  f=0.3575  <S**2>=0.000
     168 ->177         0.16163
     168 ->179         0.18609
     168 ->181         0.11824
     175 ->177         0.23092
     176 ->178         0.34908
     176 ->179         0.39790
     176 ->180        -0.12102

 Excited State   5:      Singlet-A      2.9310 eV  423.01 nm  f=0.1054  <S**2>=0.000
     168 ->177         0.30985
     168 ->178         0.15292
     168 ->179         0.35788
     168 ->180         0.11201
     168 ->181         0.22726
     168 ->185        -0.17237
     175 ->177        -0.12722
     176 ->178        -0.19194
     176 ->179        -0.19997

 The electronic state is 1-A.
 Alpha  occ. eigenvalues --   -1.84019  -1.83178  -1.79083  -1.73210  -1.72181
 Alpha  occ. eigenvalues --   -1.70686  -1.66622  -1.61143  -1.60233  -1.58705
 Alpha  occ. eigenvalues --   -1.54967  -1.51391  -1.49428  -1.47762  -1.46581
 Alpha  occ. eigenvalues --   -1.44989  -1.43619  -1.39392  -1.39099  -1.37714
 Alpha  occ. eigenvalues --   -1.35134  -1.33264  -1.32750  -1.31623  -1.28333
 Alpha  occ. eigenvalues --   -1.27770  -1.26524  -1.22737  -1.21382  -1.18787
 Alpha  occ. eigenvalues --   -1.17669  -1.15779  -1.15157  -1.13888  -1.13583
 Alpha  occ. eigenvalues --   -1.13286  -1.10657  -1.10549  -1.05036  -1.04516
 Alpha  occ. eigenvalues --   -1.02570  -1.01186  -0.99004  -0.98013  -0.96363
 Alpha  occ. eigenvalues --   -0.95185  -0.94274  -0.93743  -0.92781  -0.91756
 Alpha  occ. eigenvalues --   -0.91255  -0.90098  -0.89308  -0.88124  -0.87210
 Alpha  occ. eigenvalues --   -0.86589  -0.84950  -0.83517  -0.82486  -0.80732
 Alpha  occ. eigenvalues --   -0.80378  -0.79605  -0.77692  -0.76969  -0.76275
 Alpha  occ. eigenvalues --   -0.76153  -0.75523  -0.74668  -0.73957  -0.73753
 Alpha  occ. eigenvalues --   -0.73564  -0.72663  -0.72087  -0.71513  -0.70916
 Alpha  occ. eigenvalues --   -0.70617  -0.70077  -0.68796  -0.68584  -0.68277
 Alpha  occ. eigenvalues --   -0.67628  -0.67064  -0.66337  -0.66183  -0.65140
 Alpha  occ. eigenvalues --   -0.64871  -0.64364  -0.64201  -0.64089  -0.63741
 Alpha  occ. eigenvalues --   -0.62725  -0.62413  -0.62212  -0.61770  -0.61523
 Alpha  occ. eigenvalues --   -0.61302  -0.60904  -0.60688  -0.60051  -0.59752
 Alpha  occ. eigenvalues --   -0.59266  -0.59020  -0.58202  -0.58058  -0.57910
 Alpha  occ. eigenvalues --   -0.57762  -0.57541  -0.57264  -0.56686  -0.56431
 Alpha  occ. eigenvalues --   -0.56189  -0.56083  -0.55599  -0.55038  -0.54753
 Alpha  occ. eigenvalues --   -0.54636  -0.54259  -0.53919  -0.53629  -0.53371
 Alpha  occ. eigenvalues --   -0.53255  -0.53051  -0.52439  -0.52212  -0.51939
 Alpha  occ. eigenvalues --   -0.51622  -0.51211  -0.50963  -0.50716  -0.50093
 Alpha  occ. eigenvalues --   -0.49883  -0.49430  -0.49381  -0.49255  -0.48619
 Alpha  occ. eigenvalues --   -0.48475  -0.48214  -0.48018  -0.47822  -0.47586
 Alpha  occ. eigenvalues --   -0.47382  -0.47188  -0.46653  -0.46592  -0.46462
 Alpha  occ. eigenvalues --   -0.46300  -0.46273  -0.45803  -0.45515  -0.45451
 Alpha  occ. eigenvalues --   -0.45183  -0.44930  -0.44734  -0.44593  -0.43938
 Alpha  occ. eigenvalues --   -0.43843  -0.43463  -0.42769  -0.42426  -0.42269
 Alpha  occ. eigenvalues --   -0.41904  -0.41675  -0.41646  -0.39549  -0.39212
 Alpha  occ. eigenvalues --   -0.38473  -0.38042  -0.35756  -0.35411  -0.34974
 Alpha  occ. eigenvalues --   -0.33371  -0.33223  -0.32856  -0.31852  -0.26835
 Alpha  occ. eigenvalues --   -0.21894
 Alpha virt. eigenvalues --   -0.08832  -0.02314  -0.00713   0.00174   0.01318
 Alpha virt. eigenvalues --    0.01980   0.02726   0.02893   0.04661   0.04872
 Alpha virt. eigenvalues --    0.06130   0.06714   0.07323   0.07540   0.08040

 Mulliken charges:
               1
     1  Mg   0.444952
     2  C   -0.043067
     3  C   -0.068675
     4  C   -0.085258
     5  C   -0.083997
     6  N   -0.265774
     7  C    0.119946
     8  C    0.012895
     9  C   -0.012393
    10  C    0.128934
    11  C   -0.049731
    12  C   -0.011401
    13  C    0.004129
    14  C    0.473248
    15  O   -0.500503
    16  O   -0.279211
    17  N   -0.308313
    18  C    0.106130
    19  C    0.033378
    20  C   -0.058652
    21  C    0.137603
    22  C   -0.041333
    23  C    0.327453
    24  O   -0.511988
    25  C   -0.030817
    26  N   -0.300864
    27  C    0.123778
    28  C    0.005483
    29  C    0.008675
    30  C    0.128504
    31  C   -0.054457
    32  C   -0.026928
    33  C   -0.065307
    34  N   -0.332293
    35  C    0.121408
    36  C    0.022631
    37  C   -0.044225
    38  C    0.127680
    39  C   -0.043204
    40  C    0.340671
    41  O   -0.529248
    42  C    0.048672
    43  C    0.489658
    44  O   -0.519389
    45  O   -0.273632
    46  C    0.079068
    47  C    0.101591
    48  C   -0.077625
    49  C   -0.010491
    50  C   -0.046223
    51  C   -0.018775
    52  C   -0.035408
    53  C   -0.031054
    54  C   -0.002037
    55  C   -0.062445
    56  C   -0.030090
    57  C   -0.042336
    58  C   -0.045325
    59  C   -0.003714
    60  C   -0.051553
    61  C   -0.037948
    62  C   -0.045008
    63  C   -0.038051
    64  C   -0.014409
    65  C   -0.058523
    66  C   -0.055874
    67  H    0.028749
    68  H    0.013047
    69  H    0.028639
    70  H    0.035153
    71  H    0.031779
    72  H    0.028828
    73  H    0.023624
    74  H    0.019177
    75  H    0.030197
    76  H    0.022046
    77  H    0.033878
    78  H    0.039856
    79  H    0.042299
    80  H    0.015617
    81  H    0.035258
    82  H    0.037107
    83  H    0.030537
    84  H    0.042164
    85  H    0.030509
    86  H    0.025585
    87  H    0.024775
    88  H    0.030034
    89  H    0.023000
    90  H    0.018224
    91  H    0.022644
    92  H    0.020611
    93  H    0.027272
    94  H    0.029171
    95  H    0.037277
    96  H    0.028173
    97  H    0.020723
    98  H    0.056966
    99  H    0.033907
   100  H    0.050158
   101  H    0.039899
   102  H    0.035115
   103  H    0.056502
   104  H    0.034535
   105  H    0.025306
   106  H    0.017108
   107  H    0.033628
   108  H    0.015349
   109  H    0.032077
   110  H    0.017473
   111  H    0.017444
   112  H    0.021892
   113  H    0.015219
   114  H    0.027678
   115  H    0.017418
   116  H    0.009966
   117  H    0.009582
   118  H    0.019553
   119  H    0.021591
   120  H    0.020861
   121  H    0.013258
   122  H    0.022334
   123  H    0.007086
   124  H    0.016130
   125  H    0.016185
   126  H    0.019307
   127  H    0.011987
   128  H    0.017719
   129  H    0.015791
   130  H    0.015250
   131  H    0.011777
   132  H    0.024545
   133  H    0.028258
   134  H    0.024835
   135  H    0.020877
   136  H    0.018033
   137  H    0.020586
   138  H    0.011035
   139  H    0.015931
   140  H    0.024953
 Sum of Mulliken charges =  -0.00000

 Dipole moment (field-independent basis, Debye):
    X=             -1.3558    Y=              2.8313    Z=              4.2297  Tot=              5.2673
 N-N= 4.494331496416D+03 E-N= 0.000000000000D+00  KE=-9.662699491350D+03
 Leave Link  601 at Sat Apr 30 08:04:05 2022, MaxMem=  6710886400 cpu:               0.8 elap:               0.0
 (Enter /sw/apps/gaussian-16.0/g16/l9999.exe)
 1\1\GINC-BP1-COMPUTE102\SP\RZINDO CIS\STO-3G\C55H74Mg1N4O6\OF15641\30-
 Apr-2022\0\\#p ZINDO=(nstates=5)\\step_651_chromophore_17 ZINDO\\0,1\M
 g,0,29.49,59.278,40.736\C,0,26.233,57.955,40.105\C,0,30.739,56.425,39.
 471\C,0,32.213,60.916,40.325\C,0,27.714,62.425,41.258\N,0,28.543,57.42
 ,39.855\C,0,27.24,57.059,39.756\C,0,27.12,55.704,38.994\C,0,28.583,55.
 105,39.172\C,0,29.361,56.445,39.523\C,0,28.729,53.883,40.197\C,0,26.61
 7,56.025,37.587\C,0,25.566,55.119,36.96\C,0,25.974,54.6,35.544\O,0,26.

 Normal termination of Gaussian 16 at Sat Apr 30 08:04:05 2022.
