 Gaussian 16, Revision A.03,
 Gaussian 16:  ES64L-G16RevA.03 25-Dec-2016

 ------------------------------
 #p blyp/Def2SVP td=(nstates=5)
 ------------------------------

 --------------------------------------------------
 step_351_chromophore_27 TDDFT with blyp functional
 --------------------------------------------------
 Symbolic Z-matrix:
 Charge =  0 Multiplicity = 1

                         Standard orientation:
 ---------------------------------------------------------------------
 Center     Atomic      Atomic             Coordinates (Angstroms)
 Number     Number       Type             X           Y           Z
 ---------------------------------------------------------------------
      1         12           0       -4.642884    0.769639   -0.139231
      2          6           0       -3.951034   -2.646989    0.156630
      3          6           0       -1.229111    1.229137    0.022413
      4          6           0       -5.195951    4.286360   -0.345084
      5          6           0       -7.949399    0.339217    0.168378
      6          7           0       -2.801511   -0.635667    0.107286
      7          6           0       -2.785412   -1.977991    0.074073
      8          6           0       -1.357263   -2.496565   -0.159992
      9          6           0       -0.481495   -1.244156    0.215503
     10          6           0       -1.512741   -0.150059    0.069725
     11          6           0        0.199328   -1.187100    1.631720
     12          6           0       -1.056839   -2.739499   -1.693906
     13          6           0        0.295929   -3.357251   -2.164641
     14          6           0        1.309508   -3.794295   -1.082327
     15          8           0        1.119641   -4.435905   -0.047330
     16          8           0        2.516705   -3.249537   -1.348080
     17          7           0       -3.412889    2.480076   -0.234812
     18          6           0       -2.040496    2.425111   -0.147708
     19          6           0       -1.624714    3.839886   -0.011437
     20          6           0       -2.727964    4.682211   -0.191093
     21          6           0       -3.865674    3.801094   -0.317551
     22          6           0       -0.271732    4.211209    0.396498
     23          6           0       -2.680225    6.179470   -0.282118
     24          8           0       -3.727604    6.853573   -0.352866
     25          6           0       -1.409248    7.059207   -0.211257
     26          7           0       -6.262435    2.093803   -0.112915
     27          6           0       -6.366880    3.484095   -0.186306
     28          6           0       -7.746485    4.081717    0.068754
     29          6           0       -8.566579    2.685912    0.097967
     30          6           0       -7.512653    1.607262   -0.039902
     31          6           0       -7.901228    5.110495    1.183995
     32          6           0       -9.706968    2.629591   -1.045660
     33          6           0      -11.179005    2.373383   -0.573052
     34          7           0       -5.771753   -0.779519    0.258048
     35          6           0       -7.185390   -0.825813    0.268470
     36          6           0       -7.601298   -2.240004    0.408215
     37          6           0       -6.349790   -3.016404    0.302076
     38          6           0       -5.292073   -2.047413    0.296015
     39          6           0       -8.946345   -2.756779    0.418655
     40          6           0       -5.794720   -4.349539    0.369453
     41          8           0       -6.335559   -5.413649    0.408416
     42          6           0       -4.196115   -4.151736    0.244637
     43          6           0       -3.656463   -4.843169    1.492341
     44          8           0       -4.168854   -4.721954    2.621603
     45          8           0       -2.596217   -5.687680    1.260962
     46          6           0       -2.157204   -6.722297    2.223820
     47          6           0        3.518103   -3.504734   -0.323328
     48          6           0        4.688840   -2.680411   -0.538802
     49          6           0        5.592742   -2.718199   -1.555905
     50          6           0        5.746672   -3.808578   -2.669571
     51          6           0        6.680483   -1.610864   -1.567843
     52          6           0        6.554975   -0.685163   -2.727133
     53          6           0        7.859334   -0.598851   -3.484300
     54          6           0        8.014061    0.841705   -4.124332
     55          6           0        8.098139    0.837334   -5.716542
     56          6           0        9.345662    1.482952   -3.542749
     57          6           0        9.087329    2.049163   -2.163155
     58          6           0       10.244023    1.756396   -1.169544
     59          6           0        9.790369    1.409418    0.220537
     60          6           0        9.735215   -0.127214    0.470568
     61          6           0       10.618482    2.128570    1.220746
     62          6           0        9.971972    2.497793    2.548530
     63          6           0        9.865211    1.257296    3.574475
     64          6           0       10.148508    1.564921    5.091203
     65          6           0       11.609074    1.231411    5.442064
     66          6           0        9.140445    0.921770    6.007892
     67          1           0       -0.152693    1.392600    0.111388
     68          1           0       -5.199446    5.368014   -0.492543
     69          1           0       -9.030945    0.184405    0.187768
     70          1           0       -1.091307   -3.348674    0.465964
     71          1           0        0.292076   -0.977442   -0.505180
     72          1           0        0.454772   -2.220998    1.864122
     73          1           0       -0.343353   -0.551363    2.331446
     74          1           0        1.134114   -0.687996    1.374863
     75          1           0       -1.273739   -1.788948   -2.181404
     76          1           0       -1.817108   -3.427481   -2.061784
     77          1           0        0.747768   -2.539596   -2.724386
     78          1           0        0.070059   -4.199269   -2.818988
     79          1           0        0.292175    4.765496   -0.353595
     80          1           0        0.394325    3.426750    0.757095
     81          1           0       -0.382056    4.863309    1.262898
     82          1           0       -0.857583    6.990762    0.726292
     83          1           0       -1.658632    8.083865   -0.487612
     84          1           0       -0.847306    6.539802   -0.986520
     85          1           0       -7.874152    4.591415   -0.885895
     86          1           0       -9.002512    2.482061    1.076407
     87          1           0       -7.244130    5.084732    2.053712
     88          1           0       -8.869429    4.933877    1.652664
     89          1           0       -8.013330    6.128331    0.810809
     90          1           0       -9.470220    1.903833   -1.823677
     91          1           0       -9.686749    3.566950   -1.602257
     92          1           0      -11.826218    3.247100   -0.648790
     93          1           0      -11.300211    1.988601    0.439172
     94          1           0      -11.568478    1.602184   -1.237177
     95          1           0       -9.339429   -2.485982   -0.561227
     96          1           0       -9.624342   -2.329946    1.158314
     97          1           0       -8.871160   -3.844878    0.419048
     98          1           0       -3.944575   -4.733780   -0.642433
     99          1           0       -2.257544   -7.745602    1.862300
    100          1           0       -2.734055   -6.634335    3.144352
    101          1           0       -1.078870   -6.703580    2.379957
    102          1           0        3.712910   -4.576232   -0.384487
    103          1           0        3.161931   -3.136893    0.638938
    104          1           0        4.796407   -1.941666    0.255746
    105          1           0        4.995338   -4.594974   -2.599066
    106          1           0        6.792070   -4.111638   -2.725396
    107          1           0        5.531042   -3.231378   -3.569156
    108          1           0        7.672490   -2.061401   -1.571862
    109          1           0        6.625681   -1.011878   -0.659417
    110          1           0        6.283718    0.319915   -2.405643
    111          1           0        5.802455   -0.990057   -3.453950
    112          1           0        8.026071   -1.423864   -4.177458
    113          1           0        8.590299   -0.630468   -2.675881
    114          1           0        7.128017    1.434406   -3.900818
    115          1           0        7.048325    0.640135   -5.932197
    116          1           0        8.887187    0.245555   -6.181273
    117          1           0        8.307557    1.856059   -6.040717
    118          1           0        9.784863    2.204616   -4.231691
    119          1           0       10.161409    0.759971   -3.535684
    120          1           0        8.123962    1.699233   -1.791916
    121          1           0        9.067963    3.129723   -2.301901
    122          1           0       11.004399    2.534056   -1.108512
    123          1           0       10.886708    1.022763   -1.656213
    124          1           0        8.771740    1.723498    0.446233
    125          1           0        8.874427   -0.320749    1.111334
    126          1           0       10.561749   -0.478134    1.088522
    127          1           0        9.805146   -0.670218   -0.471566
    128          1           0       11.030171    3.051467    0.811121
    129          1           0       11.412634    1.449578    1.532604
    130          1           0        8.929725    2.660168    2.274369
    131          1           0       10.190687    3.390300    3.133966
    132          1           0       10.441169    0.407599    3.207068
    133          1           0        8.831411    0.926693    3.476276
    134          1           0       10.031688    2.641612    5.219220
    135          1           0       12.212078    0.772835    4.658332
    136          1           0       11.701991    0.513273    6.256049
    137          1           0       12.093210    2.124687    5.839195
    138          1           0        8.412946    1.679942    6.295722
    139          1           0        9.652950    0.555315    6.897873
    140          1           0        8.724104    0.068552    5.472313
 ---------------------------------------------------------------------

 SCF Done:  E(RB-LYP) =  -3007.35429814     A.U. after   20 cycles

 Excitation energies and oscillator strengths:

 Excited State   1:      Singlet-A      1.7726 eV  699.45 nm  f=0.2839  <S**2>=0.000
     245 -> 248        0.16197
     245 -> 249        0.10515
     246 -> 247        0.68995
     246 <- 247       -0.15426
 This state for optimization and/or second-order correction.
 Total Energy, E(TD-HF/TD-DFT) =  -3007.28915600
 Copying the excited state density for this state as the 1-particle RhoCI density.

 Excited State   2:      Singlet-A      1.8586 eV  667.08 nm  f=0.0032  <S**2>=0.000
     244 -> 247        0.69097
     245 -> 247        0.14430

 Excited State   3:      Singlet-A      1.9487 eV  636.25 nm  f=0.0078  <S**2>=0.000
     243 -> 247        0.69429
     245 -> 247        0.10529

 Excited State   4:      Singlet-A      2.0051 eV  618.33 nm  f=0.0934  <S**2>=0.000
     243 -> 247       -0.11321
     244 -> 247       -0.14237
     245 -> 247        0.63064
     246 -> 248       -0.19948
     246 -> 249       -0.13081

 Excited State   5:      Singlet-A      2.4627 eV  503.44 nm  f=0.0020  <S**2>=0.000
     240 -> 247       -0.10760
     241 -> 247       -0.18080
     242 -> 247        0.66390

 The electronic state is 1-A.
 Alpha  occ. eigenvalues --  -46.26093 -18.82433 -18.81095 -18.77123 -18.75309
 Alpha  occ. eigenvalues --  -18.75250 -18.75186 -14.03075 -14.02366 -14.00989
 Alpha  occ. eigenvalues --  -14.00812 -10.04605 -10.03426 -10.00010  -9.98960
 Alpha  occ. eigenvalues --   -9.97369  -9.97102  -9.96444  -9.96130  -9.96116
 Alpha  occ. eigenvalues --   -9.95569  -9.95514  -9.95502  -9.95373  -9.95032
 Alpha  occ. eigenvalues --   -9.94441  -9.94270  -9.94170  -9.93930  -9.93792
 Alpha  occ. eigenvalues --   -9.93775  -9.93686  -9.93620  -9.93596  -9.93545
 Alpha  occ. eigenvalues --   -9.93510  -9.93356  -9.93118  -9.93105  -9.92755
 Alpha  occ. eigenvalues --   -9.92510  -9.92290  -9.92272  -9.92257  -9.92221
 Alpha  occ. eigenvalues --   -9.92155  -9.92108  -9.92054  -9.91861  -9.91768
 Alpha  occ. eigenvalues --   -9.91756  -9.91669  -9.91642  -9.91630  -9.91588
 Alpha  occ. eigenvalues --   -9.91473  -9.91315  -9.91231  -9.91223  -9.91132
 Alpha  occ. eigenvalues --   -9.91050  -9.90995  -9.90906  -9.90706  -9.90669
 Alpha  occ. eigenvalues --   -9.90619  -2.90907  -1.71330  -1.70811  -1.70605
 Alpha  occ. eigenvalues --   -0.99092  -0.95581  -0.92187  -0.90364  -0.89799
 Alpha  occ. eigenvalues --   -0.87369  -0.86092  -0.85770  -0.84269  -0.83884
 Alpha  occ. eigenvalues --   -0.74491  -0.74232  -0.73907  -0.72580  -0.71955
 Alpha  occ. eigenvalues --   -0.71539  -0.71267  -0.71201  -0.70637  -0.70620
 Alpha  occ. eigenvalues --   -0.69811  -0.69707  -0.68467  -0.67294  -0.67047
 Alpha  occ. eigenvalues --   -0.66495  -0.65531  -0.65158  -0.64737  -0.64325
 Alpha  occ. eigenvalues --   -0.63944  -0.62726  -0.62498  -0.61927  -0.61013
 Alpha  occ. eigenvalues --   -0.60445  -0.60414  -0.60255  -0.59814  -0.58911
 Alpha  occ. eigenvalues --   -0.58168  -0.57039  -0.56517  -0.55412  -0.54396
 Alpha  occ. eigenvalues --   -0.53780  -0.53375  -0.52550  -0.52370  -0.51492
 Alpha  occ. eigenvalues --   -0.51454  -0.51093  -0.50589  -0.50577  -0.50240
 Alpha  occ. eigenvalues --   -0.49804  -0.49564  -0.49288  -0.48115  -0.46619
 Alpha  occ. eigenvalues --   -0.46127  -0.45705  -0.44875  -0.44757  -0.44587
 Alpha  occ. eigenvalues --   -0.43656  -0.43380  -0.43029  -0.42593  -0.42272
 Alpha  occ. eigenvalues --   -0.41999  -0.41545  -0.41302  -0.41051  -0.40944
 Alpha  occ. eigenvalues --   -0.40648  -0.40559  -0.40249  -0.40125  -0.39861
 Alpha  occ. eigenvalues --   -0.39620  -0.39560  -0.39414  -0.39160  -0.39082
 Alpha  occ. eigenvalues --   -0.38863  -0.38760  -0.38460  -0.38273  -0.38213
 Alpha  occ. eigenvalues --   -0.38021  -0.37600  -0.37430  -0.37318  -0.37282
 Alpha  occ. eigenvalues --   -0.37012  -0.36917  -0.36694  -0.36527  -0.36459
 Alpha  occ. eigenvalues --   -0.36319  -0.36153  -0.36041  -0.35922  -0.35506
 Alpha  occ. eigenvalues --   -0.35319  -0.35265  -0.35029  -0.34850  -0.34773
 Alpha  occ. eigenvalues --   -0.34620  -0.34571  -0.34320  -0.34202  -0.34074
 Alpha  occ. eigenvalues --   -0.33866  -0.33625  -0.33445  -0.33178  -0.33071
 Alpha  occ. eigenvalues --   -0.32966  -0.32870  -0.32579  -0.32387  -0.32298
 Alpha  occ. eigenvalues --   -0.32142  -0.32060  -0.31801  -0.31587  -0.31532
 Alpha  occ. eigenvalues --   -0.31300  -0.31156  -0.30912  -0.30720  -0.30605
 Alpha  occ. eigenvalues --   -0.30390  -0.30322  -0.30115  -0.30031  -0.29700
 Alpha  occ. eigenvalues --   -0.29649  -0.29450  -0.29274  -0.29173  -0.29040
 Alpha  occ. eigenvalues --   -0.28529  -0.28516  -0.27838  -0.27817  -0.27617
 Alpha  occ. eigenvalues --   -0.27565  -0.27351  -0.26944  -0.26690  -0.25931
 Alpha  occ. eigenvalues --   -0.25891  -0.25759  -0.25709  -0.25642  -0.25233
 Alpha  occ. eigenvalues --   -0.25212  -0.24839  -0.23962  -0.23439  -0.23361
 Alpha  occ. eigenvalues --   -0.23190  -0.22638  -0.21858  -0.20815  -0.20556
 Alpha  occ. eigenvalues --   -0.20287  -0.19845  -0.18418  -0.18122  -0.16894
 Alpha  occ. eigenvalues --   -0.15483
 Alpha virt. eigenvalues --   -0.11349  -0.06665  -0.05570  -0.04355  -0.03917
 Alpha virt. eigenvalues --   -0.02818  -0.02258  -0.01721  -0.01159   0.00374
 Alpha virt. eigenvalues --    0.01278   0.01445   0.01769   0.02192   0.02516

 Mulliken charges:
               1
     1  Mg   0.701693
     2  C    0.016917
     3  C   -0.040652
     4  C   -0.055110
     5  C   -0.118177
     6  N   -0.183970
     7  C   -0.066143
     8  C    0.070570
     9  C   -0.035136
    10  C   -0.043011
    11  C    0.152999
    12  C    0.073370
    13  C    0.174023
    14  C    0.064870
    15  O   -0.208634
    16  O   -0.251956
    17  N   -0.296787
    18  C    0.150777
    19  C   -0.151476
    20  C    0.074217
    21  C    0.075489
    22  C    0.164562
    23  C   -0.084906
    24  O   -0.197890
    25  C    0.144749
    26  N   -0.228154
    27  C   -0.008016
    28  C    0.082804
    29  C   -0.017708
    30  C    0.117941
    31  C    0.161062
    32  C    0.080966
    33  C    0.049003
    34  N   -0.339450
    35  C    0.148633
    36  C   -0.147448
    37  C    0.027438
    38  C    0.091367
    39  C    0.180938
    40  C   -0.060156
    41  O   -0.100181
    42  C    0.055357
    43  C    0.129478
    44  O   -0.199716
    45  O   -0.275150
    46  C    0.212346
    47  C    0.336256
    48  C   -0.149231
    49  C   -0.124225
    50  C    0.165213
    51  C    0.141083
    52  C    0.041701
    53  C    0.103382
    54  C   -0.099706
    55  C    0.098513
    56  C    0.080430
    57  C    0.105059
    58  C    0.120817
    59  C   -0.075678
    60  C    0.116731
    61  C    0.116615
    62  C    0.078238
    63  C    0.043736
    64  C   -0.089394
    65  C    0.108306
    66  C    0.130851
    67  H   -0.074968
    68  H   -0.043385
    69  H   -0.065268
    70  H   -0.021907
    71  H   -0.029380
    72  H    0.015755
    73  H    0.012784
    74  H   -0.022344
    75  H   -0.017979
    76  H   -0.026527
    77  H   -0.004608
    78  H    0.010428
    79  H   -0.005845
    80  H   -0.017835
    81  H   -0.002847
    82  H    0.014023
    83  H    0.002735
    84  H   -0.006224
    85  H   -0.018789
    86  H   -0.012509
    87  H   -0.000422
    88  H   -0.026717
    89  H   -0.005269
    90  H   -0.017814
    91  H   -0.024839
    92  H   -0.002312
    93  H   -0.005124
    94  H   -0.009301
    95  H   -0.004616
    96  H    0.002056
    97  H    0.009928
    98  H   -0.010403
    99  H    0.006881
   100  H    0.026311
   101  H    0.018304
   102  H   -0.005140
   103  H   -0.008615
   104  H   -0.039233
   105  H   -0.001672
   106  H    0.007082
   107  H   -0.007176
   108  H   -0.017642
   109  H   -0.031289
   110  H   -0.027194
   111  H   -0.021633
   112  H   -0.022909
   113  H   -0.027981
   114  H   -0.027812
   115  H   -0.016597
   116  H   -0.004682
   117  H   -0.023766
   118  H   -0.051043
   119  H   -0.039493
   120  H   -0.019588
   121  H   -0.024142
   122  H   -0.052558
   123  H   -0.051509
   124  H   -0.040521
   125  H   -0.011717
   126  H   -0.027970
   127  H   -0.006034
   128  H   -0.034193
   129  H   -0.034339
   130  H   -0.056551
   131  H   -0.030840
   132  H   -0.031606
   133  H   -0.041301
   134  H   -0.038793
   135  H   -0.014342
   136  H   -0.032360
   137  H   -0.016114
   138  H   -0.011605
   139  H   -0.025804
   140  H   -0.013737
 Sum of Mulliken charges =  -0.00000

 Dipole moment (field-independent basis, Debye):
    X=              4.8979    Y=              2.4809    Z=             -3.1338  Tot=              6.3219
 Quadrupole moment (field-independent basis, Debye-Ang):
   XX=           -377.4736   YY=           -432.8065   ZZ=           -404.6783
   XY=            -28.3548   XZ=              7.0153   YZ=             16.4458

 Normal termination of Gaussian 16 at Fri Apr 29 16:01:37 2022.
