 Gaussian 16, Revision A.03,
 Gaussian 16:  ES64L-G16RevA.03 25-Dec-2016

 -----------------------------------
 #p cam-b3lyp/Def2SVP td=(nstates=5)
 -----------------------------------

 -------------------------------------------------------
 step_351_chromophore_27 TDDFT with cam-b3lyp functional
 -------------------------------------------------------
 Symbolic Z-matrix:
 Charge =  0 Multiplicity = 1

                         Standard orientation:
 ---------------------------------------------------------------------
 Center     Atomic      Atomic             Coordinates (Angstroms)
 Number     Number       Type             X           Y           Z
 ---------------------------------------------------------------------
      1         12           0       -4.642884    0.769639   -0.139231
      2          6           0       -3.951034   -2.646989    0.156630
      3          6           0       -1.229111    1.229137    0.022413
      4          6           0       -5.195951    4.286360   -0.345084
      5          6           0       -7.949399    0.339217    0.168378
      6          7           0       -2.801511   -0.635667    0.107286
      7          6           0       -2.785412   -1.977991    0.074073
      8          6           0       -1.357263   -2.496565   -0.159992
      9          6           0       -0.481495   -1.244156    0.215503
     10          6           0       -1.512741   -0.150059    0.069725
     11          6           0        0.199328   -1.187100    1.631720
     12          6           0       -1.056839   -2.739499   -1.693906
     13          6           0        0.295929   -3.357251   -2.164641
     14          6           0        1.309508   -3.794295   -1.082327
     15          8           0        1.119641   -4.435905   -0.047330
     16          8           0        2.516705   -3.249537   -1.348080
     17          7           0       -3.412889    2.480076   -0.234812
     18          6           0       -2.040496    2.425111   -0.147708
     19          6           0       -1.624714    3.839886   -0.011437
     20          6           0       -2.727964    4.682211   -0.191093
     21          6           0       -3.865674    3.801094   -0.317551
     22          6           0       -0.271732    4.211209    0.396498
     23          6           0       -2.680225    6.179470   -0.282118
     24          8           0       -3.727604    6.853573   -0.352866
     25          6           0       -1.409248    7.059207   -0.211257
     26          7           0       -6.262435    2.093803   -0.112915
     27          6           0       -6.366880    3.484095   -0.186306
     28          6           0       -7.746485    4.081717    0.068754
     29          6           0       -8.566579    2.685912    0.097967
     30          6           0       -7.512653    1.607262   -0.039902
     31          6           0       -7.901228    5.110495    1.183995
     32          6           0       -9.706968    2.629591   -1.045660
     33          6           0      -11.179005    2.373383   -0.573052
     34          7           0       -5.771753   -0.779519    0.258048
     35          6           0       -7.185390   -0.825813    0.268470
     36          6           0       -7.601298   -2.240004    0.408215
     37          6           0       -6.349790   -3.016404    0.302076
     38          6           0       -5.292073   -2.047413    0.296015
     39          6           0       -8.946345   -2.756779    0.418655
     40          6           0       -5.794720   -4.349539    0.369453
     41          8           0       -6.335559   -5.413649    0.408416
     42          6           0       -4.196115   -4.151736    0.244637
     43          6           0       -3.656463   -4.843169    1.492341
     44          8           0       -4.168854   -4.721954    2.621603
     45          8           0       -2.596217   -5.687680    1.260962
     46          6           0       -2.157204   -6.722297    2.223820
     47          6           0        3.518103   -3.504734   -0.323328
     48          6           0        4.688840   -2.680411   -0.538802
     49          6           0        5.592742   -2.718199   -1.555905
     50          6           0        5.746672   -3.808578   -2.669571
     51          6           0        6.680483   -1.610864   -1.567843
     52          6           0        6.554975   -0.685163   -2.727133
     53          6           0        7.859334   -0.598851   -3.484300
     54          6           0        8.014061    0.841705   -4.124332
     55          6           0        8.098139    0.837334   -5.716542
     56          6           0        9.345662    1.482952   -3.542749
     57          6           0        9.087329    2.049163   -2.163155
     58          6           0       10.244023    1.756396   -1.169544
     59          6           0        9.790369    1.409418    0.220537
     60          6           0        9.735215   -0.127214    0.470568
     61          6           0       10.618482    2.128570    1.220746
     62          6           0        9.971972    2.497793    2.548530
     63          6           0        9.865211    1.257296    3.574475
     64          6           0       10.148508    1.564921    5.091203
     65          6           0       11.609074    1.231411    5.442064
     66          6           0        9.140445    0.921770    6.007892
     67          1           0       -0.152693    1.392600    0.111388
     68          1           0       -5.199446    5.368014   -0.492543
     69          1           0       -9.030945    0.184405    0.187768
     70          1           0       -1.091307   -3.348674    0.465964
     71          1           0        0.292076   -0.977442   -0.505180
     72          1           0        0.454772   -2.220998    1.864122
     73          1           0       -0.343353   -0.551363    2.331446
     74          1           0        1.134114   -0.687996    1.374863
     75          1           0       -1.273739   -1.788948   -2.181404
     76          1           0       -1.817108   -3.427481   -2.061784
     77          1           0        0.747768   -2.539596   -2.724386
     78          1           0        0.070059   -4.199269   -2.818988
     79          1           0        0.292175    4.765496   -0.353595
     80          1           0        0.394325    3.426750    0.757095
     81          1           0       -0.382056    4.863309    1.262898
     82          1           0       -0.857583    6.990762    0.726292
     83          1           0       -1.658632    8.083865   -0.487612
     84          1           0       -0.847306    6.539802   -0.986520
     85          1           0       -7.874152    4.591415   -0.885895
     86          1           0       -9.002512    2.482061    1.076407
     87          1           0       -7.244130    5.084732    2.053712
     88          1           0       -8.869429    4.933877    1.652664
     89          1           0       -8.013330    6.128331    0.810809
     90          1           0       -9.470220    1.903833   -1.823677
     91          1           0       -9.686749    3.566950   -1.602257
     92          1           0      -11.826218    3.247100   -0.648790
     93          1           0      -11.300211    1.988601    0.439172
     94          1           0      -11.568478    1.602184   -1.237177
     95          1           0       -9.339429   -2.485982   -0.561227
     96          1           0       -9.624342   -2.329946    1.158314
     97          1           0       -8.871160   -3.844878    0.419048
     98          1           0       -3.944575   -4.733780   -0.642433
     99          1           0       -2.257544   -7.745602    1.862300
    100          1           0       -2.734055   -6.634335    3.144352
    101          1           0       -1.078870   -6.703580    2.379957
    102          1           0        3.712910   -4.576232   -0.384487
    103          1           0        3.161931   -3.136893    0.638938
    104          1           0        4.796407   -1.941666    0.255746
    105          1           0        4.995338   -4.594974   -2.599066
    106          1           0        6.792070   -4.111638   -2.725396
    107          1           0        5.531042   -3.231378   -3.569156
    108          1           0        7.672490   -2.061401   -1.571862
    109          1           0        6.625681   -1.011878   -0.659417
    110          1           0        6.283718    0.319915   -2.405643
    111          1           0        5.802455   -0.990057   -3.453950
    112          1           0        8.026071   -1.423864   -4.177458
    113          1           0        8.590299   -0.630468   -2.675881
    114          1           0        7.128017    1.434406   -3.900818
    115          1           0        7.048325    0.640135   -5.932197
    116          1           0        8.887187    0.245555   -6.181273
    117          1           0        8.307557    1.856059   -6.040717
    118          1           0        9.784863    2.204616   -4.231691
    119          1           0       10.161409    0.759971   -3.535684
    120          1           0        8.123962    1.699233   -1.791916
    121          1           0        9.067963    3.129723   -2.301901
    122          1           0       11.004399    2.534056   -1.108512
    123          1           0       10.886708    1.022763   -1.656213
    124          1           0        8.771740    1.723498    0.446233
    125          1           0        8.874427   -0.320749    1.111334
    126          1           0       10.561749   -0.478134    1.088522
    127          1           0        9.805146   -0.670218   -0.471566
    128          1           0       11.030171    3.051467    0.811121
    129          1           0       11.412634    1.449578    1.532604
    130          1           0        8.929725    2.660168    2.274369
    131          1           0       10.190687    3.390300    3.133966
    132          1           0       10.441169    0.407599    3.207068
    133          1           0        8.831411    0.926693    3.476276
    134          1           0       10.031688    2.641612    5.219220
    135          1           0       12.212078    0.772835    4.658332
    136          1           0       11.701991    0.513273    6.256049
    137          1           0       12.093210    2.124687    5.839195
    138          1           0        8.412946    1.679942    6.295722
    139          1           0        9.652950    0.555315    6.897873
    140          1           0        8.724104    0.068552    5.472313
 ---------------------------------------------------------------------

 SCF Done:  E(RCAM-B3LYP) =  -3007.14335597     A.U. after   19 cycles

 Excitation energies and oscillator strengths:

 Excited State   1:      Singlet-A      1.6632 eV  745.46 nm  f=0.3645  <S**2>=0.000
     245 -> 248        0.16719
     246 -> 247        0.68757
     245 <- 248        0.10503
 This state for optimization and/or second-order correction.
 Total Energy, E(TD-HF/TD-DFT) =  -3007.08223452
 Copying the excited state density for this state as the 1-particle RhoCI density.

 Excited State   2:      Singlet-A      2.2044 eV  562.44 nm  f=0.1393  <S**2>=0.000
     245 -> 247        0.64626
     246 -> 248       -0.27104

 Excited State   3:      Singlet-A      3.3152 eV  373.99 nm  f=0.0167  <S**2>=0.000
     243 -> 247       -0.24726
     244 -> 247        0.64121

 Excited State   4:      Singlet-A      3.4375 eV  360.69 nm  f=0.0293  <S**2>=0.000
     240 -> 247        0.11112
     243 -> 247        0.54862
     244 -> 247        0.24253
     246 -> 248        0.26622

 Excited State   5:      Singlet-A      3.5148 eV  352.75 nm  f=0.0193  <S**2>=0.000
     239 -> 247       -0.12256
     240 -> 247        0.33937
     240 -> 248        0.13915
     240 -> 249       -0.22165
     240 -> 250       -0.10356
     241 -> 247        0.35961
     241 -> 248        0.13594
     241 -> 249       -0.21320
     243 -> 247       -0.14265
     246 -> 248       -0.14210

 The electronic state is 1-A.
 Alpha  occ. eigenvalues --  -46.87585 -19.25281 -19.23886 -19.20062 -19.18653
 Alpha  occ. eigenvalues --  -19.18226 -19.18167 -14.42055 -14.41132 -14.39598
 Alpha  occ. eigenvalues --  -14.39110 -10.39887 -10.38795 -10.35514 -10.34052
 Alpha  occ. eigenvalues --  -10.31390 -10.31163 -10.31035 -10.30841 -10.30796
 Alpha  occ. eigenvalues --  -10.30158 -10.29880 -10.29657 -10.29372 -10.29279
 Alpha  occ. eigenvalues --  -10.28514 -10.28416 -10.28378 -10.28159 -10.28080
 Alpha  occ. eigenvalues --  -10.27889 -10.27873 -10.27832 -10.27645 -10.27588
 Alpha  occ. eigenvalues --  -10.27464 -10.27263 -10.27207 -10.26886 -10.26855
 Alpha  occ. eigenvalues --  -10.26606 -10.26588 -10.26543 -10.26108 -10.26053
 Alpha  occ. eigenvalues --  -10.25983 -10.25939 -10.25870 -10.25654 -10.25579
 Alpha  occ. eigenvalues --  -10.25522 -10.25310 -10.25308 -10.25236 -10.25185
 Alpha  occ. eigenvalues --  -10.25119 -10.24967 -10.24959 -10.24922 -10.24889
 Alpha  occ. eigenvalues --  -10.24865 -10.24753 -10.24578 -10.24337 -10.24255
 Alpha  occ. eigenvalues --  -10.24225  -3.16312  -1.91207  -1.90779  -1.90617
 Alpha  occ. eigenvalues --   -1.17540  -1.13919  -1.10414  -1.08976  -1.07620
 Alpha  occ. eigenvalues --   -1.05117  -1.03821  -1.03460  -1.01940  -1.01255
 Alpha  occ. eigenvalues --   -0.91389  -0.91197  -0.90756  -0.89286  -0.88648
 Alpha  occ. eigenvalues --   -0.88280  -0.87882  -0.87776  -0.87510  -0.87221
 Alpha  occ. eigenvalues --   -0.86217  -0.86055  -0.84814  -0.83456  -0.83116
 Alpha  occ. eigenvalues --   -0.82614  -0.81439  -0.81279  -0.80741  -0.80132
 Alpha  occ. eigenvalues --   -0.79762  -0.78429  -0.78215  -0.77432  -0.76373
 Alpha  occ. eigenvalues --   -0.75831  -0.75808  -0.75648  -0.75124  -0.74154
 Alpha  occ. eigenvalues --   -0.73173  -0.71965  -0.71429  -0.70187  -0.68946
 Alpha  occ. eigenvalues --   -0.68374  -0.67990  -0.67071  -0.66759  -0.65661
 Alpha  occ. eigenvalues --   -0.65522  -0.65258  -0.64692  -0.64640  -0.64058
 Alpha  occ. eigenvalues --   -0.63679  -0.63525  -0.63282  -0.61613  -0.60270
 Alpha  occ. eigenvalues --   -0.59807  -0.59275  -0.58286  -0.58031  -0.57831
 Alpha  occ. eigenvalues --   -0.57066  -0.56765  -0.56386  -0.55681  -0.55310
 Alpha  occ. eigenvalues --   -0.54979  -0.54752  -0.54284  -0.53950  -0.53576
 Alpha  occ. eigenvalues --   -0.53520  -0.53267  -0.52926  -0.52859  -0.52662
 Alpha  occ. eigenvalues --   -0.52411  -0.52378  -0.52159  -0.51982  -0.51565
 Alpha  occ. eigenvalues --   -0.51418  -0.51159  -0.50872  -0.50699  -0.50662
 Alpha  occ. eigenvalues --   -0.50478  -0.49903  -0.49841  -0.49723  -0.49616
 Alpha  occ. eigenvalues --   -0.49423  -0.49238  -0.49015  -0.48825  -0.48751
 Alpha  occ. eigenvalues --   -0.48578  -0.48476  -0.48279  -0.48004  -0.47882
 Alpha  occ. eigenvalues --   -0.47308  -0.47284  -0.47178  -0.46955  -0.46664
 Alpha  occ. eigenvalues --   -0.46584  -0.46364  -0.46333  -0.45970  -0.45775
 Alpha  occ. eigenvalues --   -0.45732  -0.45547  -0.45191  -0.45044  -0.44927
 Alpha  occ. eigenvalues --   -0.44725  -0.44619  -0.44378  -0.43964  -0.43905
 Alpha  occ. eigenvalues --   -0.43803  -0.43613  -0.43588  -0.43340  -0.43098
 Alpha  occ. eigenvalues --   -0.42873  -0.42499  -0.42318  -0.42133  -0.42006
 Alpha  occ. eigenvalues --   -0.41744  -0.41672  -0.41555  -0.41395  -0.41169
 Alpha  occ. eigenvalues --   -0.40829  -0.40594  -0.40461  -0.40234  -0.40038
 Alpha  occ. eigenvalues --   -0.39875  -0.39731  -0.39581  -0.38719  -0.38506
 Alpha  occ. eigenvalues --   -0.38407  -0.38326  -0.37905  -0.37493  -0.37111
 Alpha  occ. eigenvalues --   -0.36973  -0.36527  -0.36442  -0.36332  -0.36186
 Alpha  occ. eigenvalues --   -0.35900  -0.35362  -0.34701  -0.34538  -0.34376
 Alpha  occ. eigenvalues --   -0.34188  -0.33141  -0.32653  -0.30821  -0.30631
 Alpha  occ. eigenvalues --   -0.30606  -0.30039  -0.29845  -0.28808  -0.23646
 Alpha  occ. eigenvalues --   -0.20816
 Alpha virt. eigenvalues --   -0.08557  -0.01312   0.00710   0.02661   0.03293
 Alpha virt. eigenvalues --    0.03674   0.05069   0.05622   0.05762   0.06727
 Alpha virt. eigenvalues --    0.07478   0.08081   0.08352   0.08776   0.09092

 Mulliken charges:
               1
     1  Mg   0.835892
     2  C   -0.017081
     3  C   -0.064550
     4  C   -0.070006
     5  C   -0.115902
     6  N   -0.251904
     7  C   -0.029700
     8  C    0.013854
     9  C   -0.087870
    10  C   -0.017164
    11  C    0.098596
    12  C    0.028971
    13  C    0.104244
    14  C    0.140801
    15  O   -0.250571
    16  O   -0.313815
    17  N   -0.383997
    18  C    0.170880
    19  C   -0.156991
    20  C    0.001993
    21  C    0.104850
    22  C    0.097851
    23  C   -0.010445
    24  O   -0.239355
    25  C    0.072354
    26  N   -0.301920
    27  C    0.015700
    28  C    0.026693
    29  C   -0.076170
    30  C    0.131705
    31  C    0.095593
    32  C    0.026851
    33  C   -0.012184
    34  N   -0.431185
    35  C    0.146480
    36  C   -0.137127
    37  C   -0.049606
    38  C    0.136166
    39  C    0.117351
    40  C    0.036268
    41  O   -0.141531
    42  C   -0.017862
    43  C    0.220618
    44  O   -0.239945
    45  O   -0.342932
    46  C    0.179359
    47  C    0.300942
    48  C   -0.173088
    49  C   -0.140785
    50  C    0.108270
    51  C    0.081728
    52  C   -0.013034
    53  C    0.054628
    54  C   -0.156452
    55  C    0.044444
    56  C    0.027963
    57  C    0.050060
    58  C    0.064232
    59  C   -0.128753
    60  C    0.059441
    61  C    0.058124
    62  C    0.024031
    63  C   -0.006391
    64  C   -0.146776
    65  C    0.047207
    66  C    0.068977
    67  H   -0.041166
    68  H    0.002873
    69  H   -0.029782
    70  H    0.016812
    71  H    0.005260
    72  H    0.038887
    73  H    0.039011
    74  H   -0.000238
    75  H    0.011725
    76  H    0.003237
    77  H    0.030166
    78  H    0.042962
    79  H    0.022554
    80  H    0.013635
    81  H    0.023996
    82  H    0.041486
    83  H    0.038503
    84  H    0.018130
    85  H    0.016026
    86  H    0.021729
    87  H    0.026384
    88  H   -0.000933
    89  H    0.020255
    90  H    0.012002
    91  H    0.003783
    92  H    0.021029
    93  H    0.016286
    94  H    0.014014
    95  H    0.020947
    96  H    0.027266
    97  H    0.038056
    98  H    0.032033
    99  H    0.027425
   100  H    0.052470
   101  H    0.038709
   102  H    0.024152
   103  H    0.019382
   104  H   -0.007407
   105  H    0.023263
   106  H    0.030575
   107  H    0.015696
   108  H    0.010847
   109  H   -0.002089
   110  H    0.001407
   111  H    0.005882
   112  H    0.005110
   113  H   -0.006055
   114  H    0.003213
   115  H    0.007009
   116  H    0.018122
   117  H    0.000349
   118  H   -0.020053
   119  H   -0.010738
   120  H    0.003094
   121  H    0.005288
   122  H   -0.019965
   123  H   -0.021329
   124  H   -0.009657
   125  H    0.010175
   126  H   -0.002867
   127  H    0.015709
   128  H   -0.002482
   129  H   -0.007429
   130  H   -0.026618
   131  H   -0.000960
   132  H   -0.007130
   133  H   -0.013015
   134  H   -0.006984
   135  H    0.009060
   136  H   -0.007252
   137  H    0.008209
   138  H    0.012518
   139  H   -0.000426
   140  H    0.009838
 Sum of Mulliken charges =  -0.00000

 Dipole moment (field-independent basis, Debye):
    X=              5.4731    Y=              3.3097    Z=             -3.2813  Tot=              7.1886
 Quadrupole moment (field-independent basis, Debye-Ang):
   XX=           -378.9553   YY=           -428.3447   ZZ=           -404.5398
   XY=            -30.5248   XZ=              8.1642   YZ=             16.9027

 Normal termination of Gaussian 16 at Fri Apr 29 15:02:05 2022.
