 Gaussian 16, Revision A.03,
 Gaussian 16:  ES64L-G16RevA.03 25-Dec-2016

 ---------------------------------
 #p PBE1PBE/Def2SVP td=(nstates=5)
 ---------------------------------

 -----------------------------------------------------
 step_351_chromophore_27 TDDFT with PBE1PBE functional
 -----------------------------------------------------
 Symbolic Z-matrix:
 Charge =  0 Multiplicity = 1

                         Standard orientation:
 ---------------------------------------------------------------------
 Center     Atomic      Atomic             Coordinates (Angstroms)
 Number     Number       Type             X           Y           Z
 ---------------------------------------------------------------------
      1         12           0       -4.642884    0.769639   -0.139231
      2          6           0       -3.951034   -2.646989    0.156630
      3          6           0       -1.229111    1.229137    0.022413
      4          6           0       -5.195951    4.286360   -0.345084
      5          6           0       -7.949399    0.339217    0.168378
      6          7           0       -2.801511   -0.635667    0.107286
      7          6           0       -2.785412   -1.977991    0.074073
      8          6           0       -1.357263   -2.496565   -0.159992
      9          6           0       -0.481495   -1.244156    0.215503
     10          6           0       -1.512741   -0.150059    0.069725
     11          6           0        0.199328   -1.187100    1.631720
     12          6           0       -1.056839   -2.739499   -1.693906
     13          6           0        0.295929   -3.357251   -2.164641
     14          6           0        1.309508   -3.794295   -1.082327
     15          8           0        1.119641   -4.435905   -0.047330
     16          8           0        2.516705   -3.249537   -1.348080
     17          7           0       -3.412889    2.480076   -0.234812
     18          6           0       -2.040496    2.425111   -0.147708
     19          6           0       -1.624714    3.839886   -0.011437
     20          6           0       -2.727964    4.682211   -0.191093
     21          6           0       -3.865674    3.801094   -0.317551
     22          6           0       -0.271732    4.211209    0.396498
     23          6           0       -2.680225    6.179470   -0.282118
     24          8           0       -3.727604    6.853573   -0.352866
     25          6           0       -1.409248    7.059207   -0.211257
     26          7           0       -6.262435    2.093803   -0.112915
     27          6           0       -6.366880    3.484095   -0.186306
     28          6           0       -7.746485    4.081717    0.068754
     29          6           0       -8.566579    2.685912    0.097967
     30          6           0       -7.512653    1.607262   -0.039902
     31          6           0       -7.901228    5.110495    1.183995
     32          6           0       -9.706968    2.629591   -1.045660
     33          6           0      -11.179005    2.373383   -0.573052
     34          7           0       -5.771753   -0.779519    0.258048
     35          6           0       -7.185390   -0.825813    0.268470
     36          6           0       -7.601298   -2.240004    0.408215
     37          6           0       -6.349790   -3.016404    0.302076
     38          6           0       -5.292073   -2.047413    0.296015
     39          6           0       -8.946345   -2.756779    0.418655
     40          6           0       -5.794720   -4.349539    0.369453
     41          8           0       -6.335559   -5.413649    0.408416
     42          6           0       -4.196115   -4.151736    0.244637
     43          6           0       -3.656463   -4.843169    1.492341
     44          8           0       -4.168854   -4.721954    2.621603
     45          8           0       -2.596217   -5.687680    1.260962
     46          6           0       -2.157204   -6.722297    2.223820
     47          6           0        3.518103   -3.504734   -0.323328
     48          6           0        4.688840   -2.680411   -0.538802
     49          6           0        5.592742   -2.718199   -1.555905
     50          6           0        5.746672   -3.808578   -2.669571
     51          6           0        6.680483   -1.610864   -1.567843
     52          6           0        6.554975   -0.685163   -2.727133
     53          6           0        7.859334   -0.598851   -3.484300
     54          6           0        8.014061    0.841705   -4.124332
     55          6           0        8.098139    0.837334   -5.716542
     56          6           0        9.345662    1.482952   -3.542749
     57          6           0        9.087329    2.049163   -2.163155
     58          6           0       10.244023    1.756396   -1.169544
     59          6           0        9.790369    1.409418    0.220537
     60          6           0        9.735215   -0.127214    0.470568
     61          6           0       10.618482    2.128570    1.220746
     62          6           0        9.971972    2.497793    2.548530
     63          6           0        9.865211    1.257296    3.574475
     64          6           0       10.148508    1.564921    5.091203
     65          6           0       11.609074    1.231411    5.442064
     66          6           0        9.140445    0.921770    6.007892
     67          1           0       -0.152693    1.392600    0.111388
     68          1           0       -5.199446    5.368014   -0.492543
     69          1           0       -9.030945    0.184405    0.187768
     70          1           0       -1.091307   -3.348674    0.465964
     71          1           0        0.292076   -0.977442   -0.505180
     72          1           0        0.454772   -2.220998    1.864122
     73          1           0       -0.343353   -0.551363    2.331446
     74          1           0        1.134114   -0.687996    1.374863
     75          1           0       -1.273739   -1.788948   -2.181404
     76          1           0       -1.817108   -3.427481   -2.061784
     77          1           0        0.747768   -2.539596   -2.724386
     78          1           0        0.070059   -4.199269   -2.818988
     79          1           0        0.292175    4.765496   -0.353595
     80          1           0        0.394325    3.426750    0.757095
     81          1           0       -0.382056    4.863309    1.262898
     82          1           0       -0.857583    6.990762    0.726292
     83          1           0       -1.658632    8.083865   -0.487612
     84          1           0       -0.847306    6.539802   -0.986520
     85          1           0       -7.874152    4.591415   -0.885895
     86          1           0       -9.002512    2.482061    1.076407
     87          1           0       -7.244130    5.084732    2.053712
     88          1           0       -8.869429    4.933877    1.652664
     89          1           0       -8.013330    6.128331    0.810809
     90          1           0       -9.470220    1.903833   -1.823677
     91          1           0       -9.686749    3.566950   -1.602257
     92          1           0      -11.826218    3.247100   -0.648790
     93          1           0      -11.300211    1.988601    0.439172
     94          1           0      -11.568478    1.602184   -1.237177
     95          1           0       -9.339429   -2.485982   -0.561227
     96          1           0       -9.624342   -2.329946    1.158314
     97          1           0       -8.871160   -3.844878    0.419048
     98          1           0       -3.944575   -4.733780   -0.642433
     99          1           0       -2.257544   -7.745602    1.862300
    100          1           0       -2.734055   -6.634335    3.144352
    101          1           0       -1.078870   -6.703580    2.379957
    102          1           0        3.712910   -4.576232   -0.384487
    103          1           0        3.161931   -3.136893    0.638938
    104          1           0        4.796407   -1.941666    0.255746
    105          1           0        4.995338   -4.594974   -2.599066
    106          1           0        6.792070   -4.111638   -2.725396
    107          1           0        5.531042   -3.231378   -3.569156
    108          1           0        7.672490   -2.061401   -1.571862
    109          1           0        6.625681   -1.011878   -0.659417
    110          1           0        6.283718    0.319915   -2.405643
    111          1           0        5.802455   -0.990057   -3.453950
    112          1           0        8.026071   -1.423864   -4.177458
    113          1           0        8.590299   -0.630468   -2.675881
    114          1           0        7.128017    1.434406   -3.900818
    115          1           0        7.048325    0.640135   -5.932197
    116          1           0        8.887187    0.245555   -6.181273
    117          1           0        8.307557    1.856059   -6.040717
    118          1           0        9.784863    2.204616   -4.231691
    119          1           0       10.161409    0.759971   -3.535684
    120          1           0        8.123962    1.699233   -1.791916
    121          1           0        9.067963    3.129723   -2.301901
    122          1           0       11.004399    2.534056   -1.108512
    123          1           0       10.886708    1.022763   -1.656213
    124          1           0        8.771740    1.723498    0.446233
    125          1           0        8.874427   -0.320749    1.111334
    126          1           0       10.561749   -0.478134    1.088522
    127          1           0        9.805146   -0.670218   -0.471566
    128          1           0       11.030171    3.051467    0.811121
    129          1           0       11.412634    1.449578    1.532604
    130          1           0        8.929725    2.660168    2.274369
    131          1           0       10.190687    3.390300    3.133966
    132          1           0       10.441169    0.407599    3.207068
    133          1           0        8.831411    0.926693    3.476276
    134          1           0       10.031688    2.641612    5.219220
    135          1           0       12.212078    0.772835    4.658332
    136          1           0       11.701991    0.513273    6.256049
    137          1           0       12.093210    2.124687    5.839195
    138          1           0        8.412946    1.679942    6.295722
    139          1           0        9.652950    0.555315    6.897873
    140          1           0        8.724104    0.068552    5.472313
 ---------------------------------------------------------------------

 SCF Done:  E(RPBE1PBE) =  -3005.33223683     A.U. after   16 cycles

 Excitation energies and oscillator strengths:

 Excited State   1:      Singlet-A      1.8184 eV  681.82 nm  f=0.3524  <S**2>=0.000
     245 -> 248        0.15576
     246 -> 247        0.69486
     246 <- 247       -0.11259
 This state for optimization and/or second-order correction.
 Total Energy, E(TD-HF/TD-DFT) =  -3005.26541076
 Copying the excited state density for this state as the 1-particle RhoCI density.

 Excited State   2:      Singlet-A      2.2148 eV  559.81 nm  f=0.1330  <S**2>=0.000
     245 -> 247        0.65595
     246 -> 248       -0.24357

 Excited State   3:      Singlet-A      2.9444 eV  421.09 nm  f=0.0047  <S**2>=0.000
     242 -> 247       -0.12839
     243 -> 247        0.21047
     244 -> 247        0.64871

 Excited State   4:      Singlet-A      2.9932 eV  414.22 nm  f=0.0002  <S**2>=0.000
     241 -> 247       -0.17834
     242 -> 247        0.62006
     242 -> 248        0.11493
     242 -> 249       -0.13911
     243 -> 247        0.16782

 Excited State   5:      Singlet-A      3.0268 eV  409.62 nm  f=0.0035  <S**2>=0.000
     242 -> 247       -0.11348
     243 -> 247        0.63153
     244 -> 247       -0.23041

 The electronic state is 1-A.
 Alpha  occ. eigenvalues --  -46.90993 -19.25952 -19.24583 -19.20356 -19.18754
 Alpha  occ. eigenvalues --  -19.18592 -19.18480 -14.41519 -14.40683 -14.39191
 Alpha  occ. eigenvalues --  -14.38885 -10.36925 -10.35892 -10.32532 -10.31340
 Alpha  occ. eigenvalues --  -10.28792 -10.28746 -10.28387 -10.28341 -10.28288
 Alpha  occ. eigenvalues --  -10.27692 -10.27627 -10.27478 -10.27331 -10.27133
 Alpha  occ. eigenvalues --  -10.26228 -10.25951 -10.25940 -10.25918 -10.25836
 Alpha  occ. eigenvalues --  -10.25774 -10.25667 -10.25610 -10.25427 -10.25364
 Alpha  occ. eigenvalues --  -10.25242 -10.24918 -10.24604 -10.24557 -10.24391
 Alpha  occ. eigenvalues --  -10.24377 -10.23867 -10.23730 -10.23708 -10.23610
 Alpha  occ. eigenvalues --  -10.23438 -10.23430 -10.23376 -10.23237 -10.23127
 Alpha  occ. eigenvalues --  -10.23077 -10.22989 -10.22891 -10.22826 -10.22777
 Alpha  occ. eigenvalues --  -10.22735 -10.22660 -10.22528 -10.22522 -10.22382
 Alpha  occ. eigenvalues --  -10.22342 -10.22298 -10.22154 -10.21886 -10.21626
 Alpha  occ. eigenvalues --  -10.21605  -3.13296  -1.86133  -1.85683  -1.85525
 Alpha  occ. eigenvalues --   -1.12358  -1.08730  -1.05328  -1.03546  -1.02469
 Alpha  occ. eigenvalues --   -0.99981  -0.98412  -0.98049  -0.96500  -0.96001
 Alpha  occ. eigenvalues --   -0.85606  -0.85503  -0.84887  -0.83474  -0.82807
 Alpha  occ. eigenvalues --   -0.82562  -0.82050  -0.82015  -0.81677  -0.81519
 Alpha  occ. eigenvalues --   -0.80608  -0.80274  -0.79037  -0.77680  -0.77408
 Alpha  occ. eigenvalues --   -0.76867  -0.75637  -0.75425  -0.74959  -0.74288
 Alpha  occ. eigenvalues --   -0.74073  -0.72743  -0.72443  -0.71750  -0.70545
 Alpha  occ. eigenvalues --   -0.70196  -0.69902  -0.69738  -0.69485  -0.68351
 Alpha  occ. eigenvalues --   -0.67502  -0.66459  -0.65834  -0.64499  -0.63298
 Alpha  occ. eigenvalues --   -0.62645  -0.62377  -0.61502  -0.60958  -0.60020
 Alpha  occ. eigenvalues --   -0.59912  -0.59648  -0.59225  -0.58879  -0.58528
 Alpha  occ. eigenvalues --   -0.58269  -0.57727  -0.57454  -0.56262  -0.54640
 Alpha  occ. eigenvalues --   -0.54290  -0.53766  -0.52874  -0.52715  -0.52192
 Alpha  occ. eigenvalues --   -0.51656  -0.51247  -0.50871  -0.50256  -0.49854
 Alpha  occ. eigenvalues --   -0.49467  -0.49247  -0.48907  -0.48438  -0.48075
 Alpha  occ. eigenvalues --   -0.48023  -0.47764  -0.47545  -0.47345  -0.47132
 Alpha  occ. eigenvalues --   -0.46883  -0.46784  -0.46654  -0.46530  -0.46150
 Alpha  occ. eigenvalues --   -0.46035  -0.45688  -0.45425  -0.45283  -0.45228
 Alpha  occ. eigenvalues --   -0.44978  -0.44484  -0.44340  -0.44294  -0.44092
 Alpha  occ. eigenvalues --   -0.44008  -0.43876  -0.43652  -0.43445  -0.43350
 Alpha  occ. eigenvalues --   -0.43215  -0.43103  -0.42909  -0.42622  -0.42502
 Alpha  occ. eigenvalues --   -0.41969  -0.41862  -0.41739  -0.41560  -0.41339
 Alpha  occ. eigenvalues --   -0.41242  -0.41048  -0.40910  -0.40735  -0.40510
 Alpha  occ. eigenvalues --   -0.40401  -0.40282  -0.39931  -0.39813  -0.39680
 Alpha  occ. eigenvalues --   -0.39536  -0.39388  -0.39183  -0.38734  -0.38678
 Alpha  occ. eigenvalues --   -0.38493  -0.38328  -0.38270  -0.38196  -0.37898
 Alpha  occ. eigenvalues --   -0.37647  -0.37299  -0.37106  -0.36917  -0.36820
 Alpha  occ. eigenvalues --   -0.36593  -0.36465  -0.36331  -0.36278  -0.35984
 Alpha  occ. eigenvalues --   -0.35632  -0.35530  -0.35385  -0.35010  -0.34794
 Alpha  occ. eigenvalues --   -0.34730  -0.34613  -0.34327  -0.33530  -0.33319
 Alpha  occ. eigenvalues --   -0.33283  -0.33176  -0.32929  -0.32264  -0.32063
 Alpha  occ. eigenvalues --   -0.31986  -0.31513  -0.31418  -0.31276  -0.31261
 Alpha  occ. eigenvalues --   -0.30704  -0.30244  -0.29692  -0.29396  -0.29377
 Alpha  occ. eigenvalues --   -0.29327  -0.28463  -0.27809  -0.26375  -0.25955
 Alpha  occ. eigenvalues --   -0.25453  -0.25162  -0.25124  -0.24595  -0.20576
 Alpha  occ. eigenvalues --   -0.18422
 Alpha virt. eigenvalues --   -0.10973  -0.04876  -0.03412  -0.01782  -0.00881
 Alpha virt. eigenvalues --    0.00353   0.00669   0.00926   0.01522   0.03247
 Alpha virt. eigenvalues --    0.04069   0.04136   0.04765   0.05164   0.05432

 Mulliken charges:
               1
     1  Mg   0.989955
     2  C   -0.038742
     3  C   -0.064146
     4  C   -0.053609
     5  C   -0.101767
     6  N   -0.348130
     7  C    0.044050
     8  C   -0.071797
     9  C   -0.158718
    10  C    0.019193
    11  C    0.040370
    12  C   -0.013454
    13  C    0.029731
    14  C    0.204023
    15  O   -0.283474
    16  O   -0.343683
    17  N   -0.499924
    18  C    0.205432
    19  C   -0.194469
    20  C   -0.053005
    21  C    0.134340
    22  C    0.041069
    23  C    0.037138
    24  O   -0.274519
    25  C   -0.001976
    26  N   -0.410238
    27  C    0.047662
    28  C   -0.045846
    29  C   -0.157188
    30  C    0.167315
    31  C    0.035175
    32  C   -0.028987
    33  C   -0.083456
    34  N   -0.559782
    35  C    0.168791
    36  C   -0.154545
    37  C   -0.093475
    38  C    0.199211
    39  C    0.056962
    40  C    0.128758
    41  O   -0.186336
    42  C   -0.121506
    43  C    0.311276
    44  O   -0.272449
    45  O   -0.376758
    46  C    0.127804
    47  C    0.255507
    48  C   -0.184292
    49  C   -0.180716
    50  C    0.045374
    51  C    0.014165
    52  C   -0.069103
    53  C   -0.006432
    54  C   -0.243224
    55  C   -0.017260
    56  C   -0.024550
    57  C   -0.017998
    58  C    0.014104
    59  C   -0.213767
    60  C    0.000026
    61  C   -0.004499
    62  C   -0.037985
    63  C   -0.058929
    64  C   -0.238153
    65  C   -0.010223
    66  C    0.005700
    67  H   -0.007154
    68  H    0.034542
    69  H    0.003598
    70  H    0.054982
    71  H    0.043174
    72  H    0.066370
    73  H    0.065923
    74  H    0.027673
    75  H    0.045206
    76  H    0.037670
    77  H    0.062008
    78  H    0.074218
    79  H    0.049369
    80  H    0.039309
    81  H    0.052143
    82  H    0.066745
    83  H    0.064975
    84  H    0.046200
    85  H    0.053751
    86  H    0.059000
    87  H    0.053500
    88  H    0.027666
    89  H    0.047279
    90  H    0.043478
    91  H    0.036607
    92  H    0.048701
    93  H    0.042317
    94  H    0.041475
    95  H    0.050586
    96  H    0.054900
    97  H    0.066828
    98  H    0.068592
    99  H    0.049175
   100  H    0.072317
   101  H    0.059431
   102  H    0.050661
   103  H    0.046522
   104  H    0.021689
   105  H    0.050765
   106  H    0.057158
   107  H    0.044304
   108  H    0.043458
   109  H    0.030926
   110  H    0.032499
   111  H    0.039773
   112  H    0.036492
   113  H    0.034908
   114  H    0.040078
   115  H    0.036381
   116  H    0.044835
   117  H    0.029239
   118  H    0.012110
   119  H    0.020698
   120  H    0.037410
   121  H    0.039981
   122  H    0.011670
   123  H    0.010587
   124  H    0.027644
   125  H    0.037256
   126  H    0.023909
   127  H    0.044199
   128  H    0.030316
   129  H    0.028065
   130  H    0.008829
   131  H    0.029949
   132  H    0.024821
   133  H    0.019910
   134  H    0.031057
   135  H    0.035390
   136  H    0.019717
   137  H    0.035494
   138  H    0.040145
   139  H    0.027450
   140  H    0.037134
 Sum of Mulliken charges =  -0.00000

 Dipole moment (field-independent basis, Debye):
    X=              5.2295    Y=              3.0244    Z=             -3.2808  Tot=              6.8745
 Quadrupole moment (field-independent basis, Debye-Ang):
   XX=           -370.9846   YY=           -426.3136   ZZ=           -401.8731
   XY=            -29.9188   XZ=              7.8246   YZ=             17.1066

 Normal termination of Gaussian 16 at Fri Apr 29 15:18:31 2022.
