 Gaussian 16, Revision A.03,
 Gaussian 16:  ES64L-G16RevA.03 25-Dec-2016

 --------------------------------
 #p wB97XD/Def2SVP td=(nstates=5)
 --------------------------------

 ----------------------------------------------------
 step_351_chromophore_27 TDDFT with wB97XD functional
 ----------------------------------------------------
 Symbolic Z-matrix:
 Charge =  0 Multiplicity = 1

                         Standard orientation:
 ---------------------------------------------------------------------
 Center     Atomic      Atomic             Coordinates (Angstroms)
 Number     Number       Type             X           Y           Z
 ---------------------------------------------------------------------
      1         12           0       -4.642884    0.769639   -0.139231
      2          6           0       -3.951034   -2.646989    0.156630
      3          6           0       -1.229111    1.229137    0.022413
      4          6           0       -5.195951    4.286360   -0.345084
      5          6           0       -7.949399    0.339217    0.168378
      6          7           0       -2.801511   -0.635667    0.107286
      7          6           0       -2.785412   -1.977991    0.074073
      8          6           0       -1.357263   -2.496565   -0.159992
      9          6           0       -0.481495   -1.244156    0.215503
     10          6           0       -1.512741   -0.150059    0.069725
     11          6           0        0.199328   -1.187100    1.631720
     12          6           0       -1.056839   -2.739499   -1.693906
     13          6           0        0.295929   -3.357251   -2.164641
     14          6           0        1.309508   -3.794295   -1.082327
     15          8           0        1.119641   -4.435905   -0.047330
     16          8           0        2.516705   -3.249537   -1.348080
     17          7           0       -3.412889    2.480076   -0.234812
     18          6           0       -2.040496    2.425111   -0.147708
     19          6           0       -1.624714    3.839886   -0.011437
     20          6           0       -2.727964    4.682211   -0.191093
     21          6           0       -3.865674    3.801094   -0.317551
     22          6           0       -0.271732    4.211209    0.396498
     23          6           0       -2.680225    6.179470   -0.282118
     24          8           0       -3.727604    6.853573   -0.352866
     25          6           0       -1.409248    7.059207   -0.211257
     26          7           0       -6.262435    2.093803   -0.112915
     27          6           0       -6.366880    3.484095   -0.186306
     28          6           0       -7.746485    4.081717    0.068754
     29          6           0       -8.566579    2.685912    0.097967
     30          6           0       -7.512653    1.607262   -0.039902
     31          6           0       -7.901228    5.110495    1.183995
     32          6           0       -9.706968    2.629591   -1.045660
     33          6           0      -11.179005    2.373383   -0.573052
     34          7           0       -5.771753   -0.779519    0.258048
     35          6           0       -7.185390   -0.825813    0.268470
     36          6           0       -7.601298   -2.240004    0.408215
     37          6           0       -6.349790   -3.016404    0.302076
     38          6           0       -5.292073   -2.047413    0.296015
     39          6           0       -8.946345   -2.756779    0.418655
     40          6           0       -5.794720   -4.349539    0.369453
     41          8           0       -6.335559   -5.413649    0.408416
     42          6           0       -4.196115   -4.151736    0.244637
     43          6           0       -3.656463   -4.843169    1.492341
     44          8           0       -4.168854   -4.721954    2.621603
     45          8           0       -2.596217   -5.687680    1.260962
     46          6           0       -2.157204   -6.722297    2.223820
     47          6           0        3.518103   -3.504734   -0.323328
     48          6           0        4.688840   -2.680411   -0.538802
     49          6           0        5.592742   -2.718199   -1.555905
     50          6           0        5.746672   -3.808578   -2.669571
     51          6           0        6.680483   -1.610864   -1.567843
     52          6           0        6.554975   -0.685163   -2.727133
     53          6           0        7.859334   -0.598851   -3.484300
     54          6           0        8.014061    0.841705   -4.124332
     55          6           0        8.098139    0.837334   -5.716542
     56          6           0        9.345662    1.482952   -3.542749
     57          6           0        9.087329    2.049163   -2.163155
     58          6           0       10.244023    1.756396   -1.169544
     59          6           0        9.790369    1.409418    0.220537
     60          6           0        9.735215   -0.127214    0.470568
     61          6           0       10.618482    2.128570    1.220746
     62          6           0        9.971972    2.497793    2.548530
     63          6           0        9.865211    1.257296    3.574475
     64          6           0       10.148508    1.564921    5.091203
     65          6           0       11.609074    1.231411    5.442064
     66          6           0        9.140445    0.921770    6.007892
     67          1           0       -0.152693    1.392600    0.111388
     68          1           0       -5.199446    5.368014   -0.492543
     69          1           0       -9.030945    0.184405    0.187768
     70          1           0       -1.091307   -3.348674    0.465964
     71          1           0        0.292076   -0.977442   -0.505180
     72          1           0        0.454772   -2.220998    1.864122
     73          1           0       -0.343353   -0.551363    2.331446
     74          1           0        1.134114   -0.687996    1.374863
     75          1           0       -1.273739   -1.788948   -2.181404
     76          1           0       -1.817108   -3.427481   -2.061784
     77          1           0        0.747768   -2.539596   -2.724386
     78          1           0        0.070059   -4.199269   -2.818988
     79          1           0        0.292175    4.765496   -0.353595
     80          1           0        0.394325    3.426750    0.757095
     81          1           0       -0.382056    4.863309    1.262898
     82          1           0       -0.857583    6.990762    0.726292
     83          1           0       -1.658632    8.083865   -0.487612
     84          1           0       -0.847306    6.539802   -0.986520
     85          1           0       -7.874152    4.591415   -0.885895
     86          1           0       -9.002512    2.482061    1.076407
     87          1           0       -7.244130    5.084732    2.053712
     88          1           0       -8.869429    4.933877    1.652664
     89          1           0       -8.013330    6.128331    0.810809
     90          1           0       -9.470220    1.903833   -1.823677
     91          1           0       -9.686749    3.566950   -1.602257
     92          1           0      -11.826218    3.247100   -0.648790
     93          1           0      -11.300211    1.988601    0.439172
     94          1           0      -11.568478    1.602184   -1.237177
     95          1           0       -9.339429   -2.485982   -0.561227
     96          1           0       -9.624342   -2.329946    1.158314
     97          1           0       -8.871160   -3.844878    0.419048
     98          1           0       -3.944575   -4.733780   -0.642433
     99          1           0       -2.257544   -7.745602    1.862300
    100          1           0       -2.734055   -6.634335    3.144352
    101          1           0       -1.078870   -6.703580    2.379957
    102          1           0        3.712910   -4.576232   -0.384487
    103          1           0        3.161931   -3.136893    0.638938
    104          1           0        4.796407   -1.941666    0.255746
    105          1           0        4.995338   -4.594974   -2.599066
    106          1           0        6.792070   -4.111638   -2.725396
    107          1           0        5.531042   -3.231378   -3.569156
    108          1           0        7.672490   -2.061401   -1.571862
    109          1           0        6.625681   -1.011878   -0.659417
    110          1           0        6.283718    0.319915   -2.405643
    111          1           0        5.802455   -0.990057   -3.453950
    112          1           0        8.026071   -1.423864   -4.177458
    113          1           0        8.590299   -0.630468   -2.675881
    114          1           0        7.128017    1.434406   -3.900818
    115          1           0        7.048325    0.640135   -5.932197
    116          1           0        8.887187    0.245555   -6.181273
    117          1           0        8.307557    1.856059   -6.040717
    118          1           0        9.784863    2.204616   -4.231691
    119          1           0       10.161409    0.759971   -3.535684
    120          1           0        8.123962    1.699233   -1.791916
    121          1           0        9.067963    3.129723   -2.301901
    122          1           0       11.004399    2.534056   -1.108512
    123          1           0       10.886708    1.022763   -1.656213
    124          1           0        8.771740    1.723498    0.446233
    125          1           0        8.874427   -0.320749    1.111334
    126          1           0       10.561749   -0.478134    1.088522
    127          1           0        9.805146   -0.670218   -0.471566
    128          1           0       11.030171    3.051467    0.811121
    129          1           0       11.412634    1.449578    1.532604
    130          1           0        8.929725    2.660168    2.274369
    131          1           0       10.190687    3.390300    3.133966
    132          1           0       10.441169    0.407599    3.207068
    133          1           0        8.831411    0.926693    3.476276
    134          1           0       10.031688    2.641612    5.219220
    135          1           0       12.212078    0.772835    4.658332
    136          1           0       11.701991    0.513273    6.256049
    137          1           0       12.093210    2.124687    5.839195
    138          1           0        8.412946    1.679942    6.295722
    139          1           0        9.652950    0.555315    6.897873
    140          1           0        8.724104    0.068552    5.472313
 ---------------------------------------------------------------------

 SCF Done:  E(RwB97XD) =  -3007.84176404     A.U. after   19 cycles

 Excitation energies and oscillator strengths:

 Excited State   1:      Singlet-A      1.6092 eV  770.46 nm  f=0.3633  <S**2>=0.000
     245 -> 248       -0.17320
     246 -> 247        0.68540
     245 <- 248       -0.11459
 This state for optimization and/or second-order correction.
 Total Energy, E(TD-HF/TD-DFT) =  -3007.78262586
 Copying the excited state density for this state as the 1-particle RhoCI density.

 Excited State   2:      Singlet-A      2.1506 eV  576.51 nm  f=0.1357  <S**2>=0.000
     245 -> 247        0.64390
     246 -> 248        0.27456

 Excited State   3:      Singlet-A      3.3523 eV  369.84 nm  f=0.0172  <S**2>=0.000
     242 -> 247       -0.32715
     244 -> 247        0.59544

 Excited State   4:      Singlet-A      3.4591 eV  358.43 nm  f=0.0389  <S**2>=0.000
     239 -> 247       -0.10077
     241 -> 247        0.11122
     241 -> 249       -0.15093
     242 -> 247        0.47939
     244 -> 247        0.31185
     246 -> 248       -0.27981

 Excited State   5:      Singlet-A      3.5217 eV  352.06 nm  f=0.0267  <S**2>=0.000
     241 -> 247        0.49459
     241 -> 248       -0.19150
     241 -> 249       -0.32810
     241 -> 250        0.13774
     242 -> 247       -0.13027
     246 -> 248        0.16762

 The electronic state is 1-A.
 Alpha  occ. eigenvalues --  -46.93931 -19.30500 -19.29090 -19.25001 -19.23718
 Alpha  occ. eigenvalues --  -19.23218 -19.23104 -14.46673 -14.45712 -14.44237
 Alpha  occ. eigenvalues --  -14.43692 -10.43691 -10.42637 -10.39528 -10.38027
 Alpha  occ. eigenvalues --  -10.35261 -10.35239 -10.34973 -10.34864 -10.34751
 Alpha  occ. eigenvalues --  -10.34257 -10.33862 -10.33585 -10.33350 -10.33262
 Alpha  occ. eigenvalues --  -10.32568 -10.32562 -10.32313 -10.32216 -10.32168
 Alpha  occ. eigenvalues --  -10.31932 -10.31915 -10.31910 -10.31699 -10.31558
 Alpha  occ. eigenvalues --  -10.31555 -10.31342 -10.31047 -10.31014 -10.30801
 Alpha  occ. eigenvalues --  -10.30636 -10.30556 -10.30443 -10.30140 -10.30104
 Alpha  occ. eigenvalues --  -10.29852 -10.29813 -10.29794 -10.29530 -10.29471
 Alpha  occ. eigenvalues --  -10.29451 -10.29282 -10.29255 -10.29111 -10.29061
 Alpha  occ. eigenvalues --  -10.29046 -10.28894 -10.28891 -10.28887 -10.28813
 Alpha  occ. eigenvalues --  -10.28755 -10.28700 -10.28522 -10.28258 -10.28064
 Alpha  occ. eigenvalues --  -10.28037  -3.20076  -1.93665  -1.93217  -1.93053
 Alpha  occ. eigenvalues --   -1.19713  -1.16072  -1.12616  -1.11212  -1.09801
 Alpha  occ. eigenvalues --   -1.07290  -1.05808  -1.05458  -1.04012  -1.03257
 Alpha  occ. eigenvalues --   -0.93174  -0.93130  -0.92545  -0.91117  -0.90464
 Alpha  occ. eigenvalues --   -0.90217  -0.89676  -0.89644  -0.89487  -0.89143
 Alpha  occ. eigenvalues --   -0.88126  -0.87914  -0.86701  -0.85337  -0.84981
 Alpha  occ. eigenvalues --   -0.84512  -0.83344  -0.83180  -0.82654  -0.81960
 Alpha  occ. eigenvalues --   -0.81717  -0.80401  -0.80118  -0.79334  -0.78224
 Alpha  occ. eigenvalues --   -0.77759  -0.77614  -0.77441  -0.77082  -0.76010
 Alpha  occ. eigenvalues --   -0.75099  -0.73944  -0.73398  -0.72116  -0.70849
 Alpha  occ. eigenvalues --   -0.70274  -0.69964  -0.69093  -0.68619  -0.67526
 Alpha  occ. eigenvalues --   -0.67464  -0.67203  -0.66658  -0.66534  -0.66005
 Alpha  occ. eigenvalues --   -0.65680  -0.65372  -0.65111  -0.63597  -0.62168
 Alpha  occ. eigenvalues --   -0.61826  -0.61235  -0.60279  -0.60004  -0.59715
 Alpha  occ. eigenvalues --   -0.59028  -0.58701  -0.58318  -0.57656  -0.57241
 Alpha  occ. eigenvalues --   -0.56922  -0.56686  -0.56229  -0.55843  -0.55476
 Alpha  occ. eigenvalues --   -0.55422  -0.55168  -0.54843  -0.54778  -0.54605
 Alpha  occ. eigenvalues --   -0.54348  -0.54286  -0.54043  -0.53904  -0.53444
 Alpha  occ. eigenvalues --   -0.53336  -0.53046  -0.52768  -0.52591  -0.52559
 Alpha  occ. eigenvalues --   -0.52344  -0.51858  -0.51753  -0.51604  -0.51596
 Alpha  occ. eigenvalues --   -0.51315  -0.51143  -0.50943  -0.50752  -0.50653
 Alpha  occ. eigenvalues --   -0.50469  -0.50370  -0.50173  -0.49910  -0.49779
 Alpha  occ. eigenvalues --   -0.49249  -0.49204  -0.49043  -0.48892  -0.48583
 Alpha  occ. eigenvalues --   -0.48480  -0.48248  -0.48183  -0.47889  -0.47706
 Alpha  occ. eigenvalues --   -0.47608  -0.47480  -0.47109  -0.46967  -0.46836
 Alpha  occ. eigenvalues --   -0.46650  -0.46537  -0.46292  -0.45890  -0.45812
 Alpha  occ. eigenvalues --   -0.45695  -0.45546  -0.45494  -0.45252  -0.44979
 Alpha  occ. eigenvalues --   -0.44778  -0.44411  -0.44238  -0.44056  -0.43939
 Alpha  occ. eigenvalues --   -0.43684  -0.43605  -0.43438  -0.43328  -0.43125
 Alpha  occ. eigenvalues --   -0.42696  -0.42537  -0.42364  -0.42103  -0.41889
 Alpha  occ. eigenvalues --   -0.41775  -0.41628  -0.41429  -0.40574  -0.40356
 Alpha  occ. eigenvalues --   -0.40274  -0.40218  -0.39806  -0.39338  -0.39116
 Alpha  occ. eigenvalues --   -0.38904  -0.38515  -0.38387  -0.38195  -0.38174
 Alpha  occ. eigenvalues --   -0.37751  -0.37216  -0.36698  -0.36459  -0.36226
 Alpha  occ. eigenvalues --   -0.36175  -0.35220  -0.34762  -0.32993  -0.32670
 Alpha  occ. eigenvalues --   -0.32594  -0.32049  -0.32005  -0.30948  -0.25560
 Alpha  occ. eigenvalues --   -0.22623
 Alpha virt. eigenvalues --   -0.06904   0.00611   0.02744   0.04774   0.05845
 Alpha virt. eigenvalues --    0.06397   0.07324   0.07813   0.08192   0.09568
 Alpha virt. eigenvalues --    0.10583   0.10863   0.11506   0.11969   0.12055

 Mulliken charges:
               1
     1  Mg   0.976890
     2  C   -0.037850
     3  C   -0.079717
     4  C   -0.072019
     5  C   -0.117622
     6  N   -0.316488
     7  C    0.008123
     8  C   -0.038410
     9  C   -0.134814
    10  C    0.009096
    11  C    0.051542
    12  C   -0.003719
    13  C    0.043599
    14  C    0.191692
    15  O   -0.279891
    16  O   -0.342184
    17  N   -0.467708
    18  C    0.196069
    19  C   -0.178395
    20  C   -0.041783
    21  C    0.127043
    22  C    0.050785
    23  C    0.031300
    24  O   -0.269155
    25  C    0.014577
    26  N   -0.376858
    27  C    0.036484
    28  C   -0.021731
    29  C   -0.128383
    30  C    0.154093
    31  C    0.043754
    32  C   -0.017343
    33  C   -0.067762
    34  N   -0.523976
    35  C    0.156189
    36  C   -0.148546
    37  C   -0.091539
    38  C    0.177042
    39  C    0.066739
    40  C    0.112510
    41  O   -0.178948
    42  C   -0.085474
    43  C    0.287467
    44  O   -0.268861
    45  O   -0.375562
    46  C    0.144355
    47  C    0.268907
    48  C   -0.190933
    49  C   -0.169160
    50  C    0.059417
    51  C    0.037907
    52  C   -0.058303
    53  C    0.021128
    54  C   -0.213878
    55  C   -0.003755
    56  C   -0.006742
    57  C    0.001557
    58  C    0.029296
    59  C   -0.184845
    60  C    0.013369
    61  C    0.019552
    62  C   -0.020802
    63  C   -0.041368
    64  C   -0.208474
    65  C   -0.000094
    66  C    0.018883
    67  H   -0.016071
    68  H    0.031173
    69  H   -0.003303
    70  H    0.043834
    71  H    0.030364
    72  H    0.060624
    73  H    0.061290
    74  H    0.021173
    75  H    0.035618
    76  H    0.028828
    77  H    0.056636
    78  H    0.070251
    79  H    0.045280
    80  H    0.037159
    81  H    0.045504
    82  H    0.062638
    83  H    0.064988
    84  H    0.036890
    85  H    0.042655
    86  H    0.046983
    87  H    0.048861
    88  H    0.021295
    89  H    0.042941
    90  H    0.035807
    91  H    0.028162
    92  H    0.043237
    93  H    0.035957
    94  H    0.035531
    95  H    0.043679
    96  H    0.050187
    97  H    0.062999
    98  H    0.063148
    99  H    0.044380
   100  H    0.068892
   101  H    0.055372
   102  H    0.046313
   103  H    0.041688
   104  H    0.017985
   105  H    0.046657
   106  H    0.052390
   107  H    0.036408
   108  H    0.032948
   109  H    0.022397
   110  H    0.024305
   111  H    0.029478
   112  H    0.030196
   113  H    0.006599
   114  H    0.027574
   115  H    0.029661
   116  H    0.039745
   117  H    0.022131
   118  H    0.004870
   119  H    0.009885
   120  H    0.020908
   121  H    0.032650
   122  H    0.003915
   123  H   -0.000248
   124  H    0.012176
   125  H    0.030927
   126  H    0.017557
   127  H    0.036821
   128  H    0.022396
   129  H    0.013428
   130  H   -0.002584
   131  H    0.023231
   132  H    0.010257
   133  H    0.008868
   134  H    0.019420
   135  H    0.029615
   136  H    0.013103
   137  H    0.030250
   138  H    0.035272
   139  H    0.021092
   140  H    0.030478
 Sum of Mulliken charges =  -0.00000

 Dipole moment (field-independent basis, Debye):
    X=              5.5784    Y=              3.4587    Z=             -3.3182  Tot=              7.3547
 Quadrupole moment (field-independent basis, Debye-Ang):
   XX=           -374.4884   YY=           -424.0807   ZZ=           -401.3736
   XY=            -30.9159   XZ=              8.1600   YZ=             17.1658

 Normal termination of Gaussian 16 at Fri Apr 29 15:48:47 2022.
