 Gaussian 16, Revision A.03,
 Gaussian 16:  ES64L-G16RevA.03 25-Dec-2016

 --------------------
 #p ZINDO=(nstates=5)
 --------------------

 -----------------------------
 step_351_chromophore_27 ZINDO
 -----------------------------
 Symbolic Z-matrix:
 Charge =  0 Multiplicity = 1

                         Standard orientation:
 ---------------------------------------------------------------------
 Center     Atomic      Atomic             Coordinates (Angstroms)
 Number     Number       Type             X           Y           Z
 ---------------------------------------------------------------------
      1         12           0       -4.642884    0.769639   -0.139231
      2          6           0       -3.951034   -2.646989    0.156630
      3          6           0       -1.229111    1.229137    0.022413
      4          6           0       -5.195951    4.286360   -0.345084
      5          6           0       -7.949399    0.339217    0.168378
      6          7           0       -2.801511   -0.635667    0.107286
      7          6           0       -2.785412   -1.977991    0.074073
      8          6           0       -1.357263   -2.496565   -0.159992
      9          6           0       -0.481495   -1.244156    0.215503
     10          6           0       -1.512741   -0.150059    0.069725
     11          6           0        0.199328   -1.187100    1.631720
     12          6           0       -1.056839   -2.739499   -1.693906
     13          6           0        0.295929   -3.357251   -2.164641
     14          6           0        1.309508   -3.794295   -1.082327
     15          8           0        1.119641   -4.435905   -0.047330
     16          8           0        2.516705   -3.249537   -1.348080
     17          7           0       -3.412889    2.480076   -0.234812
     18          6           0       -2.040496    2.425111   -0.147708
     19          6           0       -1.624714    3.839886   -0.011437
     20          6           0       -2.727964    4.682211   -0.191093
     21          6           0       -3.865674    3.801094   -0.317551
     22          6           0       -0.271732    4.211209    0.396498
     23          6           0       -2.680225    6.179470   -0.282118
     24          8           0       -3.727604    6.853573   -0.352866
     25          6           0       -1.409248    7.059207   -0.211257
     26          7           0       -6.262435    2.093803   -0.112915
     27          6           0       -6.366880    3.484095   -0.186306
     28          6           0       -7.746485    4.081717    0.068754
     29          6           0       -8.566579    2.685912    0.097967
     30          6           0       -7.512653    1.607262   -0.039902
     31          6           0       -7.901228    5.110495    1.183995
     32          6           0       -9.706968    2.629591   -1.045660
     33          6           0      -11.179005    2.373383   -0.573052
     34          7           0       -5.771753   -0.779519    0.258048
     35          6           0       -7.185390   -0.825813    0.268470
     36          6           0       -7.601298   -2.240004    0.408215
     37          6           0       -6.349790   -3.016404    0.302076
     38          6           0       -5.292073   -2.047413    0.296015
     39          6           0       -8.946345   -2.756779    0.418655
     40          6           0       -5.794720   -4.349539    0.369453
     41          8           0       -6.335559   -5.413649    0.408416
     42          6           0       -4.196115   -4.151736    0.244637
     43          6           0       -3.656463   -4.843169    1.492341
     44          8           0       -4.168854   -4.721954    2.621603
     45          8           0       -2.596217   -5.687680    1.260962
     46          6           0       -2.157204   -6.722297    2.223820
     47          6           0        3.518103   -3.504734   -0.323328
     48          6           0        4.688840   -2.680411   -0.538802
     49          6           0        5.592742   -2.718199   -1.555905
     50          6           0        5.746672   -3.808578   -2.669571
     51          6           0        6.680483   -1.610864   -1.567843
     52          6           0        6.554975   -0.685163   -2.727133
     53          6           0        7.859334   -0.598851   -3.484300
     54          6           0        8.014061    0.841705   -4.124332
     55          6           0        8.098139    0.837334   -5.716542
     56          6           0        9.345662    1.482952   -3.542749
     57          6           0        9.087329    2.049163   -2.163155
     58          6           0       10.244023    1.756396   -1.169544
     59          6           0        9.790369    1.409418    0.220537
     60          6           0        9.735215   -0.127214    0.470568
     61          6           0       10.618482    2.128570    1.220746
     62          6           0        9.971972    2.497793    2.548530
     63          6           0        9.865211    1.257296    3.574475
     64          6           0       10.148508    1.564921    5.091203
     65          6           0       11.609074    1.231411    5.442064
     66          6           0        9.140445    0.921770    6.007892
     67          1           0       -0.152693    1.392600    0.111388
     68          1           0       -5.199446    5.368014   -0.492543
     69          1           0       -9.030945    0.184405    0.187768
     70          1           0       -1.091307   -3.348674    0.465964
     71          1           0        0.292076   -0.977442   -0.505180
     72          1           0        0.454772   -2.220998    1.864122
     73          1           0       -0.343353   -0.551363    2.331446
     74          1           0        1.134114   -0.687996    1.374863
     75          1           0       -1.273739   -1.788948   -2.181404
     76          1           0       -1.817108   -3.427481   -2.061784
     77          1           0        0.747768   -2.539596   -2.724386
     78          1           0        0.070059   -4.199269   -2.818988
     79          1           0        0.292175    4.765496   -0.353595
     80          1           0        0.394325    3.426750    0.757095
     81          1           0       -0.382056    4.863309    1.262898
     82          1           0       -0.857583    6.990762    0.726292
     83          1           0       -1.658632    8.083865   -0.487612
     84          1           0       -0.847306    6.539802   -0.986520
     85          1           0       -7.874152    4.591415   -0.885895
     86          1           0       -9.002512    2.482061    1.076407
     87          1           0       -7.244130    5.084732    2.053712
     88          1           0       -8.869429    4.933877    1.652664
     89          1           0       -8.013330    6.128331    0.810809
     90          1           0       -9.470220    1.903833   -1.823677
     91          1           0       -9.686749    3.566950   -1.602257
     92          1           0      -11.826218    3.247100   -0.648790
     93          1           0      -11.300211    1.988601    0.439172
     94          1           0      -11.568478    1.602184   -1.237177
     95          1           0       -9.339429   -2.485982   -0.561227
     96          1           0       -9.624342   -2.329946    1.158314
     97          1           0       -8.871160   -3.844878    0.419048
     98          1           0       -3.944575   -4.733780   -0.642433
     99          1           0       -2.257544   -7.745602    1.862300
    100          1           0       -2.734055   -6.634335    3.144352
    101          1           0       -1.078870   -6.703580    2.379957
    102          1           0        3.712910   -4.576232   -0.384487
    103          1           0        3.161931   -3.136893    0.638938
    104          1           0        4.796407   -1.941666    0.255746
    105          1           0        4.995338   -4.594974   -2.599066
    106          1           0        6.792070   -4.111638   -2.725396
    107          1           0        5.531042   -3.231378   -3.569156
    108          1           0        7.672490   -2.061401   -1.571862
    109          1           0        6.625681   -1.011878   -0.659417
    110          1           0        6.283718    0.319915   -2.405643
    111          1           0        5.802455   -0.990057   -3.453950
    112          1           0        8.026071   -1.423864   -4.177458
    113          1           0        8.590299   -0.630468   -2.675881
    114          1           0        7.128017    1.434406   -3.900818
    115          1           0        7.048325    0.640135   -5.932197
    116          1           0        8.887187    0.245555   -6.181273
    117          1           0        8.307557    1.856059   -6.040717
    118          1           0        9.784863    2.204616   -4.231691
    119          1           0       10.161409    0.759971   -3.535684
    120          1           0        8.123962    1.699233   -1.791916
    121          1           0        9.067963    3.129723   -2.301901
    122          1           0       11.004399    2.534056   -1.108512
    123          1           0       10.886708    1.022763   -1.656213
    124          1           0        8.771740    1.723498    0.446233
    125          1           0        8.874427   -0.320749    1.111334
    126          1           0       10.561749   -0.478134    1.088522
    127          1           0        9.805146   -0.670218   -0.471566
    128          1           0       11.030171    3.051467    0.811121
    129          1           0       11.412634    1.449578    1.532604
    130          1           0        8.929725    2.660168    2.274369
    131          1           0       10.190687    3.390300    3.133966
    132          1           0       10.441169    0.407599    3.207068
    133          1           0        8.831411    0.926693    3.476276
    134          1           0       10.031688    2.641612    5.219220
    135          1           0       12.212078    0.772835    4.658332
    136          1           0       11.701991    0.513273    6.256049
    137          1           0       12.093210    2.124687    5.839195
    138          1           0        8.412946    1.679942    6.295722
    139          1           0        9.652950    0.555315    6.897873
    140          1           0        8.724104    0.068552    5.472313
 ---------------------------------------------------------------------

 SCF Done:  E(RZINDO/S) =  -474.163127284     A.U. after   19 cycles

 Excitation energies and oscillator strengths:

 Excited State   1:      Singlet-A      1.2386 eV 1001.01 nm  f=0.5756  <S**2>=0.000
     175 ->178         0.17314
     176 ->177         0.66619
 This state for optimization and/or second-order correction.
 Total Energy, E(CIS/TDA) =  -474.117610101
 Copying the excited state density for this state as the 1-particle RhoCI density.

 Excited State   2:      Singlet-A      1.9444 eV  637.66 nm  f=0.0612  <S**2>=0.000
     175 ->177         0.55471
     176 ->178        -0.40465

 Excited State   3:      Singlet-A      2.7822 eV  445.64 nm  f=0.0019  <S**2>=0.000
     168 ->177         0.28212
     168 ->178        -0.21804
     168 ->179        -0.42278
     168 ->181         0.21154
     168 ->186         0.19770
     169 ->177         0.11091
     169 ->179        -0.15584

 Excited State   4:      Singlet-A      2.9970 eV  413.69 nm  f=0.9136  <S**2>=0.000
     171 ->177        -0.12849
     174 ->177        -0.10201
     175 ->177         0.34009
     176 ->178         0.51369
     176 ->179         0.24187

 Excited State   5:      Singlet-A      3.1110 eV  398.54 nm  f=0.1647  <S**2>=0.000
     170 ->177        -0.23142
     170 ->179        -0.19150
     170 ->181        -0.31250
     170 ->186         0.12987
     170 ->187         0.12270
     170 ->202         0.10566
     174 ->177        -0.15686
     175 ->177        -0.13241
     176 ->178        -0.14645
     176 ->179         0.33348
     176 ->181         0.16102

 The electronic state is 1-A.
 Alpha  occ. eigenvalues --   -1.82130  -1.80270  -1.78939  -1.75971  -1.70359
 Alpha  occ. eigenvalues --   -1.68250  -1.67806  -1.62794  -1.58508  -1.57572
 Alpha  occ. eigenvalues --   -1.55210  -1.51675  -1.48223  -1.46444  -1.44633
 Alpha  occ. eigenvalues --   -1.42353  -1.41380  -1.40330  -1.39174  -1.38934
 Alpha  occ. eigenvalues --   -1.36267  -1.34120  -1.33691  -1.31538  -1.28603
 Alpha  occ. eigenvalues --   -1.26618  -1.24278  -1.22752  -1.20574  -1.18764
 Alpha  occ. eigenvalues --   -1.17623  -1.16787  -1.15527  -1.15089  -1.14338
 Alpha  occ. eigenvalues --   -1.13009  -1.10745  -1.09283  -1.05567  -1.03285
 Alpha  occ. eigenvalues --   -1.02261  -1.00457  -0.99106  -0.97891  -0.96581
 Alpha  occ. eigenvalues --   -0.96505  -0.95680  -0.94496  -0.92931  -0.92250
 Alpha  occ. eigenvalues --   -0.91341  -0.89748  -0.88600  -0.88302  -0.87032
 Alpha  occ. eigenvalues --   -0.85927  -0.85260  -0.83194  -0.81609  -0.80445
 Alpha  occ. eigenvalues --   -0.79773  -0.79467  -0.77590  -0.76366  -0.75846
 Alpha  occ. eigenvalues --   -0.75201  -0.75071  -0.74490  -0.73603  -0.73169
 Alpha  occ. eigenvalues --   -0.72469  -0.72132  -0.71678  -0.71144  -0.70755
 Alpha  occ. eigenvalues --   -0.70121  -0.69327  -0.68777  -0.68274  -0.67935
 Alpha  occ. eigenvalues --   -0.67150  -0.67002  -0.66668  -0.66017  -0.65761
 Alpha  occ. eigenvalues --   -0.65094  -0.64990  -0.64038  -0.63723  -0.63263
 Alpha  occ. eigenvalues --   -0.62747  -0.62719  -0.61903  -0.61696  -0.61460
 Alpha  occ. eigenvalues --   -0.61299  -0.60946  -0.60791  -0.60551  -0.60054
 Alpha  occ. eigenvalues --   -0.59896  -0.59637  -0.59304  -0.59199  -0.58825
 Alpha  occ. eigenvalues --   -0.58698  -0.57854  -0.57277  -0.57072  -0.56237
 Alpha  occ. eigenvalues --   -0.55918  -0.55737  -0.55537  -0.55319  -0.54508
 Alpha  occ. eigenvalues --   -0.54227  -0.54127  -0.53736  -0.53267  -0.53057
 Alpha  occ. eigenvalues --   -0.52683  -0.52591  -0.51763  -0.51561  -0.51393
 Alpha  occ. eigenvalues --   -0.51274  -0.50888  -0.50704  -0.50436  -0.50125
 Alpha  occ. eigenvalues --   -0.49660  -0.49430  -0.49140  -0.48997  -0.48778
 Alpha  occ. eigenvalues --   -0.48623  -0.48323  -0.47957  -0.47948  -0.47697
 Alpha  occ. eigenvalues --   -0.47464  -0.47311  -0.47151  -0.46549  -0.45938
 Alpha  occ. eigenvalues --   -0.45845  -0.45703  -0.45347  -0.45275  -0.45249
 Alpha  occ. eigenvalues --   -0.44877  -0.44534  -0.44381  -0.44370  -0.43709
 Alpha  occ. eigenvalues --   -0.43210  -0.43115  -0.42786  -0.42526  -0.42312
 Alpha  occ. eigenvalues --   -0.41804  -0.41347  -0.39872  -0.39446  -0.38575
 Alpha  occ. eigenvalues --   -0.37369  -0.36971  -0.35150  -0.34534  -0.33606
 Alpha  occ. eigenvalues --   -0.33180  -0.32833  -0.32433  -0.31036  -0.26457
 Alpha  occ. eigenvalues --   -0.21541
 Alpha virt. eigenvalues --   -0.08383  -0.01720  -0.00214   0.01144   0.01779
 Alpha virt. eigenvalues --    0.03031   0.03126   0.03322   0.04120   0.04922
 Alpha virt. eigenvalues --    0.06689   0.06899   0.07073   0.07726   0.08304

 Mulliken charges:
               1
     1  Mg   0.425846
     2  C   -0.042742
     3  C   -0.100836
     4  C   -0.067703
     5  C   -0.048035
     6  N   -0.311521
     7  C    0.129457
     8  C    0.011177
     9  C   -0.000351
    10  C    0.157160
    11  C   -0.053643
    12  C   -0.021190
    13  C    0.008441
    14  C    0.466412
    15  O   -0.523430
    16  O   -0.264025
    17  N   -0.327626
    18  C    0.123526
    19  C    0.029666
    20  C   -0.032577
    21  C    0.134939
    22  C   -0.041569
    23  C    0.319053
    24  O   -0.535928
    25  C   -0.028787
    26  N   -0.263319
    27  C    0.142078
    28  C    0.006957
    29  C   -0.004443
    30  C    0.110657
    31  C   -0.043543
    32  C   -0.034784
    33  C   -0.058700
    34  N   -0.314627
    35  C    0.056492
    36  C    0.031656
    37  C   -0.084187
    38  C    0.115541
    39  C   -0.031337
    40  C    0.339687
    41  O   -0.516134
    42  C    0.050669
    43  C    0.488405
    44  O   -0.524365
    45  O   -0.278950
    46  C    0.077147
    47  C    0.110713
    48  C   -0.093773
    49  C   -0.012201
    50  C   -0.043034
    51  C   -0.020873
    52  C   -0.024623
    53  C   -0.039245
    54  C   -0.027460
    55  C   -0.071655
    56  C   -0.037800
    57  C   -0.033995
    58  C   -0.036700
    59  C   -0.000256
    60  C   -0.063314
    61  C   -0.020734
    62  C   -0.053230
    63  C   -0.048201
    64  C   -0.006106
    65  C   -0.057778
    66  C   -0.053307
    67  H    0.015140
    68  H    0.065897
    69  H    0.024088
    70  H    0.050368
    71  H    0.026562
    72  H    0.039878
    73  H    0.041990
    74  H    0.011507
    75  H    0.027546
    76  H    0.012076
    77  H    0.032798
    78  H    0.050421
    79  H    0.029873
    80  H    0.023167
    81  H    0.024873
    82  H    0.044104
    83  H    0.047528
    84  H    0.029808
    85  H    0.036835
    86  H    0.036780
    87  H    0.033942
    88  H    0.008499
    89  H    0.027158
    90  H    0.023778
    91  H    0.016684
    92  H    0.021691
    93  H    0.022497
    94  H    0.015964
    95  H    0.025812
    96  H    0.036143
    97  H    0.036706
    98  H    0.050947
    99  H    0.035232
   100  H    0.055055
   101  H    0.038390
   102  H    0.052157
   103  H    0.044870
   104  H    0.024851
   105  H    0.033514
   106  H    0.036235
   107  H    0.025659
   108  H    0.023076
   109  H    0.017870
   110  H    0.020267
   111  H    0.016499
   112  H    0.029445
   113  H    0.017464
   114  H    0.028423
   115  H    0.020362
   116  H    0.033316
   117  H    0.010545
   118  H    0.012436
   119  H    0.017023
   120  H    0.027655
   121  H    0.016137
   122  H    0.015795
   123  H    0.015527
   124  H    0.019712
   125  H    0.020384
   126  H    0.015635
   127  H    0.024309
   128  H    0.015154
   129  H    0.015927
   130  H    0.003096
   131  H    0.032857
   132  H    0.023076
   133  H    0.008114
   134  H    0.016263
   135  H    0.021100
   136  H    0.012043
   137  H    0.014768
   138  H    0.021530
   139  H    0.017140
   140  H    0.022985
 Sum of Mulliken charges =  -0.00000

 Dipole moment (field-independent basis, Debye):
    X=              8.2519    Y=              5.3221    Z=             -5.4074  Tot=             11.2097
 N-N= 4.394507737378D+03 E-N= 0.000000000000D+00  KE=-9.463475798080D+03
 Leave Link  601 at Fri Apr 29 16:01:44 2022, MaxMem=  6710886400 cpu:               0.8 elap:               0.0
 (Enter /sw/apps/gaussian-16.0/g16/l9999.exe)
 1\1\GINC-BP1-COMPUTE159\SP\RZINDO CIS\STO-3G\C55H74Mg1N4O6\OF15641\29-
 Apr-2022\0\\#p ZINDO=(nstates=5)\\step_351_chromophore_27 ZINDO\\0,1\M
 g,0,-5.473,24.873,26.908\C,0,-3.773,26.663,29.387\C,0,-6.456,22.758,29
 .448\C,0,-7.182,22.897,24.481\C,0,-4.139,26.66,24.41\N,0,-5.079,24.758
 ,29.201\C,0,-4.469,25.671,29.974\C,0,-4.793,25.428,31.457\C,0,-5.308,2
 3.941,31.447\C,0,-5.682,23.803,29.99\C,0,-4.328,22.792,31.885\C,0,-6.0
 41,26.272,31.939\C,0,-6.496,26.262,33.431\C,0,-5.647,25.459,34.443\O,0

 Normal termination of Gaussian 16 at Fri Apr 29 16:01:44 2022.
