 Gaussian 16, Revision A.03,
 Gaussian 16:  ES64L-G16RevA.03 25-Dec-2016

 ------------------------------
 #p blyp/Def2SVP td=(nstates=5)
 ------------------------------

 -------------------------------------------------
 step_951_chromophore_5 TDDFT with blyp functional
 -------------------------------------------------
 Symbolic Z-matrix:
 Charge =  0 Multiplicity = 1

                         Standard orientation:
 ---------------------------------------------------------------------
 Center     Atomic      Atomic             Coordinates (Angstroms)
 Number     Number       Type             X           Y           Z
 ---------------------------------------------------------------------
      1         12           0        5.021221    0.396584   -0.153544
      2          6           0        3.643372   -2.797278   -0.135862
      3          6           0        2.496488    1.515912   -2.075312
      4          6           0        6.329103    3.590458    0.098750
      5          6           0        7.086096   -0.510745    2.558331
      6          7           0        3.167432   -0.500627   -0.870970
      7          6           0        2.835893   -1.842181   -0.838030
      8          6           0        1.581308   -2.130896   -1.639533
      9          6           0        1.476570   -0.816937   -2.516639
     10          6           0        2.332419    0.179819   -1.712671
     11          6           0        1.892503   -0.872266   -3.980121
     12          6           0        0.350125   -2.424109   -0.768060
     13          6           0       -0.412746   -3.694024   -1.137670
     14          6           0       -1.902906   -3.649122   -1.187918
     15          8           0       -2.664483   -4.300131   -0.477797
     16          8           0       -2.288945   -2.806682   -2.183352
     17          7           0        4.559656    2.271855   -1.106141
     18          6           0        3.456584    2.519080   -1.764197
     19          6           0        3.413595    3.939218   -2.220231
     20          6           0        4.629003    4.502352   -1.686097
     21          6           0        5.227522    3.458709   -0.808253
     22          6           0        2.398109    4.566451   -3.130129
     23          6           0        5.204265    5.893165   -2.012801
     24          8           0        4.498910    6.561901   -2.759461
     25          6           0        6.491975    6.482486   -1.487188
     26          7           0        6.497761    1.462779    1.238328
     27          6           0        6.915866    2.747443    1.021750
     28          6           0        8.041051    3.136742    2.011145
     29          6           0        8.139741    1.795314    2.884533
     30          6           0        7.245841    0.789166    2.157779
     31          6           0        9.357655    3.572615    1.298206
     32          6           0        7.748206    2.102974    4.315728
     33          6           0        8.512706    1.236738    5.259111
     34          7           0        5.308219   -1.328110    1.029955
     35          6           0        6.297584   -1.577542    2.019165
     36          6           0        6.276493   -3.044465    2.383161
     37          6           0        5.306547   -3.544599    1.490199
     38          6           0        4.726298   -2.478296    0.730689
     39          6           0        7.064851   -3.825239    3.443548
     40          6           0        4.585427   -4.778898    1.124385
     41          8           0        4.683893   -5.873520    1.603703
     42          6           0        3.501187   -4.240294    0.041159
     43          6           0        3.695275   -4.965359   -1.230489
     44          8           0        3.123831   -5.982844   -1.568648
     45          8           0        4.648825   -4.317311   -2.027968
     46          6           0        4.996467   -4.729422   -3.408680
     47          6           0       -3.744400   -2.411988   -2.160344
     48          6           0       -3.935369   -1.145531   -1.359519
     49          6           0       -4.849596   -0.868145   -0.409891
     50          6           0       -5.962234   -1.728950    0.074740
     51          6           0       -4.872660    0.559884    0.187915
     52          6           0       -5.298591    1.744301   -0.696377
     53          6           0       -5.538985    3.003491    0.192012
     54          6           0       -7.049582    3.353190    0.191763
     55          6           0       -7.248904    4.902498    0.295997
     56          6           0       -7.801038    2.634079    1.399263
     57          6           0       -9.282260    2.167220    1.110173
     58          6           0       -9.411208    0.651952    1.364293
     59          6           0      -10.575099    0.121186    0.468530
     60          6           0       -9.961715   -0.345521   -0.858309
     61          6           0      -11.237408   -1.147265    1.184438
     62          6           0      -12.833508   -1.288487    1.035646
     63          6           0      -13.557811   -0.321916    1.925968
     64          6           0      -14.873781    0.138410    1.216800
     65          6           0      -14.458636    1.284243    0.165900
     66          6           0      -15.936424    0.688231    2.291214
     67          1           0        1.662064    1.738645   -2.743638
     68          1           0        6.773187    4.586374    0.148314
     69          1           0        7.753381   -0.833783    3.359591
     70          1           0        1.806932   -2.967183   -2.301131
     71          1           0        0.444456   -0.468840   -2.501344
     72          1           0        0.984769   -0.668741   -4.547582
     73          1           0        2.324443   -1.838781   -4.242266
     74          1           0        2.535274   -0.006519   -4.140873
     75          1           0       -0.282636   -1.537456   -0.787344
     76          1           0        0.722408   -2.381794    0.255131
     77          1           0       -0.203099   -4.534831   -0.475950
     78          1           0       -0.119993   -4.035960   -2.129703
     79          1           0        2.821215    5.325265   -3.788633
     80          1           0        1.675413    4.931989   -2.402111
     81          1           0        1.913727    3.820063   -3.760494
     82          1           0        7.367419    5.835637   -1.424685
     83          1           0        6.186791    6.724463   -0.468796
     84          1           0        6.718926    7.470774   -1.887549
     85          1           0        7.645141    3.963461    2.602247
     86          1           0        9.182763    1.481261    2.846609
     87          1           0        8.979900    4.008062    0.374005
     88          1           0        9.911133    2.652881    1.110761
     89          1           0        9.890605    4.188589    2.023675
     90          1           0        6.687441    1.890233    4.451870
     91          1           0        7.896712    3.155487    4.556006
     92          1           0        7.942567    0.379049    5.617072
     93          1           0        8.818357    1.753373    6.168981
     94          1           0        9.414686    0.754443    4.883869
     95          1           0        6.480579   -4.670988    3.805943
     96          1           0        7.306036   -3.158225    4.271144
     97          1           0        8.086911   -4.104372    3.184981
     98          1           0        2.485897   -4.479626    0.358921
     99          1           0        5.251102   -3.820348   -3.953581
    100          1           0        4.328910   -5.403945   -3.943881
    101          1           0        5.973441   -5.211957   -3.414970
    102          1           0       -4.356459   -3.214239   -1.749484
    103          1           0       -4.132641   -2.323308   -3.174897
    104          1           0       -3.192412   -0.371929   -1.549531
    105          1           0       -5.731114   -1.981887    1.109057
    106          1           0       -6.084684   -2.614582   -0.549501
    107          1           0       -6.877321   -1.146881   -0.039589
    108          1           0       -3.922992    0.768918    0.681283
    109          1           0       -5.567328    0.497944    1.025434
    110          1           0       -6.221385    1.513359   -1.228665
    111          1           0       -4.632978    1.806870   -1.557164
    112          1           0       -4.942768    3.737458   -0.350471
    113          1           0       -5.157285    2.665047    1.155338
    114          1           0       -7.505914    3.006944   -0.735077
    115          1           0       -7.915120    5.293617    1.064802
    116          1           0       -7.653041    5.365070   -0.603339
    117          1           0       -6.348598    5.492718    0.469481
    118          1           0       -7.929368    3.262698    2.281401
    119          1           0       -7.198582    1.821101    1.805118
    120          1           0       -9.320363    2.286785    0.027508
    121          1           0      -10.017801    2.692934    1.719527
    122          1           0       -9.701967    0.603552    2.413171
    123          1           0       -8.480258    0.100991    1.235658
    124          1           0      -11.287861    0.931768    0.317892
    125          1           0      -10.257789   -1.319065   -1.250973
    126          1           0       -8.896956   -0.116157   -0.864771
    127          1           0      -10.270004    0.270620   -1.704194
    128          1           0      -11.040737   -1.048076    2.252247
    129          1           0      -10.705288   -2.021344    0.810914
    130          1           0      -13.045551   -2.297125    1.391056
    131          1           0      -13.156346   -1.201921   -0.002443
    132          1           0      -12.924135    0.515682    2.218690
    133          1           0      -13.814403   -0.981171    2.754685
    134          1           0      -15.361682   -0.660261    0.657835
    135          1           0      -14.616048    2.234743    0.676903
    136          1           0      -15.122190    1.353459   -0.695915
    137          1           0      -13.421064    1.212123   -0.158661
    138          1           0      -15.481482    0.824230    3.272599
    139          1           0      -16.699612   -0.070936    2.464244
    140          1           0      -16.445288    1.634808    2.109900
 ---------------------------------------------------------------------

 SCF Done:  E(RB-LYP) =  -3007.37868245     A.U. after   20 cycles

 Excitation energies and oscillator strengths:

 Excited State   1:      Singlet-A      1.8398 eV  673.91 nm  f=0.2890  <S**2>=0.000
     245 -> 248       -0.20223
     246 -> 247        0.67994
     246 <- 247       -0.14237
 This state for optimization and/or second-order correction.
 Total Energy, E(TD-HF/TD-DFT) =  -3007.31107205
 Copying the excited state density for this state as the 1-particle RhoCI density.

 Excited State   2:      Singlet-A      1.9001 eV  652.50 nm  f=0.0132  <S**2>=0.000
     244 -> 247        0.60751
     245 -> 247        0.33525

 Excited State   3:      Singlet-A      1.9464 eV  636.98 nm  f=0.0593  <S**2>=0.000
     243 -> 247       -0.17705
     244 -> 247       -0.35444
     245 -> 247        0.54168
     246 -> 248        0.18020

 Excited State   4:      Singlet-A      2.2054 eV  562.19 nm  f=0.0119  <S**2>=0.000
     243 -> 247        0.67082
     245 -> 247        0.15738
     246 -> 248        0.12729

 Excited State   5:      Singlet-A      2.4655 eV  502.87 nm  f=0.0003  <S**2>=0.000
     241 -> 247        0.69454
     242 -> 247       -0.12565

 The electronic state is 1-A.
 Alpha  occ. eigenvalues --  -46.28734 -18.81896 -18.81606 -18.76949 -18.76384
 Alpha  occ. eigenvalues --  -18.76158 -18.75398 -14.03533 -14.02951 -14.01568
 Alpha  occ. eigenvalues --  -14.01172 -10.03713 -10.03478 -10.00505 -10.00424
 Alpha  occ. eigenvalues --   -9.98341  -9.97867  -9.97059  -9.96663  -9.96507
 Alpha  occ. eigenvalues --   -9.96448  -9.96418  -9.96180  -9.96110  -9.94792
 Alpha  occ. eigenvalues --   -9.94510  -9.94202  -9.94142  -9.94057  -9.93993
 Alpha  occ. eigenvalues --   -9.93988  -9.93747  -9.93526  -9.93426  -9.93123
 Alpha  occ. eigenvalues --   -9.93110  -9.93105  -9.93091  -9.93059  -9.93052
 Alpha  occ. eigenvalues --   -9.93032  -9.92988  -9.92986  -9.92927  -9.92860
 Alpha  occ. eigenvalues --   -9.92570  -9.92543  -9.92155  -9.92086  -9.91964
 Alpha  occ. eigenvalues --   -9.91875  -9.91792  -9.91709  -9.91685  -9.91560
 Alpha  occ. eigenvalues --   -9.91453  -9.91439  -9.91285  -9.91123  -9.91032
 Alpha  occ. eigenvalues --   -9.91029  -9.91023  -9.90988  -9.90918  -9.90884
 Alpha  occ. eigenvalues --   -9.90806  -2.93055  -1.73481  -1.72924  -1.72782
 Alpha  occ. eigenvalues --   -0.97110  -0.96396  -0.93213  -0.91641  -0.89229
 Alpha  occ. eigenvalues --   -0.88973  -0.86475  -0.85795  -0.85479  -0.84793
 Alpha  occ. eigenvalues --   -0.75816  -0.73737  -0.73133  -0.72841  -0.72678
 Alpha  occ. eigenvalues --   -0.71992  -0.71659  -0.71148  -0.70630  -0.69657
 Alpha  occ. eigenvalues --   -0.69404  -0.69256  -0.68049  -0.67826  -0.67407
 Alpha  occ. eigenvalues --   -0.66276  -0.66159  -0.65445  -0.65047  -0.64581
 Alpha  occ. eigenvalues --   -0.64138  -0.62961  -0.62326  -0.61860  -0.61036
 Alpha  occ. eigenvalues --   -0.60320  -0.60059  -0.59715  -0.59415  -0.58558
 Alpha  occ. eigenvalues --   -0.58267  -0.57804  -0.56848  -0.56163  -0.54637
 Alpha  occ. eigenvalues --   -0.53963  -0.53852  -0.52695  -0.52377  -0.51883
 Alpha  occ. eigenvalues --   -0.51441  -0.51351  -0.50754  -0.50455  -0.50428
 Alpha  occ. eigenvalues --   -0.49515  -0.49343  -0.49237  -0.48723  -0.46474
 Alpha  occ. eigenvalues --   -0.46290  -0.46060  -0.45749  -0.45414  -0.44403
 Alpha  occ. eigenvalues --   -0.43672  -0.43280  -0.43224  -0.42713  -0.42353
 Alpha  occ. eigenvalues --   -0.42277  -0.41972  -0.41529  -0.41257  -0.41220
 Alpha  occ. eigenvalues --   -0.41014  -0.40732  -0.40544  -0.40046  -0.39746
 Alpha  occ. eigenvalues --   -0.39653  -0.39498  -0.39402  -0.39094  -0.38990
 Alpha  occ. eigenvalues --   -0.38710  -0.38598  -0.38343  -0.38264  -0.38247
 Alpha  occ. eigenvalues --   -0.38194  -0.38010  -0.37935  -0.37805  -0.37643
 Alpha  occ. eigenvalues --   -0.37182  -0.37051  -0.36960  -0.36812  -0.36680
 Alpha  occ. eigenvalues --   -0.36653  -0.36418  -0.36355  -0.35868  -0.35731
 Alpha  occ. eigenvalues --   -0.35495  -0.35337  -0.35069  -0.34699  -0.34442
 Alpha  occ. eigenvalues --   -0.34251  -0.34133  -0.34043  -0.33878  -0.33826
 Alpha  occ. eigenvalues --   -0.33804  -0.33497  -0.33216  -0.33173  -0.33046
 Alpha  occ. eigenvalues --   -0.32966  -0.32818  -0.32690  -0.32439  -0.32327
 Alpha  occ. eigenvalues --   -0.32283  -0.31986  -0.31898  -0.31814  -0.31595
 Alpha  occ. eigenvalues --   -0.31535  -0.31391  -0.30953  -0.30927  -0.30805
 Alpha  occ. eigenvalues --   -0.30738  -0.30509  -0.30393  -0.30267  -0.30164
 Alpha  occ. eigenvalues --   -0.29952  -0.29549  -0.29456  -0.29263  -0.28994
 Alpha  occ. eigenvalues --   -0.28682  -0.28567  -0.28332  -0.28077  -0.28061
 Alpha  occ. eigenvalues --   -0.27779  -0.27269  -0.27119  -0.26576  -0.26534
 Alpha  occ. eigenvalues --   -0.26428  -0.26230  -0.25998  -0.25796  -0.25622
 Alpha  occ. eigenvalues --   -0.25543  -0.24697  -0.24545  -0.23759  -0.23516
 Alpha  occ. eigenvalues --   -0.23228  -0.22716  -0.21440  -0.21269  -0.21010
 Alpha  occ. eigenvalues --   -0.20660  -0.20236  -0.19480  -0.18543  -0.17195
 Alpha  occ. eigenvalues --   -0.16020
 Alpha virt. eigenvalues --   -0.11601  -0.06999  -0.06311  -0.04910  -0.03490
 Alpha virt. eigenvalues --   -0.02664  -0.02179  -0.02131  -0.01510   0.00276
 Alpha virt. eigenvalues --    0.01161   0.01538   0.01889   0.02186   0.02768

 Mulliken charges:
               1
     1  Mg   0.667317
     2  C    0.103925
     3  C   -0.060146
     4  C   -0.024938
     5  C   -0.049388
     6  N   -0.226275
     7  C   -0.074358
     8  C   -0.025928
     9  C   -0.025011
    10  C   -0.029307
    11  C    0.164824
    12  C    0.180181
    13  C    0.183363
    14  C    0.032297
    15  O   -0.185478
    16  O   -0.287143
    17  N   -0.242464
    18  C    0.151219
    19  C   -0.150142
    20  C    0.007442
    21  C    0.122926
    22  C    0.192070
    23  C   -0.079004
    24  O   -0.173015
    25  C    0.164124
    26  N   -0.205492
    27  C   -0.046866
    28  C   -0.021083
    29  C    0.021456
    30  C    0.044500
    31  C    0.154841
    32  C    0.135466
    33  C    0.064197
    34  N   -0.255055
    35  C    0.083454
    36  C   -0.154365
    37  C    0.069894
    38  C    0.005977
    39  C    0.165147
    40  C   -0.010497
    41  O   -0.084817
    42  C   -0.005084
    43  C    0.101945
    44  O   -0.155631
    45  O   -0.309991
    46  C    0.221620
    47  C    0.321952
    48  C   -0.107452
    49  C   -0.163979
    50  C    0.174922
    51  C    0.092385
    52  C    0.059397
    53  C    0.143036
    54  C   -0.038656
    55  C    0.100363
    56  C    0.081585
    57  C    0.061370
    58  C    0.059104
    59  C   -0.088869
    60  C    0.120601
    61  C    0.085122
    62  C    0.066298
    63  C    0.109707
    64  C   -0.084090
    65  C    0.075854
    66  C    0.087190
    67  H   -0.064505
    68  H   -0.092387
    69  H   -0.071962
    70  H   -0.017829
    71  H   -0.029857
    72  H   -0.010963
    73  H    0.001519
    74  H   -0.008459
    75  H   -0.022538
    76  H   -0.020095
    77  H    0.001261
    78  H   -0.000985
    79  H    0.023528
    80  H    0.005704
    81  H   -0.019619
    82  H    0.021483
    83  H    0.009807
    84  H   -0.011431
    85  H   -0.019459
    86  H   -0.037184
    87  H   -0.005520
    88  H   -0.010305
    89  H    0.003089
    90  H   -0.016131
    91  H   -0.022021
    92  H   -0.012449
    93  H   -0.020025
    94  H   -0.017125
    95  H    0.022672
    96  H   -0.022118
    97  H    0.002361
    98  H    0.000615
    99  H    0.006941
   100  H    0.029083
   101  H    0.003698
   102  H   -0.005710
   103  H    0.000039
   104  H   -0.038350
   105  H    0.016996
   106  H   -0.021477
   107  H    0.010221
   108  H   -0.015574
   109  H   -0.054404
   110  H   -0.046412
   111  H   -0.035353
   112  H   -0.026957
   113  H   -0.015946
   114  H   -0.024022
   115  H   -0.023717
   116  H   -0.026622
   117  H   -0.023267
   118  H   -0.041264
   119  H   -0.038332
   120  H   -0.031144
   121  H   -0.008605
   122  H   -0.037967
   123  H   -0.020963
   124  H   -0.013738
   125  H   -0.008786
   126  H   -0.013981
   127  H   -0.042050
   128  H   -0.040348
   129  H   -0.035303
   130  H   -0.031534
   131  H   -0.025354
   132  H   -0.015760
   133  H   -0.033003
   134  H   -0.023999
   135  H   -0.019473
   136  H   -0.016358
   137  H   -0.007577
   138  H   -0.022821
   139  H   -0.017291
   140  H   -0.015128
 Sum of Mulliken charges =  -0.00000

 Dipole moment (field-independent basis, Debye):
    X=              1.8907    Y=              5.0240    Z=             -0.2515  Tot=              5.3738
 Quadrupole moment (field-independent basis, Debye-Ang):
   XX=           -344.7621   YY=           -469.3117   ZZ=           -391.3308
   XY=             10.7103   XZ=             11.1994   YZ=             26.8772

 Normal termination of Gaussian 16 at Thu May  5 15:44:04 2022.
