 Gaussian 16, Revision A.03,
 Gaussian 16:  ES64L-G16RevA.03 25-Dec-2016

 -----------------------------------
 #p cam-b3lyp/Def2SVP td=(nstates=5)
 -----------------------------------

 ------------------------------------------------------
 step_951_chromophore_5 TDDFT with cam-b3lyp functional
 ------------------------------------------------------
 Symbolic Z-matrix:
 Charge =  0 Multiplicity = 1

                         Standard orientation:
 ---------------------------------------------------------------------
 Center     Atomic      Atomic             Coordinates (Angstroms)
 Number     Number       Type             X           Y           Z
 ---------------------------------------------------------------------
      1         12           0        5.021221    0.396584   -0.153544
      2          6           0        3.643372   -2.797278   -0.135862
      3          6           0        2.496488    1.515912   -2.075312
      4          6           0        6.329103    3.590458    0.098750
      5          6           0        7.086096   -0.510745    2.558331
      6          7           0        3.167432   -0.500627   -0.870970
      7          6           0        2.835893   -1.842181   -0.838030
      8          6           0        1.581308   -2.130896   -1.639533
      9          6           0        1.476570   -0.816937   -2.516639
     10          6           0        2.332419    0.179819   -1.712671
     11          6           0        1.892503   -0.872266   -3.980121
     12          6           0        0.350125   -2.424109   -0.768060
     13          6           0       -0.412746   -3.694024   -1.137670
     14          6           0       -1.902906   -3.649122   -1.187918
     15          8           0       -2.664483   -4.300131   -0.477797
     16          8           0       -2.288945   -2.806682   -2.183352
     17          7           0        4.559656    2.271855   -1.106141
     18          6           0        3.456584    2.519080   -1.764197
     19          6           0        3.413595    3.939218   -2.220231
     20          6           0        4.629003    4.502352   -1.686097
     21          6           0        5.227522    3.458709   -0.808253
     22          6           0        2.398109    4.566451   -3.130129
     23          6           0        5.204265    5.893165   -2.012801
     24          8           0        4.498910    6.561901   -2.759461
     25          6           0        6.491975    6.482486   -1.487188
     26          7           0        6.497761    1.462779    1.238328
     27          6           0        6.915866    2.747443    1.021750
     28          6           0        8.041051    3.136742    2.011145
     29          6           0        8.139741    1.795314    2.884533
     30          6           0        7.245841    0.789166    2.157779
     31          6           0        9.357655    3.572615    1.298206
     32          6           0        7.748206    2.102974    4.315728
     33          6           0        8.512706    1.236738    5.259111
     34          7           0        5.308219   -1.328110    1.029955
     35          6           0        6.297584   -1.577542    2.019165
     36          6           0        6.276493   -3.044465    2.383161
     37          6           0        5.306547   -3.544599    1.490199
     38          6           0        4.726298   -2.478296    0.730689
     39          6           0        7.064851   -3.825239    3.443548
     40          6           0        4.585427   -4.778898    1.124385
     41          8           0        4.683893   -5.873520    1.603703
     42          6           0        3.501187   -4.240294    0.041159
     43          6           0        3.695275   -4.965359   -1.230489
     44          8           0        3.123831   -5.982844   -1.568648
     45          8           0        4.648825   -4.317311   -2.027968
     46          6           0        4.996467   -4.729422   -3.408680
     47          6           0       -3.744400   -2.411988   -2.160344
     48          6           0       -3.935369   -1.145531   -1.359519
     49          6           0       -4.849596   -0.868145   -0.409891
     50          6           0       -5.962234   -1.728950    0.074740
     51          6           0       -4.872660    0.559884    0.187915
     52          6           0       -5.298591    1.744301   -0.696377
     53          6           0       -5.538985    3.003491    0.192012
     54          6           0       -7.049582    3.353190    0.191763
     55          6           0       -7.248904    4.902498    0.295997
     56          6           0       -7.801038    2.634079    1.399263
     57          6           0       -9.282260    2.167220    1.110173
     58          6           0       -9.411208    0.651952    1.364293
     59          6           0      -10.575099    0.121186    0.468530
     60          6           0       -9.961715   -0.345521   -0.858309
     61          6           0      -11.237408   -1.147265    1.184438
     62          6           0      -12.833508   -1.288487    1.035646
     63          6           0      -13.557811   -0.321916    1.925968
     64          6           0      -14.873781    0.138410    1.216800
     65          6           0      -14.458636    1.284243    0.165900
     66          6           0      -15.936424    0.688231    2.291214
     67          1           0        1.662064    1.738645   -2.743638
     68          1           0        6.773187    4.586374    0.148314
     69          1           0        7.753381   -0.833783    3.359591
     70          1           0        1.806932   -2.967183   -2.301131
     71          1           0        0.444456   -0.468840   -2.501344
     72          1           0        0.984769   -0.668741   -4.547582
     73          1           0        2.324443   -1.838781   -4.242266
     74          1           0        2.535274   -0.006519   -4.140873
     75          1           0       -0.282636   -1.537456   -0.787344
     76          1           0        0.722408   -2.381794    0.255131
     77          1           0       -0.203099   -4.534831   -0.475950
     78          1           0       -0.119993   -4.035960   -2.129703
     79          1           0        2.821215    5.325265   -3.788633
     80          1           0        1.675413    4.931989   -2.402111
     81          1           0        1.913727    3.820063   -3.760494
     82          1           0        7.367419    5.835637   -1.424685
     83          1           0        6.186791    6.724463   -0.468796
     84          1           0        6.718926    7.470774   -1.887549
     85          1           0        7.645141    3.963461    2.602247
     86          1           0        9.182763    1.481261    2.846609
     87          1           0        8.979900    4.008062    0.374005
     88          1           0        9.911133    2.652881    1.110761
     89          1           0        9.890605    4.188589    2.023675
     90          1           0        6.687441    1.890233    4.451870
     91          1           0        7.896712    3.155487    4.556006
     92          1           0        7.942567    0.379049    5.617072
     93          1           0        8.818357    1.753373    6.168981
     94          1           0        9.414686    0.754443    4.883869
     95          1           0        6.480579   -4.670988    3.805943
     96          1           0        7.306036   -3.158225    4.271144
     97          1           0        8.086911   -4.104372    3.184981
     98          1           0        2.485897   -4.479626    0.358921
     99          1           0        5.251102   -3.820348   -3.953581
    100          1           0        4.328910   -5.403945   -3.943881
    101          1           0        5.973441   -5.211957   -3.414970
    102          1           0       -4.356459   -3.214239   -1.749484
    103          1           0       -4.132641   -2.323308   -3.174897
    104          1           0       -3.192412   -0.371929   -1.549531
    105          1           0       -5.731114   -1.981887    1.109057
    106          1           0       -6.084684   -2.614582   -0.549501
    107          1           0       -6.877321   -1.146881   -0.039589
    108          1           0       -3.922992    0.768918    0.681283
    109          1           0       -5.567328    0.497944    1.025434
    110          1           0       -6.221385    1.513359   -1.228665
    111          1           0       -4.632978    1.806870   -1.557164
    112          1           0       -4.942768    3.737458   -0.350471
    113          1           0       -5.157285    2.665047    1.155338
    114          1           0       -7.505914    3.006944   -0.735077
    115          1           0       -7.915120    5.293617    1.064802
    116          1           0       -7.653041    5.365070   -0.603339
    117          1           0       -6.348598    5.492718    0.469481
    118          1           0       -7.929368    3.262698    2.281401
    119          1           0       -7.198582    1.821101    1.805118
    120          1           0       -9.320363    2.286785    0.027508
    121          1           0      -10.017801    2.692934    1.719527
    122          1           0       -9.701967    0.603552    2.413171
    123          1           0       -8.480258    0.100991    1.235658
    124          1           0      -11.287861    0.931768    0.317892
    125          1           0      -10.257789   -1.319065   -1.250973
    126          1           0       -8.896956   -0.116157   -0.864771
    127          1           0      -10.270004    0.270620   -1.704194
    128          1           0      -11.040737   -1.048076    2.252247
    129          1           0      -10.705288   -2.021344    0.810914
    130          1           0      -13.045551   -2.297125    1.391056
    131          1           0      -13.156346   -1.201921   -0.002443
    132          1           0      -12.924135    0.515682    2.218690
    133          1           0      -13.814403   -0.981171    2.754685
    134          1           0      -15.361682   -0.660261    0.657835
    135          1           0      -14.616048    2.234743    0.676903
    136          1           0      -15.122190    1.353459   -0.695915
    137          1           0      -13.421064    1.212123   -0.158661
    138          1           0      -15.481482    0.824230    3.272599
    139          1           0      -16.699612   -0.070936    2.464244
    140          1           0      -16.445288    1.634808    2.109900
 ---------------------------------------------------------------------

 SCF Done:  E(RCAM-B3LYP) =  -3007.16349901     A.U. after   19 cycles

 Excitation energies and oscillator strengths:

 Excited State   1:      Singlet-A      1.7407 eV  712.27 nm  f=0.3724  <S**2>=0.000
     245 -> 248       -0.19030
     246 -> 247        0.68293
     245 <- 248       -0.10945
 This state for optimization and/or second-order correction.
 Total Energy, E(TD-HF/TD-DFT) =  -3007.09952993
 Copying the excited state density for this state as the 1-particle RhoCI density.

 Excited State   2:      Singlet-A      2.2089 eV  561.30 nm  f=0.0990  <S**2>=0.000
     245 -> 247        0.63792
     246 -> 248        0.29562

 Excited State   3:      Singlet-A      3.3531 eV  369.76 nm  f=0.0066  <S**2>=0.000
     244 -> 247        0.66648
     246 -> 248       -0.14776

 Excited State   4:      Singlet-A      3.4805 eV  356.23 nm  f=0.2774  <S**2>=0.000
     241 -> 247        0.10775
     243 -> 247        0.43890
     244 -> 247        0.10569
     245 -> 247       -0.19375
     246 -> 248        0.46269

 Excited State   5:      Singlet-A      3.6495 eV  339.73 nm  f=0.3667  <S**2>=0.000
     239 -> 247       -0.14246
     240 -> 247        0.31287
     240 -> 249        0.13848
     240 -> 251       -0.16160
     241 -> 247       -0.14174
     241 -> 249        0.16787
     243 -> 247       -0.30425
     245 -> 247       -0.18627
     246 -> 248        0.34269

 The electronic state is 1-A.
 Alpha  occ. eigenvalues --  -46.90435 -19.24798 -19.24473 -19.20025 -19.19565
 Alpha  occ. eigenvalues --  -19.19120 -19.18734 -14.42401 -14.41864 -14.40198
 Alpha  occ. eigenvalues --  -14.39559 -10.39224 -10.38700 -10.35816 -10.35719
 Alpha  occ. eigenvalues --  -10.32309 -10.32057 -10.31531 -10.31387 -10.31042
 Alpha  occ. eigenvalues --  -10.31003 -10.30670 -10.30669 -10.30394 -10.29198
 Alpha  occ. eigenvalues --  -10.28969 -10.28666 -10.28309 -10.28241 -10.28100
 Alpha  occ. eigenvalues --  -10.28007 -10.27923 -10.27709 -10.27425 -10.27378
 Alpha  occ. eigenvalues --  -10.27280 -10.27246 -10.27150 -10.26999 -10.26955
 Alpha  occ. eigenvalues --  -10.26927 -10.26890 -10.26859 -10.26795 -10.26715
 Alpha  occ. eigenvalues --  -10.26261 -10.26147 -10.25849 -10.25805 -10.25747
 Alpha  occ. eigenvalues --  -10.25729 -10.25670 -10.25473 -10.25410 -10.25379
 Alpha  occ. eigenvalues --  -10.25140 -10.25139 -10.25016 -10.24880 -10.24701
 Alpha  occ. eigenvalues --  -10.24671 -10.24655 -10.24651 -10.24538 -10.24473
 Alpha  occ. eigenvalues --  -10.24402  -3.18643  -1.93550  -1.93074  -1.92952
 Alpha  occ. eigenvalues --   -1.15555  -1.14940  -1.11563  -1.10163  -1.07142
 Alpha  occ. eigenvalues --   -1.06811  -1.04277  -1.03455  -1.03118  -1.02267
 Alpha  occ. eigenvalues --   -0.92902  -0.90645  -0.89908  -0.89544  -0.89468
 Alpha  occ. eigenvalues --   -0.88698  -0.88335  -0.87745  -0.87182  -0.86099
 Alpha  occ. eigenvalues --   -0.86033  -0.85779  -0.84318  -0.83989  -0.83633
 Alpha  occ. eigenvalues --   -0.82554  -0.82178  -0.81403  -0.80794  -0.80377
 Alpha  occ. eigenvalues --   -0.79932  -0.78593  -0.77974  -0.77405  -0.76504
 Alpha  occ. eigenvalues --   -0.75663  -0.75378  -0.75027  -0.74681  -0.73750
 Alpha  occ. eigenvalues --   -0.73318  -0.72795  -0.71747  -0.71005  -0.69198
 Alpha  occ. eigenvalues --   -0.68560  -0.68469  -0.67292  -0.66766  -0.66017
 Alpha  occ. eigenvalues --   -0.65635  -0.65358  -0.64901  -0.64525  -0.64365
 Alpha  occ. eigenvalues --   -0.63505  -0.62977  -0.62952  -0.62611  -0.60135
 Alpha  occ. eigenvalues --   -0.59895  -0.59627  -0.59161  -0.58871  -0.57907
 Alpha  occ. eigenvalues --   -0.57145  -0.56682  -0.56432  -0.55896  -0.55443
 Alpha  occ. eigenvalues --   -0.55127  -0.54974  -0.54484  -0.54178  -0.53946
 Alpha  occ. eigenvalues --   -0.53688  -0.53543  -0.53472  -0.53215  -0.52630
 Alpha  occ. eigenvalues --   -0.52546  -0.52256  -0.51905  -0.51639  -0.51526
 Alpha  occ. eigenvalues --   -0.51383  -0.51092  -0.50834  -0.50739  -0.50677
 Alpha  occ. eigenvalues --   -0.50570  -0.50466  -0.50276  -0.50165  -0.49935
 Alpha  occ. eigenvalues --   -0.49767  -0.49693  -0.49320  -0.49084  -0.48973
 Alpha  occ. eigenvalues --   -0.48837  -0.48746  -0.48561  -0.48033  -0.47880
 Alpha  occ. eigenvalues --   -0.47665  -0.47455  -0.46963  -0.46860  -0.46372
 Alpha  occ. eigenvalues --   -0.46210  -0.46078  -0.45796  -0.45727  -0.45643
 Alpha  occ. eigenvalues --   -0.45490  -0.45348  -0.45114  -0.44936  -0.44736
 Alpha  occ. eigenvalues --   -0.44676  -0.44549  -0.44255  -0.44203  -0.44006
 Alpha  occ. eigenvalues --   -0.43979  -0.43454  -0.43363  -0.43277  -0.43234
 Alpha  occ. eigenvalues --   -0.42977  -0.42889  -0.42242  -0.42168  -0.42118
 Alpha  occ. eigenvalues --   -0.42094  -0.41986  -0.41973  -0.41666  -0.41620
 Alpha  occ. eigenvalues --   -0.41403  -0.41141  -0.40778  -0.40606  -0.40377
 Alpha  occ. eigenvalues --   -0.39739  -0.39676  -0.39269  -0.39061  -0.38945
 Alpha  occ. eigenvalues --   -0.38656  -0.38057  -0.37989  -0.37597  -0.37359
 Alpha  occ. eigenvalues --   -0.37275  -0.37131  -0.36711  -0.36580  -0.36450
 Alpha  occ. eigenvalues --   -0.36162  -0.36055  -0.35795  -0.34602  -0.34325
 Alpha  occ. eigenvalues --   -0.33513  -0.33494  -0.32891  -0.31477  -0.31153
 Alpha  occ. eigenvalues --   -0.31053  -0.30364  -0.30100  -0.29602  -0.24013
 Alpha  occ. eigenvalues --   -0.21296
 Alpha virt. eigenvalues --   -0.08661  -0.01961   0.00270   0.01540   0.02164
 Alpha virt. eigenvalues --    0.04644   0.05150   0.05503   0.05979   0.06805
 Alpha virt. eigenvalues --    0.07823   0.08100   0.08136   0.08910   0.08991

 Mulliken charges:
               1
     1  Mg   0.797489
     2  C    0.074278
     3  C   -0.085116
     4  C   -0.051476
     5  C   -0.060163
     6  N   -0.296794
     7  C   -0.026090
     8  C   -0.077527
     9  C   -0.074822
    10  C    0.001131
    11  C    0.104826
    12  C    0.125683
    13  C    0.104790
    14  C    0.120217
    15  O   -0.228234
    16  O   -0.351735
    17  N   -0.328366
    18  C    0.160326
    19  C   -0.151203
    20  C   -0.053972
    21  C    0.149916
    22  C    0.136190
    23  C   -0.003918
    24  O   -0.214101
    25  C    0.078469
    26  N   -0.273115
    27  C   -0.018874
    28  C   -0.071463
    29  C   -0.036245
    30  C    0.064158
    31  C    0.100463
    32  C    0.076420
    33  C   -0.003057
    34  N   -0.341632
    35  C    0.085806
    36  C   -0.152798
    37  C   -0.003138
    38  C    0.041779
    39  C    0.118050
    40  C    0.083961
    41  O   -0.124668
    42  C   -0.085188
    43  C    0.194918
    44  O   -0.193709
    45  O   -0.374979
    46  C    0.186433
    47  C    0.289451
    48  C   -0.131671
    49  C   -0.178627
    50  C    0.113922
    51  C    0.035387
    52  C    0.014928
    53  C    0.079246
    54  C   -0.096863
    55  C    0.041544
    56  C    0.032661
    57  C    0.012474
    58  C    0.014014
    59  C   -0.146835
    60  C    0.062756
    61  C    0.037646
    62  C    0.015155
    63  C    0.049722
    64  C   -0.143301
    65  C    0.022843
    66  C    0.028056
    67  H   -0.029869
    68  H   -0.057615
    69  H   -0.037398
    70  H    0.014383
    71  H    0.005178
    72  H    0.014577
    73  H    0.024531
    74  H    0.018340
    75  H    0.008179
    76  H    0.013900
    77  H    0.033629
    78  H    0.031699
    79  H    0.053913
    80  H    0.032755
    81  H    0.006083
    82  H    0.047791
    83  H    0.036681
    84  H    0.026491
    85  H    0.014436
    86  H   -0.002194
    87  H    0.014552
    88  H    0.014276
    89  H    0.027600
    90  H    0.014924
    91  H    0.006850
    92  H    0.011240
    93  H    0.006846
    94  H    0.006139
    95  H    0.048240
    96  H    0.001018
    97  H    0.028445
    98  H    0.040828
    99  H    0.028461
   100  H    0.052689
   101  H    0.025596
   102  H    0.027390
   103  H    0.028932
   104  H   -0.006625
   105  H    0.042002
   106  H    0.004049
   107  H    0.025114
   108  H    0.014363
   109  H   -0.026905
   110  H   -0.019920
   111  H   -0.007053
   112  H    0.004706
   113  H    0.012752
   114  H    0.006506
   115  H    0.000834
   116  H   -0.001682
   117  H    0.001715
   118  H   -0.010882
   119  H   -0.012290
   120  H   -0.005892
   121  H    0.018114
   122  H   -0.008692
   123  H    0.001809
   124  H    0.012546
   125  H    0.016629
   126  H    0.004263
   127  H   -0.015473
   128  H   -0.012162
   129  H   -0.006288
   130  H   -0.001842
   131  H    0.000600
   132  H    0.009913
   133  H   -0.002551
   134  H    0.007432
   135  H    0.003861
   136  H    0.008560
   137  H    0.010330
   138  H    0.001686
   139  H    0.006532
   140  H    0.008999
 Sum of Mulliken charges =  -0.00000

 Dipole moment (field-independent basis, Debye):
    X=              2.1067    Y=              5.6515    Z=             -0.5283  Tot=              6.0544
 Quadrupole moment (field-independent basis, Debye-Ang):
   XX=           -341.5812   YY=           -467.9832   ZZ=           -389.8385
   XY=             14.1523   XZ=             11.0878   YZ=             27.6231

 Normal termination of Gaussian 16 at Thu May  5 14:43:03 2022.
