 Gaussian 16, Revision A.03,
 Gaussian 16:  ES64L-G16RevA.03 25-Dec-2016

 ---------------------------------
 #p PBE1PBE/Def2SVP td=(nstates=5)
 ---------------------------------

 ----------------------------------------------------
 step_951_chromophore_5 TDDFT with PBE1PBE functional
 ----------------------------------------------------
 Symbolic Z-matrix:
 Charge =  0 Multiplicity = 1

                         Standard orientation:
 ---------------------------------------------------------------------
 Center     Atomic      Atomic             Coordinates (Angstroms)
 Number     Number       Type             X           Y           Z
 ---------------------------------------------------------------------
      1         12           0        5.021221    0.396584   -0.153544
      2          6           0        3.643372   -2.797278   -0.135862
      3          6           0        2.496488    1.515912   -2.075312
      4          6           0        6.329103    3.590458    0.098750
      5          6           0        7.086096   -0.510745    2.558331
      6          7           0        3.167432   -0.500627   -0.870970
      7          6           0        2.835893   -1.842181   -0.838030
      8          6           0        1.581308   -2.130896   -1.639533
      9          6           0        1.476570   -0.816937   -2.516639
     10          6           0        2.332419    0.179819   -1.712671
     11          6           0        1.892503   -0.872266   -3.980121
     12          6           0        0.350125   -2.424109   -0.768060
     13          6           0       -0.412746   -3.694024   -1.137670
     14          6           0       -1.902906   -3.649122   -1.187918
     15          8           0       -2.664483   -4.300131   -0.477797
     16          8           0       -2.288945   -2.806682   -2.183352
     17          7           0        4.559656    2.271855   -1.106141
     18          6           0        3.456584    2.519080   -1.764197
     19          6           0        3.413595    3.939218   -2.220231
     20          6           0        4.629003    4.502352   -1.686097
     21          6           0        5.227522    3.458709   -0.808253
     22          6           0        2.398109    4.566451   -3.130129
     23          6           0        5.204265    5.893165   -2.012801
     24          8           0        4.498910    6.561901   -2.759461
     25          6           0        6.491975    6.482486   -1.487188
     26          7           0        6.497761    1.462779    1.238328
     27          6           0        6.915866    2.747443    1.021750
     28          6           0        8.041051    3.136742    2.011145
     29          6           0        8.139741    1.795314    2.884533
     30          6           0        7.245841    0.789166    2.157779
     31          6           0        9.357655    3.572615    1.298206
     32          6           0        7.748206    2.102974    4.315728
     33          6           0        8.512706    1.236738    5.259111
     34          7           0        5.308219   -1.328110    1.029955
     35          6           0        6.297584   -1.577542    2.019165
     36          6           0        6.276493   -3.044465    2.383161
     37          6           0        5.306547   -3.544599    1.490199
     38          6           0        4.726298   -2.478296    0.730689
     39          6           0        7.064851   -3.825239    3.443548
     40          6           0        4.585427   -4.778898    1.124385
     41          8           0        4.683893   -5.873520    1.603703
     42          6           0        3.501187   -4.240294    0.041159
     43          6           0        3.695275   -4.965359   -1.230489
     44          8           0        3.123831   -5.982844   -1.568648
     45          8           0        4.648825   -4.317311   -2.027968
     46          6           0        4.996467   -4.729422   -3.408680
     47          6           0       -3.744400   -2.411988   -2.160344
     48          6           0       -3.935369   -1.145531   -1.359519
     49          6           0       -4.849596   -0.868145   -0.409891
     50          6           0       -5.962234   -1.728950    0.074740
     51          6           0       -4.872660    0.559884    0.187915
     52          6           0       -5.298591    1.744301   -0.696377
     53          6           0       -5.538985    3.003491    0.192012
     54          6           0       -7.049582    3.353190    0.191763
     55          6           0       -7.248904    4.902498    0.295997
     56          6           0       -7.801038    2.634079    1.399263
     57          6           0       -9.282260    2.167220    1.110173
     58          6           0       -9.411208    0.651952    1.364293
     59          6           0      -10.575099    0.121186    0.468530
     60          6           0       -9.961715   -0.345521   -0.858309
     61          6           0      -11.237408   -1.147265    1.184438
     62          6           0      -12.833508   -1.288487    1.035646
     63          6           0      -13.557811   -0.321916    1.925968
     64          6           0      -14.873781    0.138410    1.216800
     65          6           0      -14.458636    1.284243    0.165900
     66          6           0      -15.936424    0.688231    2.291214
     67          1           0        1.662064    1.738645   -2.743638
     68          1           0        6.773187    4.586374    0.148314
     69          1           0        7.753381   -0.833783    3.359591
     70          1           0        1.806932   -2.967183   -2.301131
     71          1           0        0.444456   -0.468840   -2.501344
     72          1           0        0.984769   -0.668741   -4.547582
     73          1           0        2.324443   -1.838781   -4.242266
     74          1           0        2.535274   -0.006519   -4.140873
     75          1           0       -0.282636   -1.537456   -0.787344
     76          1           0        0.722408   -2.381794    0.255131
     77          1           0       -0.203099   -4.534831   -0.475950
     78          1           0       -0.119993   -4.035960   -2.129703
     79          1           0        2.821215    5.325265   -3.788633
     80          1           0        1.675413    4.931989   -2.402111
     81          1           0        1.913727    3.820063   -3.760494
     82          1           0        7.367419    5.835637   -1.424685
     83          1           0        6.186791    6.724463   -0.468796
     84          1           0        6.718926    7.470774   -1.887549
     85          1           0        7.645141    3.963461    2.602247
     86          1           0        9.182763    1.481261    2.846609
     87          1           0        8.979900    4.008062    0.374005
     88          1           0        9.911133    2.652881    1.110761
     89          1           0        9.890605    4.188589    2.023675
     90          1           0        6.687441    1.890233    4.451870
     91          1           0        7.896712    3.155487    4.556006
     92          1           0        7.942567    0.379049    5.617072
     93          1           0        8.818357    1.753373    6.168981
     94          1           0        9.414686    0.754443    4.883869
     95          1           0        6.480579   -4.670988    3.805943
     96          1           0        7.306036   -3.158225    4.271144
     97          1           0        8.086911   -4.104372    3.184981
     98          1           0        2.485897   -4.479626    0.358921
     99          1           0        5.251102   -3.820348   -3.953581
    100          1           0        4.328910   -5.403945   -3.943881
    101          1           0        5.973441   -5.211957   -3.414970
    102          1           0       -4.356459   -3.214239   -1.749484
    103          1           0       -4.132641   -2.323308   -3.174897
    104          1           0       -3.192412   -0.371929   -1.549531
    105          1           0       -5.731114   -1.981887    1.109057
    106          1           0       -6.084684   -2.614582   -0.549501
    107          1           0       -6.877321   -1.146881   -0.039589
    108          1           0       -3.922992    0.768918    0.681283
    109          1           0       -5.567328    0.497944    1.025434
    110          1           0       -6.221385    1.513359   -1.228665
    111          1           0       -4.632978    1.806870   -1.557164
    112          1           0       -4.942768    3.737458   -0.350471
    113          1           0       -5.157285    2.665047    1.155338
    114          1           0       -7.505914    3.006944   -0.735077
    115          1           0       -7.915120    5.293617    1.064802
    116          1           0       -7.653041    5.365070   -0.603339
    117          1           0       -6.348598    5.492718    0.469481
    118          1           0       -7.929368    3.262698    2.281401
    119          1           0       -7.198582    1.821101    1.805118
    120          1           0       -9.320363    2.286785    0.027508
    121          1           0      -10.017801    2.692934    1.719527
    122          1           0       -9.701967    0.603552    2.413171
    123          1           0       -8.480258    0.100991    1.235658
    124          1           0      -11.287861    0.931768    0.317892
    125          1           0      -10.257789   -1.319065   -1.250973
    126          1           0       -8.896956   -0.116157   -0.864771
    127          1           0      -10.270004    0.270620   -1.704194
    128          1           0      -11.040737   -1.048076    2.252247
    129          1           0      -10.705288   -2.021344    0.810914
    130          1           0      -13.045551   -2.297125    1.391056
    131          1           0      -13.156346   -1.201921   -0.002443
    132          1           0      -12.924135    0.515682    2.218690
    133          1           0      -13.814403   -0.981171    2.754685
    134          1           0      -15.361682   -0.660261    0.657835
    135          1           0      -14.616048    2.234743    0.676903
    136          1           0      -15.122190    1.353459   -0.695915
    137          1           0      -13.421064    1.212123   -0.158661
    138          1           0      -15.481482    0.824230    3.272599
    139          1           0      -16.699612   -0.070936    2.464244
    140          1           0      -16.445288    1.634808    2.109900
 ---------------------------------------------------------------------

 SCF Done:  E(RPBE1PBE) =  -3005.35336346     A.U. after   15 cycles

 Excitation energies and oscillator strengths:

 Excited State   1:      Singlet-A      1.8953 eV  654.18 nm  f=0.3636  <S**2>=0.000
     245 -> 248       -0.18459
     246 -> 247        0.68929
     246 <- 247       -0.10210
 This state for optimization and/or second-order correction.
 Total Energy, E(TD-HF/TD-DFT) =  -3005.28371387
 Copying the excited state density for this state as the 1-particle RhoCI density.

 Excited State   2:      Singlet-A      2.2062 eV  561.97 nm  f=0.0989  <S**2>=0.000
     245 -> 247        0.65245
     246 -> 248        0.26136

 Excited State   3:      Singlet-A      2.9555 eV  419.51 nm  f=0.0017  <S**2>=0.000
     244 -> 247        0.68761

 Excited State   4:      Singlet-A      3.0992 eV  400.05 nm  f=0.0039  <S**2>=0.000
     240 -> 247        0.23479
     242 -> 247        0.56611
     243 -> 247       -0.22285
     246 -> 248        0.19281

 Excited State   5:      Singlet-A      3.1887 eV  388.83 nm  f=0.0005  <S**2>=0.000
     241 -> 247        0.65108
     241 -> 249        0.11218
     242 -> 247       -0.10242

 The electronic state is 1-A.
 Alpha  occ. eigenvalues --  -46.93795 -19.25495 -19.25147 -19.20322 -19.19766
 Alpha  occ. eigenvalues --  -19.19421 -19.18880 -14.41955 -14.41331 -14.39721
 Alpha  occ. eigenvalues --  -14.39259 -10.36225 -10.35735 -10.33042 -10.32812
 Alpha  occ. eigenvalues --  -10.29526 -10.29450 -10.29367 -10.28960 -10.28680
 Alpha  occ. eigenvalues --  -10.28638 -10.28617 -10.28206 -10.28180 -10.27047
 Alpha  occ. eigenvalues --  -10.26537 -10.26455 -10.26066 -10.25960 -10.25923
 Alpha  occ. eigenvalues --  -10.25804 -10.25797 -10.25344 -10.25291 -10.24956
 Alpha  occ. eigenvalues --  -10.24909 -10.24881 -10.24638 -10.24629 -10.24623
 Alpha  occ. eigenvalues --  -10.24507 -10.24426 -10.24408 -10.24326 -10.24231
 Alpha  occ. eigenvalues --  -10.23773 -10.23717 -10.23584 -10.23301 -10.23288
 Alpha  occ. eigenvalues --  -10.23219 -10.23175 -10.23119 -10.23074 -10.22947
 Alpha  occ. eigenvalues --  -10.22704 -10.22632 -10.22589 -10.22484 -10.22272
 Alpha  occ. eigenvalues --  -10.22238 -10.22186 -10.22063 -10.21945 -10.21882
 Alpha  occ. eigenvalues --  -10.21809  -3.15593  -1.88439  -1.87942  -1.87823
 Alpha  occ. eigenvalues --   -1.10366  -1.09671  -1.06414  -1.04825  -1.01964
 Alpha  occ. eigenvalues --   -1.01686  -0.98848  -0.98091  -0.97725  -0.96967
 Alpha  occ. eigenvalues --   -0.87291  -0.84762  -0.84136  -0.83827  -0.83567
 Alpha  occ. eigenvalues --   -0.82992  -0.82438  -0.82056  -0.81296  -0.80475
 Alpha  occ. eigenvalues --   -0.80230  -0.80051  -0.78534  -0.78312  -0.77814
 Alpha  occ. eigenvalues --   -0.76685  -0.76372  -0.75621  -0.75077  -0.74675
 Alpha  occ. eigenvalues --   -0.74087  -0.72901  -0.72291  -0.71707  -0.70807
 Alpha  occ. eigenvalues --   -0.69881  -0.69688  -0.69094  -0.68810  -0.67936
 Alpha  occ. eigenvalues --   -0.67723  -0.67169  -0.66196  -0.65321  -0.63589
 Alpha  occ. eigenvalues --   -0.62930  -0.62750  -0.61697  -0.60981  -0.60419
 Alpha  occ. eigenvalues --   -0.60065  -0.59958  -0.59110  -0.58944  -0.58655
 Alpha  occ. eigenvalues --   -0.57693  -0.57532  -0.57488  -0.56800  -0.54647
 Alpha  occ. eigenvalues --   -0.54412  -0.54035  -0.53785  -0.53435  -0.52541
 Alpha  occ. eigenvalues --   -0.51611  -0.51101  -0.51004  -0.50463  -0.50014
 Alpha  occ. eigenvalues --   -0.49577  -0.49380  -0.49033  -0.48738  -0.48340
 Alpha  occ. eigenvalues --   -0.48156  -0.48088  -0.48077  -0.47833  -0.47121
 Alpha  occ. eigenvalues --   -0.47025  -0.46772  -0.46371  -0.46239  -0.45978
 Alpha  occ. eigenvalues --   -0.45858  -0.45698  -0.45437  -0.45311  -0.45242
 Alpha  occ. eigenvalues --   -0.45088  -0.45046  -0.44835  -0.44670  -0.44519
 Alpha  occ. eigenvalues --   -0.44356  -0.44283  -0.43915  -0.43715  -0.43644
 Alpha  occ. eigenvalues --   -0.43466  -0.43266  -0.43244  -0.42665  -0.42563
 Alpha  occ. eigenvalues --   -0.42313  -0.42146  -0.41646  -0.41499  -0.41054
 Alpha  occ. eigenvalues --   -0.40856  -0.40792  -0.40550  -0.40480  -0.40339
 Alpha  occ. eigenvalues --   -0.40141  -0.40120  -0.39833  -0.39698  -0.39477
 Alpha  occ. eigenvalues --   -0.39379  -0.39190  -0.39002  -0.38957  -0.38872
 Alpha  occ. eigenvalues --   -0.38731  -0.38174  -0.38116  -0.38077  -0.38049
 Alpha  occ. eigenvalues --   -0.37765  -0.37622  -0.37028  -0.36996  -0.36945
 Alpha  occ. eigenvalues --   -0.36840  -0.36788  -0.36735  -0.36519  -0.36415
 Alpha  occ. eigenvalues --   -0.36187  -0.35995  -0.35557  -0.35352  -0.35269
 Alpha  occ. eigenvalues --   -0.34613  -0.34447  -0.34043  -0.33993  -0.33768
 Alpha  occ. eigenvalues --   -0.33357  -0.32999  -0.32883  -0.32606  -0.32318
 Alpha  occ. eigenvalues --   -0.32188  -0.32105  -0.31621  -0.31531  -0.31323
 Alpha  occ. eigenvalues --   -0.31075  -0.30965  -0.30791  -0.29697  -0.29365
 Alpha  occ. eigenvalues --   -0.28538  -0.28508  -0.28250  -0.27036  -0.26315
 Alpha  occ. eigenvalues --   -0.25930  -0.25692  -0.25651  -0.24988  -0.20943
 Alpha  occ. eigenvalues --   -0.18955
 Alpha virt. eigenvalues --   -0.11168  -0.05410  -0.03987  -0.02336  -0.01202
 Alpha virt. eigenvalues --    0.00275   0.00736   0.00946   0.01576   0.03190
 Alpha virt. eigenvalues --    0.03852   0.04544   0.04754   0.05002   0.05673

 Mulliken charges:
               1
     1  Mg   0.935043
     2  C    0.056943
     3  C   -0.089432
     4  C   -0.059057
     5  C   -0.060307
     6  N   -0.397143
     7  C    0.050693
     8  C   -0.152994
     9  C   -0.149403
    10  C    0.049967
    11  C    0.046657
    12  C    0.081603
    13  C    0.023082
    14  C    0.192718
    15  O   -0.262994
    16  O   -0.378809
    17  N   -0.440392
    18  C    0.182109
    19  C   -0.178293
    20  C   -0.092969
    21  C    0.173863
    22  C    0.075741
    23  C    0.044677
    24  O   -0.248112
    25  C    0.000287
    26  N   -0.371622
    27  C    0.027637
    28  C   -0.146417
    29  C   -0.113965
    30  C    0.102485
    31  C    0.036830
    32  C    0.016434
    33  C   -0.073608
    34  N   -0.463902
    35  C    0.107210
    36  C   -0.167370
    37  C   -0.047777
    38  C    0.095778
    39  C    0.065524
    40  C    0.174258
    41  O   -0.170716
    42  C   -0.197097
    43  C    0.291744
    44  O   -0.233435
    45  O   -0.405304
    46  C    0.133770
    47  C    0.243374
    48  C   -0.142222
    49  C   -0.212644
    50  C    0.033752
    51  C   -0.037838
    52  C   -0.037856
    53  C    0.015995
    54  C   -0.189656
    55  C   -0.012407
    56  C   -0.012083
    57  C   -0.056322
    58  C   -0.046423
    59  C   -0.236531
    60  C    0.002785
    61  C   -0.016431
    62  C   -0.047184
    63  C   -0.010726
    64  C   -0.234211
    65  C   -0.042055
    66  C   -0.031075
    67  H    0.003461
    68  H   -0.022041
    69  H   -0.002089
    70  H    0.055698
    71  H    0.041461
    72  H    0.042112
    73  H    0.051376
    74  H    0.047738
    75  H    0.041312
    76  H    0.047151
    77  H    0.065556
    78  H    0.063343
    79  H    0.079936
    80  H    0.061754
    81  H    0.033147
    82  H    0.073762
    83  H    0.064219
    84  H    0.054276
    85  H    0.050743
    86  H    0.035349
    87  H    0.044321
    88  H    0.042361
    89  H    0.055317
    90  H    0.048382
    91  H    0.039599
    92  H    0.038478
    93  H    0.035663
    94  H    0.032396
    95  H    0.074760
    96  H    0.028873
    97  H    0.056220
    98  H    0.081080
    99  H    0.050004
   100  H    0.072380
   101  H    0.047784
   102  H    0.053830
   103  H    0.055709
   104  H    0.022760
   105  H    0.069965
   106  H    0.032373
   107  H    0.061464
   108  H    0.047595
   109  H    0.010085
   110  H    0.014321
   111  H    0.024733
   112  H    0.038575
   113  H    0.045497
   114  H    0.041940
   115  H    0.027493
   116  H    0.025981
   117  H    0.028280
   118  H    0.022172
   119  H    0.020354
   120  H    0.030574
   121  H    0.049351
   122  H    0.025521
   123  H    0.038894
   124  H    0.052886
   125  H    0.042923
   126  H    0.035441
   127  H    0.013164
   128  H    0.020764
   129  H    0.025597
   130  H    0.032031
   131  H    0.033308
   132  H    0.042300
   133  H    0.031657
   134  H    0.043561
   135  H    0.031949
   136  H    0.036805
   137  H    0.041332
   138  H    0.028941
   139  H    0.034425
   140  H    0.035387
 Sum of Mulliken charges =  -0.00000

 Dipole moment (field-independent basis, Debye):
    X=              2.1491    Y=              5.5170    Z=             -0.3515  Tot=              5.9313
 Quadrupole moment (field-independent basis, Debye-Ang):
   XX=           -336.6600   YY=           -465.4645   ZZ=           -386.1226
   XY=             13.2663   XZ=             12.9302   YZ=             27.7385

 Normal termination of Gaussian 16 at Thu May  5 15:00:11 2022.
