 Gaussian 16, Revision A.03,
 Gaussian 16:  ES64L-G16RevA.03 25-Dec-2016

 --------------------------------
 #p wB97XD/Def2SVP td=(nstates=5)
 --------------------------------

 ---------------------------------------------------
 step_951_chromophore_5 TDDFT with wB97XD functional
 ---------------------------------------------------
 Symbolic Z-matrix:
 Charge =  0 Multiplicity = 1

                         Standard orientation:
 ---------------------------------------------------------------------
 Center     Atomic      Atomic             Coordinates (Angstroms)
 Number     Number       Type             X           Y           Z
 ---------------------------------------------------------------------
      1         12           0        5.021221    0.396584   -0.153544
      2          6           0        3.643372   -2.797278   -0.135862
      3          6           0        2.496488    1.515912   -2.075312
      4          6           0        6.329103    3.590458    0.098750
      5          6           0        7.086096   -0.510745    2.558331
      6          7           0        3.167432   -0.500627   -0.870970
      7          6           0        2.835893   -1.842181   -0.838030
      8          6           0        1.581308   -2.130896   -1.639533
      9          6           0        1.476570   -0.816937   -2.516639
     10          6           0        2.332419    0.179819   -1.712671
     11          6           0        1.892503   -0.872266   -3.980121
     12          6           0        0.350125   -2.424109   -0.768060
     13          6           0       -0.412746   -3.694024   -1.137670
     14          6           0       -1.902906   -3.649122   -1.187918
     15          8           0       -2.664483   -4.300131   -0.477797
     16          8           0       -2.288945   -2.806682   -2.183352
     17          7           0        4.559656    2.271855   -1.106141
     18          6           0        3.456584    2.519080   -1.764197
     19          6           0        3.413595    3.939218   -2.220231
     20          6           0        4.629003    4.502352   -1.686097
     21          6           0        5.227522    3.458709   -0.808253
     22          6           0        2.398109    4.566451   -3.130129
     23          6           0        5.204265    5.893165   -2.012801
     24          8           0        4.498910    6.561901   -2.759461
     25          6           0        6.491975    6.482486   -1.487188
     26          7           0        6.497761    1.462779    1.238328
     27          6           0        6.915866    2.747443    1.021750
     28          6           0        8.041051    3.136742    2.011145
     29          6           0        8.139741    1.795314    2.884533
     30          6           0        7.245841    0.789166    2.157779
     31          6           0        9.357655    3.572615    1.298206
     32          6           0        7.748206    2.102974    4.315728
     33          6           0        8.512706    1.236738    5.259111
     34          7           0        5.308219   -1.328110    1.029955
     35          6           0        6.297584   -1.577542    2.019165
     36          6           0        6.276493   -3.044465    2.383161
     37          6           0        5.306547   -3.544599    1.490199
     38          6           0        4.726298   -2.478296    0.730689
     39          6           0        7.064851   -3.825239    3.443548
     40          6           0        4.585427   -4.778898    1.124385
     41          8           0        4.683893   -5.873520    1.603703
     42          6           0        3.501187   -4.240294    0.041159
     43          6           0        3.695275   -4.965359   -1.230489
     44          8           0        3.123831   -5.982844   -1.568648
     45          8           0        4.648825   -4.317311   -2.027968
     46          6           0        4.996467   -4.729422   -3.408680
     47          6           0       -3.744400   -2.411988   -2.160344
     48          6           0       -3.935369   -1.145531   -1.359519
     49          6           0       -4.849596   -0.868145   -0.409891
     50          6           0       -5.962234   -1.728950    0.074740
     51          6           0       -4.872660    0.559884    0.187915
     52          6           0       -5.298591    1.744301   -0.696377
     53          6           0       -5.538985    3.003491    0.192012
     54          6           0       -7.049582    3.353190    0.191763
     55          6           0       -7.248904    4.902498    0.295997
     56          6           0       -7.801038    2.634079    1.399263
     57          6           0       -9.282260    2.167220    1.110173
     58          6           0       -9.411208    0.651952    1.364293
     59          6           0      -10.575099    0.121186    0.468530
     60          6           0       -9.961715   -0.345521   -0.858309
     61          6           0      -11.237408   -1.147265    1.184438
     62          6           0      -12.833508   -1.288487    1.035646
     63          6           0      -13.557811   -0.321916    1.925968
     64          6           0      -14.873781    0.138410    1.216800
     65          6           0      -14.458636    1.284243    0.165900
     66          6           0      -15.936424    0.688231    2.291214
     67          1           0        1.662064    1.738645   -2.743638
     68          1           0        6.773187    4.586374    0.148314
     69          1           0        7.753381   -0.833783    3.359591
     70          1           0        1.806932   -2.967183   -2.301131
     71          1           0        0.444456   -0.468840   -2.501344
     72          1           0        0.984769   -0.668741   -4.547582
     73          1           0        2.324443   -1.838781   -4.242266
     74          1           0        2.535274   -0.006519   -4.140873
     75          1           0       -0.282636   -1.537456   -0.787344
     76          1           0        0.722408   -2.381794    0.255131
     77          1           0       -0.203099   -4.534831   -0.475950
     78          1           0       -0.119993   -4.035960   -2.129703
     79          1           0        2.821215    5.325265   -3.788633
     80          1           0        1.675413    4.931989   -2.402111
     81          1           0        1.913727    3.820063   -3.760494
     82          1           0        7.367419    5.835637   -1.424685
     83          1           0        6.186791    6.724463   -0.468796
     84          1           0        6.718926    7.470774   -1.887549
     85          1           0        7.645141    3.963461    2.602247
     86          1           0        9.182763    1.481261    2.846609
     87          1           0        8.979900    4.008062    0.374005
     88          1           0        9.911133    2.652881    1.110761
     89          1           0        9.890605    4.188589    2.023675
     90          1           0        6.687441    1.890233    4.451870
     91          1           0        7.896712    3.155487    4.556006
     92          1           0        7.942567    0.379049    5.617072
     93          1           0        8.818357    1.753373    6.168981
     94          1           0        9.414686    0.754443    4.883869
     95          1           0        6.480579   -4.670988    3.805943
     96          1           0        7.306036   -3.158225    4.271144
     97          1           0        8.086911   -4.104372    3.184981
     98          1           0        2.485897   -4.479626    0.358921
     99          1           0        5.251102   -3.820348   -3.953581
    100          1           0        4.328910   -5.403945   -3.943881
    101          1           0        5.973441   -5.211957   -3.414970
    102          1           0       -4.356459   -3.214239   -1.749484
    103          1           0       -4.132641   -2.323308   -3.174897
    104          1           0       -3.192412   -0.371929   -1.549531
    105          1           0       -5.731114   -1.981887    1.109057
    106          1           0       -6.084684   -2.614582   -0.549501
    107          1           0       -6.877321   -1.146881   -0.039589
    108          1           0       -3.922992    0.768918    0.681283
    109          1           0       -5.567328    0.497944    1.025434
    110          1           0       -6.221385    1.513359   -1.228665
    111          1           0       -4.632978    1.806870   -1.557164
    112          1           0       -4.942768    3.737458   -0.350471
    113          1           0       -5.157285    2.665047    1.155338
    114          1           0       -7.505914    3.006944   -0.735077
    115          1           0       -7.915120    5.293617    1.064802
    116          1           0       -7.653041    5.365070   -0.603339
    117          1           0       -6.348598    5.492718    0.469481
    118          1           0       -7.929368    3.262698    2.281401
    119          1           0       -7.198582    1.821101    1.805118
    120          1           0       -9.320363    2.286785    0.027508
    121          1           0      -10.017801    2.692934    1.719527
    122          1           0       -9.701967    0.603552    2.413171
    123          1           0       -8.480258    0.100991    1.235658
    124          1           0      -11.287861    0.931768    0.317892
    125          1           0      -10.257789   -1.319065   -1.250973
    126          1           0       -8.896956   -0.116157   -0.864771
    127          1           0      -10.270004    0.270620   -1.704194
    128          1           0      -11.040737   -1.048076    2.252247
    129          1           0      -10.705288   -2.021344    0.810914
    130          1           0      -13.045551   -2.297125    1.391056
    131          1           0      -13.156346   -1.201921   -0.002443
    132          1           0      -12.924135    0.515682    2.218690
    133          1           0      -13.814403   -0.981171    2.754685
    134          1           0      -15.361682   -0.660261    0.657835
    135          1           0      -14.616048    2.234743    0.676903
    136          1           0      -15.122190    1.353459   -0.695915
    137          1           0      -13.421064    1.212123   -0.158661
    138          1           0      -15.481482    0.824230    3.272599
    139          1           0      -16.699612   -0.070936    2.464244
    140          1           0      -16.445288    1.634808    2.109900
 ---------------------------------------------------------------------

 SCF Done:  E(RwB97XD) =  -3007.86505832     A.U. after   19 cycles

 Excitation energies and oscillator strengths:

 Excited State   1:      Singlet-A      1.6834 eV  736.51 nm  f=0.3706  <S**2>=0.000
     245 -> 248       -0.19556
     246 -> 247        0.68088
     245 <- 248       -0.11879
 This state for optimization and/or second-order correction.
 Total Energy, E(TD-HF/TD-DFT) =  -3007.80319438
 Copying the excited state density for this state as the 1-particle RhoCI density.

 Excited State   2:      Singlet-A      2.1550 eV  575.32 nm  f=0.0961  <S**2>=0.000
     245 -> 247        0.63573
     246 -> 248        0.29873

 Excited State   3:      Singlet-A      3.3780 eV  367.04 nm  f=0.0134  <S**2>=0.000
     244 -> 247        0.65134
     244 -> 249        0.11830
     246 -> 248       -0.17176

 Excited State   4:      Singlet-A      3.4996 eV  354.28 nm  f=0.3102  <S**2>=0.000
     243 -> 247        0.42149
     243 -> 249       -0.10982
     244 -> 247        0.13677
     245 -> 247       -0.20361
     246 -> 248        0.47271

 Excited State   5:      Singlet-A      3.6679 eV  338.02 nm  f=0.1763  <S**2>=0.000
     240 -> 247        0.39461
     240 -> 249        0.18872
     240 -> 250        0.20493
     241 -> 247        0.13715
     241 -> 249        0.21117
     243 -> 247       -0.26245
     245 -> 247       -0.12605
     246 -> 248        0.23546

 The electronic state is 1-A.
 Alpha  occ. eigenvalues --  -46.96771 -19.30042 -19.29686 -19.25046 -19.24499
 Alpha  occ. eigenvalues --  -19.24070 -19.23781 -14.46996 -14.46460 -14.44800
 Alpha  occ. eigenvalues --  -14.44135 -10.43066 -10.42498 -10.39825 -10.39719
 Alpha  occ. eigenvalues --  -10.36029 -10.35957 -10.35560 -10.35512 -10.35103
 Alpha  occ. eigenvalues --  -10.35055 -10.34746 -10.34697 -10.34369 -10.33335
 Alpha  occ. eigenvalues --  -10.33175 -10.32635 -10.32327 -10.32301 -10.32160
 Alpha  occ. eigenvalues --  -10.32063 -10.32035 -10.31874 -10.31469 -10.31466
 Alpha  occ. eigenvalues --  -10.31240 -10.31239 -10.31046 -10.31027 -10.31024
 Alpha  occ. eigenvalues --  -10.30914 -10.30819 -10.30775 -10.30739 -10.30581
 Alpha  occ. eigenvalues --  -10.30134 -10.30051 -10.29861 -10.29695 -10.29683
 Alpha  occ. eigenvalues --  -10.29630 -10.29612 -10.29450 -10.29423 -10.29308
 Alpha  occ. eigenvalues --  -10.29070 -10.28985 -10.28961 -10.28837 -10.28628
 Alpha  occ. eigenvalues --  -10.28614 -10.28559 -10.28488 -10.28358 -10.28308
 Alpha  occ. eigenvalues --  -10.28238  -3.22464  -1.96052  -1.95554  -1.95435
 Alpha  occ. eigenvalues --   -1.17735  -1.17083  -1.13795  -1.12398  -1.09332
 Alpha  occ. eigenvalues --   -1.09013  -1.06314  -1.05480  -1.05115  -1.04287
 Alpha  occ. eigenvalues --   -0.94859  -0.92442  -0.91750  -0.91412  -0.91242
 Alpha  occ. eigenvalues --   -0.90619  -0.90115  -0.89671  -0.88964  -0.88034
 Alpha  occ. eigenvalues --   -0.88032  -0.87682  -0.86205  -0.85890  -0.85488
 Alpha  occ. eigenvalues --   -0.84485  -0.84041  -0.83275  -0.82703  -0.82301
 Alpha  occ. eigenvalues --   -0.81757  -0.80500  -0.79942  -0.79335  -0.78431
 Alpha  occ. eigenvalues --   -0.77528  -0.77320  -0.76805  -0.76492  -0.75594
 Alpha  occ. eigenvalues --   -0.75280  -0.74747  -0.73735  -0.72923  -0.71111
 Alpha  occ. eigenvalues --   -0.70488  -0.70403  -0.69327  -0.68628  -0.67935
 Alpha  occ. eigenvalues --   -0.67597  -0.67372  -0.66759  -0.66381  -0.66334
 Alpha  occ. eigenvalues --   -0.65339  -0.64963  -0.64927  -0.64451  -0.62076
 Alpha  occ. eigenvalues --   -0.61879  -0.61545  -0.61178  -0.60844  -0.59930
 Alpha  occ. eigenvalues --   -0.59098  -0.58574  -0.58411  -0.57857  -0.57391
 Alpha  occ. eigenvalues --   -0.57017  -0.56851  -0.56426  -0.56112  -0.55811
 Alpha  occ. eigenvalues --   -0.55549  -0.55460  -0.55437  -0.55179  -0.54533
 Alpha  occ. eigenvalues --   -0.54491  -0.54182  -0.53771  -0.53562  -0.53458
 Alpha  occ. eigenvalues --   -0.53289  -0.53032  -0.52761  -0.52669  -0.52563
 Alpha  occ. eigenvalues --   -0.52433  -0.52373  -0.52175  -0.52122  -0.51833
 Alpha  occ. eigenvalues --   -0.51716  -0.51619  -0.51214  -0.50975  -0.50878
 Alpha  occ. eigenvalues --   -0.50742  -0.50589  -0.50491  -0.49981  -0.49790
 Alpha  occ. eigenvalues --   -0.49620  -0.49373  -0.48903  -0.48732  -0.48327
 Alpha  occ. eigenvalues --   -0.48108  -0.47993  -0.47746  -0.47655  -0.47537
 Alpha  occ. eigenvalues --   -0.47350  -0.47276  -0.47067  -0.46850  -0.46671
 Alpha  occ. eigenvalues --   -0.46565  -0.46438  -0.46166  -0.46107  -0.45917
 Alpha  occ. eigenvalues --   -0.45880  -0.45317  -0.45262  -0.45218  -0.45181
 Alpha  occ. eigenvalues --   -0.44862  -0.44790  -0.44137  -0.44091  -0.44011
 Alpha  occ. eigenvalues --   -0.43996  -0.43932  -0.43911  -0.43600  -0.43531
 Alpha  occ. eigenvalues --   -0.43279  -0.43011  -0.42685  -0.42462  -0.42283
 Alpha  occ. eigenvalues --   -0.41627  -0.41526  -0.41121  -0.40960  -0.40797
 Alpha  occ. eigenvalues --   -0.40468  -0.39964  -0.39911  -0.39529  -0.39298
 Alpha  occ. eigenvalues --   -0.39245  -0.39133  -0.38571  -0.38510  -0.38299
 Alpha  occ. eigenvalues --   -0.38041  -0.38002  -0.37714  -0.36598  -0.36325
 Alpha  occ. eigenvalues --   -0.35438  -0.35352  -0.35107  -0.33658  -0.33143
 Alpha  occ. eigenvalues --   -0.33079  -0.32397  -0.32226  -0.31806  -0.25938
 Alpha  occ. eigenvalues --   -0.23105
 Alpha virt. eigenvalues --   -0.07017  -0.00071   0.02336   0.04163   0.04803
 Alpha virt. eigenvalues --    0.06966   0.07387   0.07728   0.08403   0.09515
 Alpha virt. eigenvalues --    0.10474   0.11100   0.11448   0.11733   0.12343

 Mulliken charges:
               1
     1  Mg   0.929939
     2  C    0.060827
     3  C   -0.103252
     4  C   -0.067552
     5  C   -0.068715
     6  N   -0.366590
     7  C    0.017520
     8  C   -0.123901
     9  C   -0.122163
    10  C    0.033781
    11  C    0.056301
    12  C    0.087718
    13  C    0.040952
    14  C    0.181337
    15  O   -0.260296
    16  O   -0.379866
    17  N   -0.409636
    18  C    0.176778
    19  C   -0.168866
    20  C   -0.089356
    21  C    0.171657
    22  C    0.089221
    23  C    0.039706
    24  O   -0.244058
    25  C    0.014104
    26  N   -0.338470
    27  C    0.013251
    28  C   -0.121329
    29  C   -0.083600
    30  C    0.085844
    31  C    0.052070
    32  C    0.028134
    33  C   -0.059403
    34  N   -0.427716
    35  C    0.096645
    36  C   -0.166909
    37  C   -0.044908
    38  C    0.074485
    39  C    0.077564
    40  C    0.157130
    41  O   -0.162329
    42  C   -0.157388
    43  C    0.266383
    44  O   -0.226878
    45  O   -0.404638
    46  C    0.148635
    47  C    0.264372
    48  C   -0.156619
    49  C   -0.201500
    50  C    0.062390
    51  C   -0.007067
    52  C   -0.023831
    53  C    0.033975
    54  C   -0.154906
    55  C   -0.003466
    56  C   -0.001143
    57  C   -0.032517
    58  C   -0.019676
    59  C   -0.203494
    60  C    0.017019
    61  C    0.002616
    62  C   -0.031652
    63  C    0.004675
    64  C   -0.205450
    65  C   -0.026098
    66  C   -0.020146
    67  H   -0.004700
    68  H   -0.036953
    69  H   -0.011849
    70  H    0.038105
    71  H    0.031243
    72  H    0.037560
    73  H    0.047047
    74  H    0.039387
    75  H    0.031432
    76  H    0.039982
    77  H    0.060815
    78  H    0.057109
    79  H    0.077298
    80  H    0.056984
    81  H    0.027968
    82  H    0.068505
    83  H    0.058299
    84  H    0.054092
    85  H    0.040477
    86  H    0.021666
    87  H    0.034833
    88  H    0.036327
    89  H    0.050768
    90  H    0.040609
    91  H    0.031427
    92  H    0.032269
    93  H    0.031094
    94  H    0.025707
    95  H    0.071362
    96  H    0.021783
    97  H    0.051277
    98  H    0.072645
    99  H    0.045816
   100  H    0.069682
   101  H    0.043110
   102  H    0.046128
   103  H    0.052302
   104  H    0.019149
   105  H    0.065311
   106  H    0.027239
   107  H    0.041741
   108  H    0.039752
   109  H   -0.008390
   110  H    0.001068
   111  H    0.017273
   112  H    0.031378
   113  H    0.035105
   114  H    0.028303
   115  H    0.021493
   116  H    0.020675
   117  H    0.022346
   118  H    0.014390
   119  H    0.007208
   120  H    0.014066
   121  H    0.043390
   122  H    0.015661
   123  H    0.019109
   124  H    0.032131
   125  H    0.037938
   126  H    0.022501
   127  H    0.007632
   128  H    0.009853
   129  H    0.017685
   130  H    0.025124
   131  H    0.022523
   132  H    0.031286
   133  H    0.023358
   134  H    0.033819
   135  H    0.024704
   136  H    0.031896
   137  H    0.030465
   138  H    0.022529
   139  H    0.028715
   140  H    0.030321
 Sum of Mulliken charges =  -0.00000

 Dipole moment (field-independent basis, Debye):
    X=              2.1666    Y=              5.8267    Z=             -0.6051  Tot=              6.2458
 Quadrupole moment (field-independent basis, Debye-Ang):
   XX=           -336.5914   YY=           -464.3626   ZZ=           -385.8990
   XY=             14.6941   XZ=             11.5099   YZ=             27.5563

 Normal termination of Gaussian 16 at Thu May  5 15:30:45 2022.
