 Gaussian 16, Revision A.03,
 Gaussian 16:  ES64L-G16RevA.03 25-Dec-2016

 --------------------
 #p ZINDO=(nstates=5)
 --------------------

 ----------------------------
 step_951_chromophore_5 ZINDO
 ----------------------------
 Symbolic Z-matrix:
 Charge =  0 Multiplicity = 1

                         Standard orientation:
 ---------------------------------------------------------------------
 Center     Atomic      Atomic             Coordinates (Angstroms)
 Number     Number       Type             X           Y           Z
 ---------------------------------------------------------------------
      1         12           0        5.021221    0.396584   -0.153544
      2          6           0        3.643372   -2.797278   -0.135862
      3          6           0        2.496488    1.515912   -2.075312
      4          6           0        6.329103    3.590458    0.098750
      5          6           0        7.086096   -0.510745    2.558331
      6          7           0        3.167432   -0.500627   -0.870970
      7          6           0        2.835893   -1.842181   -0.838030
      8          6           0        1.581308   -2.130896   -1.639533
      9          6           0        1.476570   -0.816937   -2.516639
     10          6           0        2.332419    0.179819   -1.712671
     11          6           0        1.892503   -0.872266   -3.980121
     12          6           0        0.350125   -2.424109   -0.768060
     13          6           0       -0.412746   -3.694024   -1.137670
     14          6           0       -1.902906   -3.649122   -1.187918
     15          8           0       -2.664483   -4.300131   -0.477797
     16          8           0       -2.288945   -2.806682   -2.183352
     17          7           0        4.559656    2.271855   -1.106141
     18          6           0        3.456584    2.519080   -1.764197
     19          6           0        3.413595    3.939218   -2.220231
     20          6           0        4.629003    4.502352   -1.686097
     21          6           0        5.227522    3.458709   -0.808253
     22          6           0        2.398109    4.566451   -3.130129
     23          6           0        5.204265    5.893165   -2.012801
     24          8           0        4.498910    6.561901   -2.759461
     25          6           0        6.491975    6.482486   -1.487188
     26          7           0        6.497761    1.462779    1.238328
     27          6           0        6.915866    2.747443    1.021750
     28          6           0        8.041051    3.136742    2.011145
     29          6           0        8.139741    1.795314    2.884533
     30          6           0        7.245841    0.789166    2.157779
     31          6           0        9.357655    3.572615    1.298206
     32          6           0        7.748206    2.102974    4.315728
     33          6           0        8.512706    1.236738    5.259111
     34          7           0        5.308219   -1.328110    1.029955
     35          6           0        6.297584   -1.577542    2.019165
     36          6           0        6.276493   -3.044465    2.383161
     37          6           0        5.306547   -3.544599    1.490199
     38          6           0        4.726298   -2.478296    0.730689
     39          6           0        7.064851   -3.825239    3.443548
     40          6           0        4.585427   -4.778898    1.124385
     41          8           0        4.683893   -5.873520    1.603703
     42          6           0        3.501187   -4.240294    0.041159
     43          6           0        3.695275   -4.965359   -1.230489
     44          8           0        3.123831   -5.982844   -1.568648
     45          8           0        4.648825   -4.317311   -2.027968
     46          6           0        4.996467   -4.729422   -3.408680
     47          6           0       -3.744400   -2.411988   -2.160344
     48          6           0       -3.935369   -1.145531   -1.359519
     49          6           0       -4.849596   -0.868145   -0.409891
     50          6           0       -5.962234   -1.728950    0.074740
     51          6           0       -4.872660    0.559884    0.187915
     52          6           0       -5.298591    1.744301   -0.696377
     53          6           0       -5.538985    3.003491    0.192012
     54          6           0       -7.049582    3.353190    0.191763
     55          6           0       -7.248904    4.902498    0.295997
     56          6           0       -7.801038    2.634079    1.399263
     57          6           0       -9.282260    2.167220    1.110173
     58          6           0       -9.411208    0.651952    1.364293
     59          6           0      -10.575099    0.121186    0.468530
     60          6           0       -9.961715   -0.345521   -0.858309
     61          6           0      -11.237408   -1.147265    1.184438
     62          6           0      -12.833508   -1.288487    1.035646
     63          6           0      -13.557811   -0.321916    1.925968
     64          6           0      -14.873781    0.138410    1.216800
     65          6           0      -14.458636    1.284243    0.165900
     66          6           0      -15.936424    0.688231    2.291214
     67          1           0        1.662064    1.738645   -2.743638
     68          1           0        6.773187    4.586374    0.148314
     69          1           0        7.753381   -0.833783    3.359591
     70          1           0        1.806932   -2.967183   -2.301131
     71          1           0        0.444456   -0.468840   -2.501344
     72          1           0        0.984769   -0.668741   -4.547582
     73          1           0        2.324443   -1.838781   -4.242266
     74          1           0        2.535274   -0.006519   -4.140873
     75          1           0       -0.282636   -1.537456   -0.787344
     76          1           0        0.722408   -2.381794    0.255131
     77          1           0       -0.203099   -4.534831   -0.475950
     78          1           0       -0.119993   -4.035960   -2.129703
     79          1           0        2.821215    5.325265   -3.788633
     80          1           0        1.675413    4.931989   -2.402111
     81          1           0        1.913727    3.820063   -3.760494
     82          1           0        7.367419    5.835637   -1.424685
     83          1           0        6.186791    6.724463   -0.468796
     84          1           0        6.718926    7.470774   -1.887549
     85          1           0        7.645141    3.963461    2.602247
     86          1           0        9.182763    1.481261    2.846609
     87          1           0        8.979900    4.008062    0.374005
     88          1           0        9.911133    2.652881    1.110761
     89          1           0        9.890605    4.188589    2.023675
     90          1           0        6.687441    1.890233    4.451870
     91          1           0        7.896712    3.155487    4.556006
     92          1           0        7.942567    0.379049    5.617072
     93          1           0        8.818357    1.753373    6.168981
     94          1           0        9.414686    0.754443    4.883869
     95          1           0        6.480579   -4.670988    3.805943
     96          1           0        7.306036   -3.158225    4.271144
     97          1           0        8.086911   -4.104372    3.184981
     98          1           0        2.485897   -4.479626    0.358921
     99          1           0        5.251102   -3.820348   -3.953581
    100          1           0        4.328910   -5.403945   -3.943881
    101          1           0        5.973441   -5.211957   -3.414970
    102          1           0       -4.356459   -3.214239   -1.749484
    103          1           0       -4.132641   -2.323308   -3.174897
    104          1           0       -3.192412   -0.371929   -1.549531
    105          1           0       -5.731114   -1.981887    1.109057
    106          1           0       -6.084684   -2.614582   -0.549501
    107          1           0       -6.877321   -1.146881   -0.039589
    108          1           0       -3.922992    0.768918    0.681283
    109          1           0       -5.567328    0.497944    1.025434
    110          1           0       -6.221385    1.513359   -1.228665
    111          1           0       -4.632978    1.806870   -1.557164
    112          1           0       -4.942768    3.737458   -0.350471
    113          1           0       -5.157285    2.665047    1.155338
    114          1           0       -7.505914    3.006944   -0.735077
    115          1           0       -7.915120    5.293617    1.064802
    116          1           0       -7.653041    5.365070   -0.603339
    117          1           0       -6.348598    5.492718    0.469481
    118          1           0       -7.929368    3.262698    2.281401
    119          1           0       -7.198582    1.821101    1.805118
    120          1           0       -9.320363    2.286785    0.027508
    121          1           0      -10.017801    2.692934    1.719527
    122          1           0       -9.701967    0.603552    2.413171
    123          1           0       -8.480258    0.100991    1.235658
    124          1           0      -11.287861    0.931768    0.317892
    125          1           0      -10.257789   -1.319065   -1.250973
    126          1           0       -8.896956   -0.116157   -0.864771
    127          1           0      -10.270004    0.270620   -1.704194
    128          1           0      -11.040737   -1.048076    2.252247
    129          1           0      -10.705288   -2.021344    0.810914
    130          1           0      -13.045551   -2.297125    1.391056
    131          1           0      -13.156346   -1.201921   -0.002443
    132          1           0      -12.924135    0.515682    2.218690
    133          1           0      -13.814403   -0.981171    2.754685
    134          1           0      -15.361682   -0.660261    0.657835
    135          1           0      -14.616048    2.234743    0.676903
    136          1           0      -15.122190    1.353459   -0.695915
    137          1           0      -13.421064    1.212123   -0.158661
    138          1           0      -15.481482    0.824230    3.272599
    139          1           0      -16.699612   -0.070936    2.464244
    140          1           0      -16.445288    1.634808    2.109900
 ---------------------------------------------------------------------

 SCF Done:  E(RZINDO/S) =  -474.030402808     A.U. after   20 cycles

 Excitation energies and oscillator strengths:

 Excited State   1:      Singlet-A      1.2754 eV  972.13 nm  f=0.5864  <S**2>=0.000
     175 ->178        -0.19429
     176 ->177         0.66262
 This state for optimization and/or second-order correction.
 Total Energy, E(CIS/TDA) =  -473.983533277
 Copying the excited state density for this state as the 1-particle RhoCI density.

 Excited State   2:      Singlet-A      1.8836 eV  658.23 nm  f=0.0241  <S**2>=0.000
     175 ->177         0.53453
     176 ->178         0.43753

 Excited State   3:      Singlet-A      2.9398 eV  421.74 nm  f=0.1753  <S**2>=0.000
     168 ->177         0.20820
     168 ->178         0.11746
     168 ->179        -0.32351
     168 ->180        -0.19218
     168 ->181         0.18290
     168 ->185        -0.20161
     171 ->177        -0.19032
     173 ->177         0.15028
     175 ->177         0.16592
     176 ->178        -0.22640

 Excited State   4:      Singlet-A      2.9798 eV  416.08 nm  f=0.7004  <S**2>=0.000
     168 ->177         0.12151
     168 ->179        -0.17578
     168 ->180        -0.11050
     168 ->181         0.10016
     168 ->185        -0.10382
     172 ->177         0.10480
     175 ->177        -0.32549
     176 ->178         0.41303
     176 ->179         0.21943

 Excited State   5:      Singlet-A      3.0610 eV  405.04 nm  f=0.2764  <S**2>=0.000
     171 ->177        -0.12850
     175 ->177         0.14047
     176 ->178        -0.18690
     176 ->179         0.51834
     176 ->181         0.19868

 The electronic state is 1-A.
 Alpha  occ. eigenvalues --   -1.83022  -1.80281  -1.79403  -1.72907  -1.71199
 Alpha  occ. eigenvalues --   -1.69043  -1.65133  -1.60391  -1.59931  -1.56889
 Alpha  occ. eigenvalues --   -1.53855  -1.49874  -1.48803  -1.48022  -1.46588
 Alpha  occ. eigenvalues --   -1.45583  -1.45103  -1.40650  -1.39405  -1.37757
 Alpha  occ. eigenvalues --   -1.36500  -1.32672  -1.31815  -1.31175  -1.28708
 Alpha  occ. eigenvalues --   -1.27240  -1.27013  -1.22748  -1.21600  -1.18338
 Alpha  occ. eigenvalues --   -1.16766  -1.15033  -1.14252  -1.13269  -1.12667
 Alpha  occ. eigenvalues --   -1.11638  -1.10226  -1.09982  -1.06825  -1.04841
 Alpha  occ. eigenvalues --   -1.02337  -1.01270  -0.98886  -0.98481  -0.97626
 Alpha  occ. eigenvalues --   -0.97408  -0.94705  -0.94444  -0.92521  -0.92036
 Alpha  occ. eigenvalues --   -0.91279  -0.91137  -0.89287  -0.89125  -0.86244
 Alpha  occ. eigenvalues --   -0.86058  -0.84476  -0.83742  -0.83312  -0.82385
 Alpha  occ. eigenvalues --   -0.80187  -0.79805  -0.77560  -0.76957  -0.76839
 Alpha  occ. eigenvalues --   -0.76027  -0.75259  -0.74469  -0.73859  -0.73762
 Alpha  occ. eigenvalues --   -0.72571  -0.72012  -0.71904  -0.71201  -0.70821
 Alpha  occ. eigenvalues --   -0.70400  -0.69904  -0.69386  -0.68328  -0.68068
 Alpha  occ. eigenvalues --   -0.67355  -0.66202  -0.65846  -0.65748  -0.65163
 Alpha  occ. eigenvalues --   -0.65090  -0.64435  -0.64116  -0.64022  -0.63823
 Alpha  occ. eigenvalues --   -0.63284  -0.63090  -0.62539  -0.62488  -0.62259
 Alpha  occ. eigenvalues --   -0.61543  -0.61439  -0.61281  -0.60911  -0.60003
 Alpha  occ. eigenvalues --   -0.59759  -0.59452  -0.58862  -0.58462  -0.58206
 Alpha  occ. eigenvalues --   -0.57912  -0.57341  -0.56998  -0.56857  -0.56147
 Alpha  occ. eigenvalues --   -0.55865  -0.55225  -0.55091  -0.54759  -0.54651
 Alpha  occ. eigenvalues --   -0.54035  -0.53653  -0.53413  -0.53298  -0.52797
 Alpha  occ. eigenvalues --   -0.52550  -0.52373  -0.52233  -0.52001  -0.51508
 Alpha  occ. eigenvalues --   -0.51438  -0.51218  -0.51017  -0.50949  -0.50596
 Alpha  occ. eigenvalues --   -0.50237  -0.49893  -0.49850  -0.49319  -0.48959
 Alpha  occ. eigenvalues --   -0.48904  -0.48745  -0.48615  -0.48176  -0.47851
 Alpha  occ. eigenvalues --   -0.47802  -0.47729  -0.47527  -0.47358  -0.46974
 Alpha  occ. eigenvalues --   -0.46594  -0.46534  -0.45919  -0.45902  -0.45473
 Alpha  occ. eigenvalues --   -0.45345  -0.44990  -0.44886  -0.44548  -0.44465
 Alpha  occ. eigenvalues --   -0.44013  -0.43868  -0.43441  -0.42985  -0.42647
 Alpha  occ. eigenvalues --   -0.41792  -0.41749  -0.41399  -0.39423  -0.38546
 Alpha  occ. eigenvalues --   -0.38266  -0.37608  -0.35882  -0.34903  -0.34725
 Alpha  occ. eigenvalues --   -0.33129  -0.32739  -0.32558  -0.32445  -0.26837
 Alpha  occ. eigenvalues --   -0.21936
 Alpha virt. eigenvalues --   -0.08580  -0.02571  -0.00653   0.00815   0.01113
 Alpha virt. eigenvalues --    0.02081   0.02429   0.02907   0.04512   0.05005
 Alpha virt. eigenvalues --    0.05877   0.06095   0.06830   0.07465   0.07570

 Mulliken charges:
               1
     1  Mg   0.432519
     2  C   -0.044525
     3  C   -0.088151
     4  C   -0.084433
     5  C   -0.052492
     6  N   -0.289917
     7  C    0.105354
     8  C    0.005800
     9  C    0.004806
    10  C    0.140057
    11  C   -0.047883
    12  C   -0.011115
    13  C    0.010278
    14  C    0.477391
    15  O   -0.521129
    16  O   -0.276871
    17  N   -0.307060
    18  C    0.148255
    19  C    0.044976
    20  C   -0.053004
    21  C    0.119417
    22  C   -0.029967
    23  C    0.329910
    24  O   -0.528368
    25  C   -0.024358
    26  N   -0.286026
    27  C    0.142617
    28  C   -0.014598
    29  C    0.005494
    30  C    0.103857
    31  C   -0.056822
    32  C   -0.013821
    33  C   -0.055937
    34  N   -0.313258
    35  C    0.057701
    36  C    0.019440
    37  C   -0.064494
    38  C    0.108508
    39  C   -0.034125
    40  C    0.331230
    41  O   -0.488965
    42  C    0.067460
    43  C    0.485493
    44  O   -0.512529
    45  O   -0.292125
    46  C    0.073914
    47  C    0.102803
    48  C   -0.090738
    49  C   -0.001042
    50  C   -0.037403
    51  C   -0.027497
    52  C   -0.040088
    53  C   -0.036256
    54  C   -0.000349
    55  C   -0.064944
    56  C   -0.049757
    57  C   -0.046773
    58  C   -0.039102
    59  C   -0.015566
    60  C   -0.063592
    61  C   -0.050950
    62  C   -0.038080
    63  C   -0.026994
    64  C   -0.015207
    65  C   -0.066022
    66  C   -0.067469
    67  H    0.017166
    68  H    0.017932
    69  H    0.020488
    70  H    0.031404
    71  H    0.024037
    72  H    0.018751
    73  H    0.032255
    74  H    0.028945
    75  H    0.026265
    76  H    0.028718
    77  H    0.040489
    78  H    0.043643
    79  H    0.054272
    80  H    0.042211
    81  H    0.020422
    82  H    0.040877
    83  H    0.035895
    84  H    0.042118
    85  H    0.031439
    86  H    0.026167
    87  H    0.033154
    88  H    0.026173
    89  H    0.029330
    90  H    0.023960
    91  H    0.019933
    92  H    0.014738
    93  H    0.011121
    94  H    0.017483
    95  H    0.041864
    96  H    0.016600
    97  H    0.036372
    98  H    0.054954
    99  H    0.031581
   100  H    0.057794
   101  H    0.032882
   102  H    0.051240
   103  H    0.039741
   104  H    0.022906
   105  H    0.040498
   106  H    0.022397
   107  H    0.027915
   108  H    0.021803
   109  H    0.010491
   110  H    0.012539
   111  H    0.020365
   112  H    0.024693
   113  H    0.037488
   114  H    0.031918
   115  H    0.016924
   116  H    0.011191
   117  H    0.014760
   118  H    0.012387
   119  H    0.018955
   120  H    0.023214
   121  H    0.034768
   122  H    0.009857
   123  H    0.030621
   124  H    0.032094
   125  H    0.028293
   126  H    0.023020
   127  H    0.000830
   128  H    0.015461
   129  H    0.020250
   130  H    0.014023
   131  H    0.023425
   132  H    0.032262
   133  H    0.016833
   134  H    0.029006
   135  H    0.014894
   136  H    0.017271
   137  H    0.025747
   138  H    0.013914
   139  H    0.013310
   140  H    0.023784
 Sum of Mulliken charges =  -0.00000

 Dipole moment (field-independent basis, Debye):
    X=              3.1634    Y=              8.7194    Z=             -1.1372  Tot=              9.3449
 N-N= 4.366532526166D+03 E-N= 0.000000000000D+00  KE=-9.406605556558D+03
 Leave Link  601 at Thu May  5 15:44:10 2022, MaxMem=  6710886400 cpu:               0.7 elap:               0.0
 (Enter /sw/apps/gaussian-16.0/g16/l9999.exe)
 1\1\GINC-BP1-COMPUTE067\SP\RZINDO CIS\STO-3G\C55H74Mg1N4O6\OF15641\05-
 May-2022\0\\#p ZINDO=(nstates=5)\\step_951_chromophore_5 ZINDO\\0,1\Mg
 ,0,24.9,-7.596,46.36\C,0,26.959,-4.963,45.397\C,0,22.626,-6.715,44.042
 \C,0,23.042,-10.388,47.213\C,0,27.614,-9.051,48.08\N,0,24.881,-6.112,4
 4.762\C,0,25.774,-5.07,44.596\C,0,25.314,-4.101,43.524\C,0,23.787,-4.4
 99,43.395\C,0,23.77,-5.92,43.989\C,0,22.735,-3.603,44.034\C,0,26.119,-
 4.202,42.219\C,0,26.646,-2.873,41.683\C,0,26.525,-2.587,40.224\O,0,27.

 Normal termination of Gaussian 16 at Thu May  5 15:44:10 2022.
