 Gaussian 16, Revision A.03,
 Gaussian 16:  ES64L-G16RevA.03 25-Dec-2016

 ------------------------------
 #p blyp/Def2SVP td=(nstates=5)
 ------------------------------

 --------------------------------------------------
 step_601_chromophore_19 TDDFT with blyp functional
 --------------------------------------------------
 Symbolic Z-matrix:
 Charge =  0 Multiplicity = 1

                         Standard orientation:
 ---------------------------------------------------------------------
 Center     Atomic      Atomic             Coordinates (Angstroms)
 Number     Number       Type             X           Y           Z
 ---------------------------------------------------------------------
      1         12           0       -5.880461    0.325918   -0.340729
      2          6           0       -3.412525   -2.196939   -0.401604
      3          6           0       -3.286268    2.592675    0.121448
      4          6           0       -8.239818    2.744253    0.199689
      5          6           0       -8.403790   -2.163433   -0.531111
      6          7           0       -3.564921    0.217800   -0.073631
      7          6           0       -2.790497   -0.922433   -0.331086
      8          6           0       -1.237432   -0.526235   -0.317989
      9          6           0       -1.320168    1.012111    0.079083
     10          6           0       -2.790467    1.316339    0.058885
     11          6           0       -0.636456    1.473645    1.380186
     12          6           0       -0.552905   -0.994004   -1.630272
     13          6           0        0.683412   -1.858842   -1.495066
     14          6           0        1.655446   -1.450239   -0.347030
     15          8           0        1.660953   -1.936338    0.767852
     16          8           0        2.469184   -0.422848   -0.642551
     17          7           0       -5.785797    2.395731    0.089678
     18          6           0       -4.601770    3.167226    0.142487
     19          6           0       -4.924494    4.537763    0.226228
     20          6           0       -6.380017    4.653025    0.295111
     21          6           0       -6.892988    3.232378    0.226140
     22          6           0       -3.837975    5.677550    0.148162
     23          6           0       -7.179214    5.778972    0.493649
     24          8           0       -8.435358    5.779034    0.525678
     25          6           0       -6.621166    7.112826    0.547722
     26          7           0       -7.990971    0.314691   -0.060945
     27          6           0       -8.770232    1.479851    0.093243
     28          6           0      -10.291293    1.149305    0.036343
     29          6           0      -10.390054   -0.459259   -0.133304
     30          6           0       -8.828105   -0.800623   -0.335654
     31          6           0      -11.100630    1.734887    1.237909
     32          6           0      -11.444336   -1.015177   -1.243915
     33          6           0      -12.882141   -1.286773   -0.654596
     34          7           0       -5.933136   -1.755815   -0.303868
     35          6           0       -7.023142   -2.625289   -0.435202
     36          6           0       -6.489273   -4.012434   -0.291188
     37          6           0       -5.067913   -3.925593   -0.271284
     38          6           0       -4.804905   -2.512658   -0.338107
     39          6           0       -7.306643   -5.225871   -0.159919
     40          6           0       -3.809615   -4.674527   -0.183064
     41          8           0       -3.583200   -5.877206   -0.026062
     42          6           0       -2.695796   -3.565883   -0.275784
     43          6           0       -1.879437   -3.687347    0.971608
     44          8           0       -2.319995   -3.375256    2.112333
     45          8           0       -0.612154   -4.277174    0.704253
     46          6           0        0.174562   -4.582823    1.861561
     47          6           0        3.516844   -0.010761    0.285426
     48          6           0        4.822663   -0.310064   -0.465589
     49          6           0        6.046754   -0.461875    0.065475
     50          6           0        6.312380   -0.245627    1.524683
     51          6           0        7.283832   -0.679399   -0.763232
     52          6           0        8.326509    0.406099   -1.121018
     53          6           0        8.231407    1.024925   -2.514759
     54          6           0        9.695066    1.480627   -2.873968
     55          6           0        9.605476    2.607880   -3.956522
     56          6           0       10.610669    0.378176   -3.464315
     57          6           0       12.060819    0.617114   -2.908456
     58          6           0       12.434204   -0.373305   -1.683262
     59          6           0       13.490181    0.328960   -0.872999
     60          6           0       14.899642    0.278403   -1.502912
     61          6           0       13.502325   -0.298374    0.544565
     62          6           0       13.095218    0.747830    1.598797
     63          6           0       13.042510    0.249722    2.957949
     64          6           0       11.615030    0.524414    3.643184
     65          6           0       11.617305    1.959788    4.194525
     66          6           0       11.214791   -0.530557    4.665905
     67          1           0       -2.470314    3.304338   -0.019152
     68          1           0       -9.021935    3.499321    0.308680
     69          1           0       -9.067406   -3.003350   -0.746563
     70          1           0       -0.867762   -1.087737    0.539786
     71          1           0       -0.969662    1.574789   -0.786353
     72          1           0       -1.388234    1.846418    2.077065
     73          1           0        0.235531    2.108160    1.220576
     74          1           0       -0.194913    0.567536    1.795195
     75          1           0       -0.170945   -0.171195   -2.234059
     76          1           0       -1.226590   -1.618869   -2.218122
     77          1           0        1.178672   -1.662542   -2.446063
     78          1           0        0.400450   -2.911766   -1.508061
     79          1           0       -2.829027    5.296676   -0.010030
     80          1           0       -3.877335    6.187609    1.110487
     81          1           0       -4.154384    6.426999   -0.576703
     82          1           0       -6.217307    7.417582   -0.416991
     83          1           0       -5.901968    7.089049    1.366452
     84          1           0       -7.389411    7.813688    0.874930
     85          1           0      -10.590265    1.659181   -0.880122
     86          1           0      -10.638401   -1.038231    0.755776
     87          1           0      -10.453339    2.261819    1.940359
     88          1           0      -11.648959    0.944780    1.750843
     89          1           0      -11.821800    2.462705    0.865792
     90          1           0      -11.081922   -1.974025   -1.611790
     91          1           0      -11.514737   -0.328815   -2.088677
     92          1           0      -13.457060   -0.362963   -0.724151
     93          1           0      -12.955114   -1.489562    0.413762
     94          1           0      -13.192016   -2.186512   -1.185753
     95          1           0       -7.378756   -5.725519   -1.125897
     96          1           0       -8.293127   -4.946765    0.210746
     97          1           0       -6.740559   -5.810328    0.565963
     98          1           0       -2.088348   -3.704757   -1.170261
     99          1           0       -0.406382   -4.860144    2.741935
    100          1           0        0.793284   -3.704617    2.045005
    101          1           0        0.829330   -5.405369    1.573976
    102          1           0        3.343095   -0.532706    1.225448
    103          1           0        3.549553    1.078161    0.324478
    104          1           0        4.605557   -0.679283   -1.467490
    105          1           0        7.298676    0.208364    1.612016
    106          1           0        6.444175   -1.215429    2.003580
    107          1           0        5.540378    0.460772    1.831760
    108          1           0        7.030427   -1.141483   -1.717085
    109          1           0        7.711626   -1.485800   -0.168459
    110          1           0        9.307062    0.060587   -0.793253
    111          1           0        8.127240    1.230120   -0.436180
    112          1           0        7.714228    1.983589   -2.482922
    113          1           0        7.803539    0.454019   -3.338064
    114          1           0       10.136591    1.843648   -1.945711
    115          1           0        9.058489    3.503226   -3.662572
    116          1           0        9.134087    2.139696   -4.821195
    117          1           0       10.585615    2.992841   -4.238238
    118          1           0       10.632885    0.354969   -4.554808
    119          1           0       10.243625   -0.612146   -3.195770
    120          1           0       12.245549    1.680806   -2.757426
    121          1           0       12.759725    0.352545   -3.701571
    122          1           0       12.988563   -1.201190   -2.125952
    123          1           0       11.574036   -0.691924   -1.095214
    124          1           0       13.367575    1.410253   -0.806562
    125          1           0       14.855151    0.382107   -2.587032
    126          1           0       15.435406   -0.665738   -1.398607
    127          1           0       15.523386    1.089780   -1.129401
    128          1           0       14.536661   -0.568645    0.756809
    129          1           0       12.862276   -1.177178    0.632942
    130          1           0       12.083220    1.033575    1.312374
    131          1           0       13.773385    1.597862    1.529918
    132          1           0       13.888517    0.711862    3.467142
    133          1           0       13.182486   -0.828897    3.034805
    134          1           0       10.749949    0.448617    2.985246
    135          1           0       12.345268    2.568796    3.658611
    136          1           0       11.831098    2.060334    5.257770
    137          1           0       10.652958    2.425455    3.991664
    138          1           0       11.970299   -0.531143    5.451201
    139          1           0       11.125461   -1.489059    4.153180
    140          1           0       10.333285   -0.180933    5.203533
 ---------------------------------------------------------------------

 SCF Done:  E(RB-LYP) =  -3007.38319587     A.U. after   22 cycles

 Excitation energies and oscillator strengths:

 Excited State   1:      Singlet-A      1.3194 eV  939.71 nm  f=0.0001  <S**2>=0.000
     245 -> 247        0.70589
 This state for optimization and/or second-order correction.
 Total Energy, E(TD-HF/TD-DFT) =  -3007.33470904
 Copying the excited state density for this state as the 1-particle RhoCI density.

 Excited State   2:      Singlet-A      1.7493 eV  708.76 nm  f=0.2939  <S**2>=0.000
     244 -> 248        0.18449
     246 -> 247        0.69077
     246 <- 247       -0.15780

 Excited State   3:      Singlet-A      1.9291 eV  642.70 nm  f=0.1012  <S**2>=0.000
     244 -> 247        0.65310
     246 -> 248       -0.20718

 Excited State   4:      Singlet-A      2.0630 eV  600.98 nm  f=0.0017  <S**2>=0.000
     243 -> 247        0.70390

 Excited State   5:      Singlet-A      2.3279 eV  532.59 nm  f=0.0000  <S**2>=0.000
     241 -> 247        0.70677

 The electronic state is 1-A.
 Alpha  occ. eigenvalues --  -46.27643 -18.82848 -18.81444 -18.77284 -18.76542
 Alpha  occ. eigenvalues --  -18.76312 -18.73238 -14.03349 -14.03244 -14.01421
 Alpha  occ. eigenvalues --  -14.01262 -10.05075 -10.03862 -10.00472  -9.98837
 Alpha  occ. eigenvalues --   -9.97763  -9.97330  -9.97243  -9.96443  -9.96415
 Alpha  occ. eigenvalues --   -9.96395  -9.96003  -9.95734  -9.95376  -9.95280
 Alpha  occ. eigenvalues --   -9.94899  -9.94893  -9.94410  -9.94364  -9.94348
 Alpha  occ. eigenvalues --   -9.94337  -9.94312  -9.94176  -9.94170  -9.94037
 Alpha  occ. eigenvalues --   -9.93871  -9.93576  -9.93523  -9.92864  -9.92831
 Alpha  occ. eigenvalues --   -9.92649  -9.92525  -9.92502  -9.92378  -9.92364
 Alpha  occ. eigenvalues --   -9.92284  -9.92186  -9.92152  -9.91999  -9.91919
 Alpha  occ. eigenvalues --   -9.91884  -9.91813  -9.91791  -9.91775  -9.91748
 Alpha  occ. eigenvalues --   -9.91610  -9.91439  -9.91367  -9.91175  -9.90928
 Alpha  occ. eigenvalues --   -9.90879  -9.90862  -9.90775  -9.90767  -9.90537
 Alpha  occ. eigenvalues --   -9.90481  -2.92099  -1.72522  -1.71976  -1.71818
 Alpha  occ. eigenvalues --   -0.99672  -0.95351  -0.91072  -0.90687  -0.88646
 Alpha  occ. eigenvalues --   -0.88112  -0.85494  -0.84758  -0.83555  -0.82568
 Alpha  occ. eigenvalues --   -0.74922  -0.74245  -0.73675  -0.73297  -0.72447
 Alpha  occ. eigenvalues --   -0.71515  -0.71391  -0.70628  -0.70373  -0.70177
 Alpha  occ. eigenvalues --   -0.69621  -0.69352  -0.68411  -0.67468  -0.66827
 Alpha  occ. eigenvalues --   -0.66710  -0.66064  -0.65444  -0.64479  -0.64123
 Alpha  occ. eigenvalues --   -0.63871  -0.62491  -0.62182  -0.61109  -0.60859
 Alpha  occ. eigenvalues --   -0.60502  -0.60179  -0.59836  -0.59448  -0.59105
 Alpha  occ. eigenvalues --   -0.58925  -0.57436  -0.56697  -0.55818  -0.54448
 Alpha  occ. eigenvalues --   -0.54058  -0.53767  -0.52922  -0.52700  -0.51724
 Alpha  occ. eigenvalues --   -0.50951  -0.50941  -0.50241  -0.50044  -0.49977
 Alpha  occ. eigenvalues --   -0.49908  -0.49538  -0.49096  -0.47393  -0.46679
 Alpha  occ. eigenvalues --   -0.45902  -0.45618  -0.45446  -0.44649  -0.44218
 Alpha  occ. eigenvalues --   -0.43935  -0.43385  -0.42952  -0.42463  -0.42395
 Alpha  occ. eigenvalues --   -0.41854  -0.41621  -0.41580  -0.41340  -0.40994
 Alpha  occ. eigenvalues --   -0.40763  -0.40648  -0.40554  -0.40317  -0.40180
 Alpha  occ. eigenvalues --   -0.39877  -0.39789  -0.39740  -0.39458  -0.39293
 Alpha  occ. eigenvalues --   -0.39177  -0.38857  -0.38702  -0.38573  -0.38507
 Alpha  occ. eigenvalues --   -0.37951  -0.37934  -0.37714  -0.37513  -0.37234
 Alpha  occ. eigenvalues --   -0.37158  -0.36707  -0.36503  -0.36428  -0.36302
 Alpha  occ. eigenvalues --   -0.36057  -0.36002  -0.35851  -0.35691  -0.35626
 Alpha  occ. eigenvalues --   -0.35491  -0.35412  -0.35109  -0.34896  -0.34756
 Alpha  occ. eigenvalues --   -0.34520  -0.34336  -0.34120  -0.34019  -0.33861
 Alpha  occ. eigenvalues --   -0.33796  -0.33664  -0.33385  -0.33075  -0.32807
 Alpha  occ. eigenvalues --   -0.32662  -0.32604  -0.32526  -0.32480  -0.32253
 Alpha  occ. eigenvalues --   -0.31844  -0.31654  -0.31558  -0.31517  -0.31260
 Alpha  occ. eigenvalues --   -0.30944  -0.30934  -0.30615  -0.30507  -0.30343
 Alpha  occ. eigenvalues --   -0.30229  -0.30012  -0.29837  -0.29715  -0.29670
 Alpha  occ. eigenvalues --   -0.29457  -0.29230  -0.29157  -0.29029  -0.29012
 Alpha  occ. eigenvalues --   -0.28910  -0.28721  -0.28651  -0.28508  -0.28084
 Alpha  occ. eigenvalues --   -0.28062  -0.27772  -0.27705  -0.27210  -0.26737
 Alpha  occ. eigenvalues --   -0.26578  -0.26133  -0.26024  -0.25559  -0.25326
 Alpha  occ. eigenvalues --   -0.25025  -0.24549  -0.23615  -0.23378  -0.23330
 Alpha  occ. eigenvalues --   -0.23303  -0.22463  -0.22057  -0.21309  -0.20648
 Alpha  occ. eigenvalues --   -0.20485  -0.20000  -0.19396  -0.17242  -0.16690
 Alpha  occ. eigenvalues --   -0.15968
 Alpha virt. eigenvalues --   -0.11930  -0.07057  -0.06588  -0.04771  -0.03436
 Alpha virt. eigenvalues --   -0.03190  -0.02747  -0.01932  -0.01435   0.00157
 Alpha virt. eigenvalues --    0.00728   0.01452   0.02044   0.02803   0.02856

 Mulliken charges:
               1
     1  Mg   0.684280
     2  C    0.002930
     3  C   -0.041657
     4  C   -0.021265
     5  C   -0.055532
     6  N   -0.193800
     7  C   -0.106665
     8  C    0.030082
     9  C    0.022450
    10  C   -0.051206
    11  C    0.156865
    12  C    0.112305
    13  C    0.127680
    14  C    0.083224
    15  O   -0.190237
    16  O   -0.261889
    17  N   -0.311855
    18  C    0.150939
    19  C   -0.147994
    20  C    0.113983
    21  C    0.103961
    22  C    0.190626
    23  C   -0.166204
    24  O   -0.213544
    25  C    0.164431
    26  N   -0.274802
    27  C    0.019440
    28  C    0.034236
    29  C    0.015640
    30  C    0.073842
    31  C    0.122067
    32  C    0.059769
    33  C    0.049244
    34  N   -0.274015
    35  C    0.084012
    36  C   -0.205434
    37  C    0.084793
    38  C    0.087244
    39  C    0.174039
    40  C   -0.026097
    41  O   -0.133253
    42  C    0.062041
    43  C    0.157261
    44  O   -0.219418
    45  O   -0.284741
    46  C    0.215042
    47  C    0.292308
    48  C   -0.138393
    49  C   -0.161369
    50  C    0.158222
    51  C    0.146700
    52  C    0.093005
    53  C    0.132306
    54  C   -0.106582
    55  C    0.100094
    56  C    0.133707
    57  C    0.030982
    58  C    0.119738
    59  C   -0.068805
    60  C    0.081739
    61  C    0.118565
    62  C    0.044704
    63  C    0.143006
    64  C   -0.109173
    65  C    0.106057
    66  C    0.104042
    67  H   -0.069996
    68  H   -0.047209
    69  H   -0.048377
    70  H    0.017219
    71  H   -0.030321
    72  H    0.008810
    73  H   -0.009051
    74  H   -0.008978
    75  H   -0.013134
    76  H   -0.007891
    77  H   -0.021708
    78  H    0.011732
    79  H   -0.006892
    80  H   -0.002574
    81  H    0.003087
    82  H    0.013934
    83  H   -0.019095
    84  H   -0.018636
    85  H   -0.008604
    86  H   -0.008934
    87  H    0.008336
    88  H   -0.009848
    89  H   -0.007178
    90  H   -0.018622
    91  H   -0.014450
    92  H    0.002588
    93  H   -0.012195
    94  H    0.004128
    95  H    0.013297
    96  H   -0.010634
    97  H    0.021311
    98  H   -0.013106
    99  H    0.014547
   100  H    0.018636
   101  H   -0.000530
   102  H    0.028641
   103  H    0.009541
   104  H   -0.025814
   105  H   -0.019675
   106  H    0.011463
   107  H    0.001208
   108  H   -0.045003
   109  H   -0.047750
   110  H   -0.018691
   111  H   -0.036098
   112  H   -0.037695
   113  H   -0.026500
   114  H   -0.027971
   115  H   -0.018896
   116  H   -0.014365
   117  H   -0.023334
   118  H   -0.041767
   119  H   -0.045145
   120  H   -0.019197
   121  H   -0.036578
   122  H   -0.028659
   123  H   -0.012755
   124  H   -0.036787
   125  H   -0.032102
   126  H   -0.019224
   127  H   -0.015566
   128  H   -0.048258
   129  H   -0.035612
   130  H   -0.033600
   131  H   -0.027726
   132  H   -0.033803
   133  H   -0.048330
   134  H   -0.032522
   135  H   -0.022366
   136  H   -0.015667
   137  H   -0.026160
   138  H   -0.025006
   139  H   -0.003488
   140  H   -0.022075
 Sum of Mulliken charges =  -0.00000

 Dipole moment (field-independent basis, Debye):
    X=              4.3004    Y=              2.3780    Z=             -3.6026  Tot=              6.0932
 Quadrupole moment (field-independent basis, Debye-Ang):
   XX=           -372.8971   YY=           -436.2355   ZZ=           -407.1408
   XY=             25.4757   XZ=             14.7940   YZ=              5.6513

 Normal termination of Gaussian 16 at Sat Apr 30 05:44:58 2022.
