 Gaussian 16, Revision A.03,
 Gaussian 16:  ES64L-G16RevA.03 25-Dec-2016

 -----------------------------------
 #p cam-b3lyp/Def2SVP td=(nstates=5)
 -----------------------------------

 -------------------------------------------------------
 step_601_chromophore_19 TDDFT with cam-b3lyp functional
 -------------------------------------------------------
 Symbolic Z-matrix:
 Charge =  0 Multiplicity = 1

                         Standard orientation:
 ---------------------------------------------------------------------
 Center     Atomic      Atomic             Coordinates (Angstroms)
 Number     Number       Type             X           Y           Z
 ---------------------------------------------------------------------
      1         12           0       -5.880461    0.325918   -0.340729
      2          6           0       -3.412525   -2.196939   -0.401604
      3          6           0       -3.286268    2.592675    0.121448
      4          6           0       -8.239818    2.744253    0.199689
      5          6           0       -8.403790   -2.163433   -0.531111
      6          7           0       -3.564921    0.217800   -0.073631
      7          6           0       -2.790497   -0.922433   -0.331086
      8          6           0       -1.237432   -0.526235   -0.317989
      9          6           0       -1.320168    1.012111    0.079083
     10          6           0       -2.790467    1.316339    0.058885
     11          6           0       -0.636456    1.473645    1.380186
     12          6           0       -0.552905   -0.994004   -1.630272
     13          6           0        0.683412   -1.858842   -1.495066
     14          6           0        1.655446   -1.450239   -0.347030
     15          8           0        1.660953   -1.936338    0.767852
     16          8           0        2.469184   -0.422848   -0.642551
     17          7           0       -5.785797    2.395731    0.089678
     18          6           0       -4.601770    3.167226    0.142487
     19          6           0       -4.924494    4.537763    0.226228
     20          6           0       -6.380017    4.653025    0.295111
     21          6           0       -6.892988    3.232378    0.226140
     22          6           0       -3.837975    5.677550    0.148162
     23          6           0       -7.179214    5.778972    0.493649
     24          8           0       -8.435358    5.779034    0.525678
     25          6           0       -6.621166    7.112826    0.547722
     26          7           0       -7.990971    0.314691   -0.060945
     27          6           0       -8.770232    1.479851    0.093243
     28          6           0      -10.291293    1.149305    0.036343
     29          6           0      -10.390054   -0.459259   -0.133304
     30          6           0       -8.828105   -0.800623   -0.335654
     31          6           0      -11.100630    1.734887    1.237909
     32          6           0      -11.444336   -1.015177   -1.243915
     33          6           0      -12.882141   -1.286773   -0.654596
     34          7           0       -5.933136   -1.755815   -0.303868
     35          6           0       -7.023142   -2.625289   -0.435202
     36          6           0       -6.489273   -4.012434   -0.291188
     37          6           0       -5.067913   -3.925593   -0.271284
     38          6           0       -4.804905   -2.512658   -0.338107
     39          6           0       -7.306643   -5.225871   -0.159919
     40          6           0       -3.809615   -4.674527   -0.183064
     41          8           0       -3.583200   -5.877206   -0.026062
     42          6           0       -2.695796   -3.565883   -0.275784
     43          6           0       -1.879437   -3.687347    0.971608
     44          8           0       -2.319995   -3.375256    2.112333
     45          8           0       -0.612154   -4.277174    0.704253
     46          6           0        0.174562   -4.582823    1.861561
     47          6           0        3.516844   -0.010761    0.285426
     48          6           0        4.822663   -0.310064   -0.465589
     49          6           0        6.046754   -0.461875    0.065475
     50          6           0        6.312380   -0.245627    1.524683
     51          6           0        7.283832   -0.679399   -0.763232
     52          6           0        8.326509    0.406099   -1.121018
     53          6           0        8.231407    1.024925   -2.514759
     54          6           0        9.695066    1.480627   -2.873968
     55          6           0        9.605476    2.607880   -3.956522
     56          6           0       10.610669    0.378176   -3.464315
     57          6           0       12.060819    0.617114   -2.908456
     58          6           0       12.434204   -0.373305   -1.683262
     59          6           0       13.490181    0.328960   -0.872999
     60          6           0       14.899642    0.278403   -1.502912
     61          6           0       13.502325   -0.298374    0.544565
     62          6           0       13.095218    0.747830    1.598797
     63          6           0       13.042510    0.249722    2.957949
     64          6           0       11.615030    0.524414    3.643184
     65          6           0       11.617305    1.959788    4.194525
     66          6           0       11.214791   -0.530557    4.665905
     67          1           0       -2.470314    3.304338   -0.019152
     68          1           0       -9.021935    3.499321    0.308680
     69          1           0       -9.067406   -3.003350   -0.746563
     70          1           0       -0.867762   -1.087737    0.539786
     71          1           0       -0.969662    1.574789   -0.786353
     72          1           0       -1.388234    1.846418    2.077065
     73          1           0        0.235531    2.108160    1.220576
     74          1           0       -0.194913    0.567536    1.795195
     75          1           0       -0.170945   -0.171195   -2.234059
     76          1           0       -1.226590   -1.618869   -2.218122
     77          1           0        1.178672   -1.662542   -2.446063
     78          1           0        0.400450   -2.911766   -1.508061
     79          1           0       -2.829027    5.296676   -0.010030
     80          1           0       -3.877335    6.187609    1.110487
     81          1           0       -4.154384    6.426999   -0.576703
     82          1           0       -6.217307    7.417582   -0.416991
     83          1           0       -5.901968    7.089049    1.366452
     84          1           0       -7.389411    7.813688    0.874930
     85          1           0      -10.590265    1.659181   -0.880122
     86          1           0      -10.638401   -1.038231    0.755776
     87          1           0      -10.453339    2.261819    1.940359
     88          1           0      -11.648959    0.944780    1.750843
     89          1           0      -11.821800    2.462705    0.865792
     90          1           0      -11.081922   -1.974025   -1.611790
     91          1           0      -11.514737   -0.328815   -2.088677
     92          1           0      -13.457060   -0.362963   -0.724151
     93          1           0      -12.955114   -1.489562    0.413762
     94          1           0      -13.192016   -2.186512   -1.185753
     95          1           0       -7.378756   -5.725519   -1.125897
     96          1           0       -8.293127   -4.946765    0.210746
     97          1           0       -6.740559   -5.810328    0.565963
     98          1           0       -2.088348   -3.704757   -1.170261
     99          1           0       -0.406382   -4.860144    2.741935
    100          1           0        0.793284   -3.704617    2.045005
    101          1           0        0.829330   -5.405369    1.573976
    102          1           0        3.343095   -0.532706    1.225448
    103          1           0        3.549553    1.078161    0.324478
    104          1           0        4.605557   -0.679283   -1.467490
    105          1           0        7.298676    0.208364    1.612016
    106          1           0        6.444175   -1.215429    2.003580
    107          1           0        5.540378    0.460772    1.831760
    108          1           0        7.030427   -1.141483   -1.717085
    109          1           0        7.711626   -1.485800   -0.168459
    110          1           0        9.307062    0.060587   -0.793253
    111          1           0        8.127240    1.230120   -0.436180
    112          1           0        7.714228    1.983589   -2.482922
    113          1           0        7.803539    0.454019   -3.338064
    114          1           0       10.136591    1.843648   -1.945711
    115          1           0        9.058489    3.503226   -3.662572
    116          1           0        9.134087    2.139696   -4.821195
    117          1           0       10.585615    2.992841   -4.238238
    118          1           0       10.632885    0.354969   -4.554808
    119          1           0       10.243625   -0.612146   -3.195770
    120          1           0       12.245549    1.680806   -2.757426
    121          1           0       12.759725    0.352545   -3.701571
    122          1           0       12.988563   -1.201190   -2.125952
    123          1           0       11.574036   -0.691924   -1.095214
    124          1           0       13.367575    1.410253   -0.806562
    125          1           0       14.855151    0.382107   -2.587032
    126          1           0       15.435406   -0.665738   -1.398607
    127          1           0       15.523386    1.089780   -1.129401
    128          1           0       14.536661   -0.568645    0.756809
    129          1           0       12.862276   -1.177178    0.632942
    130          1           0       12.083220    1.033575    1.312374
    131          1           0       13.773385    1.597862    1.529918
    132          1           0       13.888517    0.711862    3.467142
    133          1           0       13.182486   -0.828897    3.034805
    134          1           0       10.749949    0.448617    2.985246
    135          1           0       12.345268    2.568796    3.658611
    136          1           0       11.831098    2.060334    5.257770
    137          1           0       10.652958    2.425455    3.991664
    138          1           0       11.970299   -0.531143    5.451201
    139          1           0       11.125461   -1.489059    4.153180
    140          1           0       10.333285   -0.180933    5.203533
 ---------------------------------------------------------------------

 SCF Done:  E(RCAM-B3LYP) =  -3007.15556376     A.U. after   17 cycles

 Excitation energies and oscillator strengths:

 Excited State   1:      Singlet-A      1.6264 eV  762.33 nm  f=0.3902  <S**2>=0.000
     245 -> 248       -0.17760
     246 -> 247        0.68689
     245 <- 248       -0.10968
 This state for optimization and/or second-order correction.
 Total Energy, E(TD-HF/TD-DFT) =  -3007.09579487
 Copying the excited state density for this state as the 1-particle RhoCI density.

 Excited State   2:      Singlet-A      2.1349 eV  580.75 nm  f=0.1542  <S**2>=0.000
     245 -> 247        0.65411
     246 -> 248        0.25433

 Excited State   3:      Singlet-A      3.1336 eV  395.66 nm  f=0.0004  <S**2>=0.000
     243 -> 247        0.25992
     243 -> 249        0.12019
     243 -> 250       -0.13009
     244 -> 247        0.52834
     244 -> 248        0.12941
     244 -> 249        0.18053
     244 -> 250       -0.16975
     244 -> 251        0.10119

 Excited State   4:      Singlet-A      3.2018 eV  387.23 nm  f=0.0046  <S**2>=0.000
     242 -> 247       -0.19705
     243 -> 247        0.57485
     244 -> 247       -0.31600

 Excited State   5:      Singlet-A      3.3868 eV  366.08 nm  f=0.0056  <S**2>=0.000
     242 -> 247        0.63442
     243 -> 247        0.13252
     246 -> 248       -0.22483

 The electronic state is 1-A.
 Alpha  occ. eigenvalues --  -46.89229 -19.25712 -19.24488 -19.20267 -19.19874
 Alpha  occ. eigenvalues --  -19.19867 -19.16038 -14.42338 -14.42124 -14.40032
 Alpha  occ. eigenvalues --  -14.39634 -10.40381 -10.39734 -10.36193 -10.32899
 Alpha  occ. eigenvalues --  -10.32563 -10.32150 -10.32086 -10.31090 -10.30811
 Alpha  occ. eigenvalues --  -10.30789 -10.30241 -10.29897 -10.29752 -10.29299
 Alpha  occ. eigenvalues --  -10.29177 -10.29039 -10.29028 -10.28974 -10.28935
 Alpha  occ. eigenvalues --  -10.28849 -10.28321 -10.28269 -10.28189 -10.28111
 Alpha  occ. eigenvalues --  -10.28015 -10.27439 -10.27388 -10.27040 -10.27003
 Alpha  occ. eigenvalues --  -10.26318 -10.26309 -10.26257 -10.26195 -10.26176
 Alpha  occ. eigenvalues --  -10.26114 -10.26039 -10.25956 -10.25882 -10.25761
 Alpha  occ. eigenvalues --  -10.25711 -10.25667 -10.25504 -10.25483 -10.25444
 Alpha  occ. eigenvalues --  -10.25347 -10.25137 -10.25039 -10.24792 -10.24518
 Alpha  occ. eigenvalues --  -10.24499 -10.24449 -10.24430 -10.24402 -10.24317
 Alpha  occ. eigenvalues --  -10.24116  -3.17580  -1.92482  -1.92021  -1.91888
 Alpha  occ. eigenvalues --   -1.18171  -1.13928  -1.09771  -1.08565  -1.06655
 Alpha  occ. eigenvalues --   -1.06210  -1.03317  -1.02468  -1.00932  -0.99915
 Alpha  occ. eigenvalues --   -0.92278  -0.91161  -0.90523  -0.90157  -0.89173
 Alpha  occ. eigenvalues --   -0.88204  -0.88004  -0.87214  -0.86920  -0.86795
 Alpha  occ. eigenvalues --   -0.86130  -0.85703  -0.84653  -0.83581  -0.83059
 Alpha  occ. eigenvalues --   -0.82840  -0.81941  -0.81472  -0.80447  -0.79915
 Alpha  occ. eigenvalues --   -0.79700  -0.78260  -0.77803  -0.76566  -0.76245
 Alpha  occ. eigenvalues --   -0.75877  -0.75570  -0.75133  -0.74729  -0.74198
 Alpha  occ. eigenvalues --   -0.74140  -0.72557  -0.71583  -0.70641  -0.69106
 Alpha  occ. eigenvalues --   -0.68639  -0.68361  -0.67429  -0.67055  -0.65955
 Alpha  occ. eigenvalues --   -0.65185  -0.65059  -0.64248  -0.64049  -0.63818
 Alpha  occ. eigenvalues --   -0.63766  -0.63508  -0.63010  -0.61236  -0.60260
 Alpha  occ. eigenvalues --   -0.59483  -0.59174  -0.58837  -0.58095  -0.57989
 Alpha  occ. eigenvalues --   -0.57216  -0.56720  -0.56314  -0.55535  -0.55411
 Alpha  occ. eigenvalues --   -0.54853  -0.54598  -0.54471  -0.54038  -0.53995
 Alpha  occ. eigenvalues --   -0.53525  -0.53318  -0.53217  -0.53118  -0.52795
 Alpha  occ. eigenvalues --   -0.52636  -0.52498  -0.52432  -0.52326  -0.51901
 Alpha  occ. eigenvalues --   -0.51840  -0.51578  -0.51358  -0.51181  -0.50825
 Alpha  occ. eigenvalues --   -0.50532  -0.50219  -0.50144  -0.49683  -0.49605
 Alpha  occ. eigenvalues --   -0.49408  -0.49198  -0.49057  -0.48750  -0.48416
 Alpha  occ. eigenvalues --   -0.48351  -0.48085  -0.47945  -0.47909  -0.47725
 Alpha  occ. eigenvalues --   -0.47588  -0.47452  -0.47292  -0.46711  -0.46568
 Alpha  occ. eigenvalues --   -0.46443  -0.46347  -0.46284  -0.45769  -0.45729
 Alpha  occ. eigenvalues --   -0.45630  -0.45465  -0.45105  -0.44709  -0.44672
 Alpha  occ. eigenvalues --   -0.44482  -0.44262  -0.44119  -0.44004  -0.43989
 Alpha  occ. eigenvalues --   -0.43438  -0.43161  -0.43091  -0.42927  -0.42877
 Alpha  occ. eigenvalues --   -0.42608  -0.42230  -0.42147  -0.41982  -0.41915
 Alpha  occ. eigenvalues --   -0.41702  -0.41652  -0.41133  -0.41077  -0.40874
 Alpha  occ. eigenvalues --   -0.40828  -0.40594  -0.40459  -0.40270  -0.40201
 Alpha  occ. eigenvalues --   -0.39996  -0.39809  -0.39719  -0.39668  -0.38986
 Alpha  occ. eigenvalues --   -0.38968  -0.38659  -0.38566  -0.38002  -0.37504
 Alpha  occ. eigenvalues --   -0.37452  -0.37279  -0.36634  -0.36574  -0.36225
 Alpha  occ. eigenvalues --   -0.35688  -0.35166  -0.35011  -0.34598  -0.34263
 Alpha  occ. eigenvalues --   -0.33936  -0.33644  -0.32599  -0.31741  -0.31190
 Alpha  occ. eigenvalues --   -0.30137  -0.30102  -0.29074  -0.28944  -0.23969
 Alpha  occ. eigenvalues --   -0.21303
 Alpha virt. eigenvalues --   -0.09285  -0.01790  -0.00343   0.01954   0.02285
 Alpha virt. eigenvalues --    0.04107   0.04535   0.05453   0.05847   0.06597
 Alpha virt. eigenvalues --    0.07252   0.07771   0.08512   0.09165   0.09239

 Mulliken charges:
               1
     1  Mg   0.812004
     2  C   -0.020301
     3  C   -0.051755
     4  C   -0.048632
     5  C   -0.074862
     6  N   -0.257537
     7  C   -0.065032
     8  C   -0.023547
     9  C   -0.026296
    10  C   -0.033119
    11  C    0.094441
    12  C    0.061950
    13  C    0.061975
    14  C    0.158100
    15  O   -0.234577
    16  O   -0.326625
    17  N   -0.395986
    18  C    0.154223
    19  C   -0.149417
    20  C    0.030444
    21  C    0.136450
    22  C    0.138139
    23  C   -0.085058
    24  O   -0.259755
    25  C    0.076567
    26  N   -0.349398
    27  C    0.044952
    28  C   -0.021229
    29  C   -0.033704
    30  C    0.101288
    31  C    0.062285
    32  C    0.008538
    33  C   -0.010305
    34  N   -0.360990
    35  C    0.095396
    36  C   -0.199826
    37  C    0.006391
    38  C    0.128217
    39  C    0.118917
    40  C    0.074831
    41  O   -0.169419
    42  C   -0.012150
    43  C    0.241943
    44  O   -0.253830
    45  O   -0.347868
    46  C    0.173746
    47  C    0.256962
    48  C   -0.154514
    49  C   -0.178793
    50  C    0.094400
    51  C    0.090431
    52  C    0.035782
    53  C    0.079372
    54  C   -0.163324
    55  C    0.043926
    56  C    0.077606
    57  C   -0.019535
    58  C    0.066616
    59  C   -0.128573
    60  C    0.027138
    61  C    0.065377
    62  C   -0.002557
    63  C    0.077206
    64  C   -0.165601
    65  C    0.046432
    66  C    0.046440
    67  H   -0.036995
    68  H   -0.005490
    69  H   -0.014043
    70  H    0.048304
    71  H    0.005000
    72  H    0.036281
    73  H    0.015452
    74  H    0.014961
    75  H    0.017874
    76  H    0.022269
    77  H    0.013978
    78  H    0.042062
    79  H    0.019614
    80  H    0.022983
    81  H    0.027833
    82  H    0.040709
    83  H    0.008427
    84  H    0.018772
    85  H    0.025064
    86  H    0.024045
    87  H    0.034457
    88  H    0.012833
    89  H    0.017125
    90  H    0.007809
    91  H    0.013673
    92  H    0.024875
    93  H    0.010625
    94  H    0.027032
    95  H    0.040535
    96  H    0.014867
    97  H    0.047852
    98  H    0.029837
    99  H    0.039604
   100  H    0.041786
   101  H    0.022854
   102  H    0.061320
   103  H    0.036213
   104  H    0.006954
   105  H    0.003863
   106  H    0.037166
   107  H    0.023604
   108  H   -0.014810
   109  H   -0.017403
   110  H    0.005858
   111  H   -0.007392
   112  H   -0.007070
   113  H    0.000548
   114  H    0.002290
   115  H    0.006071
   116  H    0.008086
   117  H    0.000989
   118  H   -0.010721
   119  H   -0.015298
   120  H    0.005646
   121  H   -0.008170
   122  H    0.000634
   123  H    0.011085
   124  H   -0.005132
   125  H   -0.007120
   126  H    0.004815
   127  H    0.009131
   128  H   -0.017673
   129  H   -0.007127
   130  H   -0.007894
   131  H   -0.001163
   132  H   -0.003339
   133  H   -0.017255
   134  H   -0.003716
   135  H    0.001380
   136  H    0.008716
   137  H   -0.001073
   138  H   -0.001843
   139  H    0.019428
   140  H    0.003169
 Sum of Mulliken charges =  -0.00000

 Dipole moment (field-independent basis, Debye):
    X=              4.5710    Y=              2.1777    Z=             -3.8321  Tot=              6.3499
 Quadrupole moment (field-independent basis, Debye-Ang):
   XX=           -373.0704   YY=           -433.0805   ZZ=           -406.9703
   XY=             27.9567   XZ=             15.6242   YZ=              6.4428

 Normal termination of Gaussian 16 at Sat Apr 30 04:44:16 2022.
