 Gaussian 16, Revision A.03,
 Gaussian 16:  ES64L-G16RevA.03 25-Dec-2016

 ---------------------------------
 #p PBE1PBE/Def2SVP td=(nstates=5)
 ---------------------------------

 -----------------------------------------------------
 step_601_chromophore_19 TDDFT with PBE1PBE functional
 -----------------------------------------------------
 Symbolic Z-matrix:
 Charge =  0 Multiplicity = 1

                         Standard orientation:
 ---------------------------------------------------------------------
 Center     Atomic      Atomic             Coordinates (Angstroms)
 Number     Number       Type             X           Y           Z
 ---------------------------------------------------------------------
      1         12           0       -5.880461    0.325918   -0.340729
      2          6           0       -3.412525   -2.196939   -0.401604
      3          6           0       -3.286268    2.592675    0.121448
      4          6           0       -8.239818    2.744253    0.199689
      5          6           0       -8.403790   -2.163433   -0.531111
      6          7           0       -3.564921    0.217800   -0.073631
      7          6           0       -2.790497   -0.922433   -0.331086
      8          6           0       -1.237432   -0.526235   -0.317989
      9          6           0       -1.320168    1.012111    0.079083
     10          6           0       -2.790467    1.316339    0.058885
     11          6           0       -0.636456    1.473645    1.380186
     12          6           0       -0.552905   -0.994004   -1.630272
     13          6           0        0.683412   -1.858842   -1.495066
     14          6           0        1.655446   -1.450239   -0.347030
     15          8           0        1.660953   -1.936338    0.767852
     16          8           0        2.469184   -0.422848   -0.642551
     17          7           0       -5.785797    2.395731    0.089678
     18          6           0       -4.601770    3.167226    0.142487
     19          6           0       -4.924494    4.537763    0.226228
     20          6           0       -6.380017    4.653025    0.295111
     21          6           0       -6.892988    3.232378    0.226140
     22          6           0       -3.837975    5.677550    0.148162
     23          6           0       -7.179214    5.778972    0.493649
     24          8           0       -8.435358    5.779034    0.525678
     25          6           0       -6.621166    7.112826    0.547722
     26          7           0       -7.990971    0.314691   -0.060945
     27          6           0       -8.770232    1.479851    0.093243
     28          6           0      -10.291293    1.149305    0.036343
     29          6           0      -10.390054   -0.459259   -0.133304
     30          6           0       -8.828105   -0.800623   -0.335654
     31          6           0      -11.100630    1.734887    1.237909
     32          6           0      -11.444336   -1.015177   -1.243915
     33          6           0      -12.882141   -1.286773   -0.654596
     34          7           0       -5.933136   -1.755815   -0.303868
     35          6           0       -7.023142   -2.625289   -0.435202
     36          6           0       -6.489273   -4.012434   -0.291188
     37          6           0       -5.067913   -3.925593   -0.271284
     38          6           0       -4.804905   -2.512658   -0.338107
     39          6           0       -7.306643   -5.225871   -0.159919
     40          6           0       -3.809615   -4.674527   -0.183064
     41          8           0       -3.583200   -5.877206   -0.026062
     42          6           0       -2.695796   -3.565883   -0.275784
     43          6           0       -1.879437   -3.687347    0.971608
     44          8           0       -2.319995   -3.375256    2.112333
     45          8           0       -0.612154   -4.277174    0.704253
     46          6           0        0.174562   -4.582823    1.861561
     47          6           0        3.516844   -0.010761    0.285426
     48          6           0        4.822663   -0.310064   -0.465589
     49          6           0        6.046754   -0.461875    0.065475
     50          6           0        6.312380   -0.245627    1.524683
     51          6           0        7.283832   -0.679399   -0.763232
     52          6           0        8.326509    0.406099   -1.121018
     53          6           0        8.231407    1.024925   -2.514759
     54          6           0        9.695066    1.480627   -2.873968
     55          6           0        9.605476    2.607880   -3.956522
     56          6           0       10.610669    0.378176   -3.464315
     57          6           0       12.060819    0.617114   -2.908456
     58          6           0       12.434204   -0.373305   -1.683262
     59          6           0       13.490181    0.328960   -0.872999
     60          6           0       14.899642    0.278403   -1.502912
     61          6           0       13.502325   -0.298374    0.544565
     62          6           0       13.095218    0.747830    1.598797
     63          6           0       13.042510    0.249722    2.957949
     64          6           0       11.615030    0.524414    3.643184
     65          6           0       11.617305    1.959788    4.194525
     66          6           0       11.214791   -0.530557    4.665905
     67          1           0       -2.470314    3.304338   -0.019152
     68          1           0       -9.021935    3.499321    0.308680
     69          1           0       -9.067406   -3.003350   -0.746563
     70          1           0       -0.867762   -1.087737    0.539786
     71          1           0       -0.969662    1.574789   -0.786353
     72          1           0       -1.388234    1.846418    2.077065
     73          1           0        0.235531    2.108160    1.220576
     74          1           0       -0.194913    0.567536    1.795195
     75          1           0       -0.170945   -0.171195   -2.234059
     76          1           0       -1.226590   -1.618869   -2.218122
     77          1           0        1.178672   -1.662542   -2.446063
     78          1           0        0.400450   -2.911766   -1.508061
     79          1           0       -2.829027    5.296676   -0.010030
     80          1           0       -3.877335    6.187609    1.110487
     81          1           0       -4.154384    6.426999   -0.576703
     82          1           0       -6.217307    7.417582   -0.416991
     83          1           0       -5.901968    7.089049    1.366452
     84          1           0       -7.389411    7.813688    0.874930
     85          1           0      -10.590265    1.659181   -0.880122
     86          1           0      -10.638401   -1.038231    0.755776
     87          1           0      -10.453339    2.261819    1.940359
     88          1           0      -11.648959    0.944780    1.750843
     89          1           0      -11.821800    2.462705    0.865792
     90          1           0      -11.081922   -1.974025   -1.611790
     91          1           0      -11.514737   -0.328815   -2.088677
     92          1           0      -13.457060   -0.362963   -0.724151
     93          1           0      -12.955114   -1.489562    0.413762
     94          1           0      -13.192016   -2.186512   -1.185753
     95          1           0       -7.378756   -5.725519   -1.125897
     96          1           0       -8.293127   -4.946765    0.210746
     97          1           0       -6.740559   -5.810328    0.565963
     98          1           0       -2.088348   -3.704757   -1.170261
     99          1           0       -0.406382   -4.860144    2.741935
    100          1           0        0.793284   -3.704617    2.045005
    101          1           0        0.829330   -5.405369    1.573976
    102          1           0        3.343095   -0.532706    1.225448
    103          1           0        3.549553    1.078161    0.324478
    104          1           0        4.605557   -0.679283   -1.467490
    105          1           0        7.298676    0.208364    1.612016
    106          1           0        6.444175   -1.215429    2.003580
    107          1           0        5.540378    0.460772    1.831760
    108          1           0        7.030427   -1.141483   -1.717085
    109          1           0        7.711626   -1.485800   -0.168459
    110          1           0        9.307062    0.060587   -0.793253
    111          1           0        8.127240    1.230120   -0.436180
    112          1           0        7.714228    1.983589   -2.482922
    113          1           0        7.803539    0.454019   -3.338064
    114          1           0       10.136591    1.843648   -1.945711
    115          1           0        9.058489    3.503226   -3.662572
    116          1           0        9.134087    2.139696   -4.821195
    117          1           0       10.585615    2.992841   -4.238238
    118          1           0       10.632885    0.354969   -4.554808
    119          1           0       10.243625   -0.612146   -3.195770
    120          1           0       12.245549    1.680806   -2.757426
    121          1           0       12.759725    0.352545   -3.701571
    122          1           0       12.988563   -1.201190   -2.125952
    123          1           0       11.574036   -0.691924   -1.095214
    124          1           0       13.367575    1.410253   -0.806562
    125          1           0       14.855151    0.382107   -2.587032
    126          1           0       15.435406   -0.665738   -1.398607
    127          1           0       15.523386    1.089780   -1.129401
    128          1           0       14.536661   -0.568645    0.756809
    129          1           0       12.862276   -1.177178    0.632942
    130          1           0       12.083220    1.033575    1.312374
    131          1           0       13.773385    1.597862    1.529918
    132          1           0       13.888517    0.711862    3.467142
    133          1           0       13.182486   -0.828897    3.034805
    134          1           0       10.749949    0.448617    2.985246
    135          1           0       12.345268    2.568796    3.658611
    136          1           0       11.831098    2.060334    5.257770
    137          1           0       10.652958    2.425455    3.991664
    138          1           0       11.970299   -0.531143    5.451201
    139          1           0       11.125461   -1.489059    4.153180
    140          1           0       10.333285   -0.180933    5.203533
 ---------------------------------------------------------------------

 SCF Done:  E(RPBE1PBE) =  -3005.34417779     A.U. after   19 cycles

 Excitation energies and oscillator strengths:

 Excited State   1:      Singlet-A      1.7886 eV  693.20 nm  f=0.3725  <S**2>=0.000
     245 -> 248        0.17055
     246 -> 247        0.69476
     246 <- 247       -0.11534
 This state for optimization and/or second-order correction.
 Total Energy, E(TD-HF/TD-DFT) =  -3005.27844833
 Copying the excited state density for this state as the 1-particle RhoCI density.

 Excited State   2:      Singlet-A      2.1358 eV  580.49 nm  f=0.1420  <S**2>=0.000
     245 -> 247        0.66186
     246 -> 248       -0.22973

 Excited State   3:      Singlet-A      2.4779 eV  500.36 nm  f=0.0000  <S**2>=0.000
     244 -> 247        0.68135
     244 -> 249        0.10680
     244 -> 250        0.10871

 Excited State   4:      Singlet-A      2.8677 eV  432.35 nm  f=0.0092  <S**2>=0.000
     241 -> 247       -0.12461
     243 -> 247        0.68587

 Excited State   5:      Singlet-A      3.0719 eV  403.61 nm  f=0.0099  <S**2>=0.000
     240 -> 247       -0.25545
     241 -> 247        0.63029
     243 -> 247        0.11128

 The electronic state is 1-A.
 Alpha  occ. eigenvalues --  -46.92644 -19.26371 -19.25074 -19.20500 -19.20014
 Alpha  occ. eigenvalues --  -19.19928 -19.16500 -14.41787 -14.41731 -14.39614
 Alpha  occ. eigenvalues --  -14.39416 -10.37376 -10.36671 -10.33195 -10.30311
 Alpha  occ. eigenvalues --  -10.30266 -10.29841 -10.29289 -10.28678 -10.28644
 Alpha  occ. eigenvalues --  -10.28621 -10.28014 -10.27661 -10.27476 -10.26944
 Alpha  occ. eigenvalues --  -10.26909 -10.26667 -10.26625 -10.26535 -10.26509
 Alpha  occ. eigenvalues --  -10.26488 -10.26199 -10.26061 -10.25744 -10.25723
 Alpha  occ. eigenvalues --  -10.25557 -10.25087 -10.24911 -10.24634 -10.24606
 Alpha  occ. eigenvalues --  -10.24267 -10.23847 -10.23842 -10.23740 -10.23675
 Alpha  occ. eigenvalues --  -10.23649 -10.23557 -10.23488 -10.23404 -10.23361
 Alpha  occ. eigenvalues --  -10.23301 -10.23243 -10.23046 -10.23034 -10.23006
 Alpha  occ. eigenvalues --  -10.22942 -10.22824 -10.22611 -10.22206 -10.21990
 Alpha  occ. eigenvalues --  -10.21929 -10.21898 -10.21883 -10.21813 -10.21673
 Alpha  occ. eigenvalues --  -10.21601  -3.14580  -1.87421  -1.86938  -1.86809
 Alpha  occ. eigenvalues --   -1.12961  -1.08590  -1.04352  -1.03389  -1.01524
 Alpha  occ. eigenvalues --   -1.00910  -0.97837  -0.97023  -0.95643  -0.94573
 Alpha  occ. eigenvalues --   -0.86493  -0.85278  -0.84612  -0.84304  -0.83272
 Alpha  occ. eigenvalues --   -0.82521  -0.82107  -0.81533  -0.81155  -0.81048
 Alpha  occ. eigenvalues --   -0.80488  -0.79972  -0.78836  -0.77768  -0.77321
 Alpha  occ. eigenvalues --   -0.77110  -0.76183  -0.75768  -0.74731  -0.74093
 Alpha  occ. eigenvalues --   -0.74007  -0.72520  -0.72096  -0.70883  -0.70391
 Alpha  occ. eigenvalues --   -0.69953  -0.69888  -0.69253  -0.69072  -0.68472
 Alpha  occ. eigenvalues --   -0.68313  -0.66957  -0.65968  -0.64995  -0.63488
 Alpha  occ. eigenvalues --   -0.63007  -0.62622  -0.61892  -0.61319  -0.60408
 Alpha  occ. eigenvalues --   -0.59494  -0.59364  -0.58787  -0.58402  -0.58235
 Alpha  occ. eigenvalues --   -0.58132  -0.57652  -0.57187  -0.55726  -0.54645
 Alpha  occ. eigenvalues --   -0.53898  -0.53692  -0.53498  -0.52674  -0.52288
 Alpha  occ. eigenvalues --   -0.51747  -0.51298  -0.50850  -0.50115  -0.49840
 Alpha  occ. eigenvalues --   -0.49312  -0.49035  -0.48902  -0.48651  -0.48408
 Alpha  occ. eigenvalues --   -0.48010  -0.47853  -0.47756  -0.47624  -0.47291
 Alpha  occ. eigenvalues --   -0.47245  -0.47034  -0.46865  -0.46757  -0.46546
 Alpha  occ. eigenvalues --   -0.46326  -0.46133  -0.45745  -0.45689  -0.45316
 Alpha  occ. eigenvalues --   -0.45138  -0.44880  -0.44689  -0.44243  -0.44202
 Alpha  occ. eigenvalues --   -0.44009  -0.43839  -0.43687  -0.43355  -0.43043
 Alpha  occ. eigenvalues --   -0.42982  -0.42742  -0.42603  -0.42530  -0.42378
 Alpha  occ. eigenvalues --   -0.42261  -0.42162  -0.41870  -0.41369  -0.41210
 Alpha  occ. eigenvalues --   -0.41091  -0.41007  -0.40915  -0.40508  -0.40444
 Alpha  occ. eigenvalues --   -0.40302  -0.40213  -0.39863  -0.39360  -0.39315
 Alpha  occ. eigenvalues --   -0.39225  -0.39114  -0.38782  -0.38735  -0.38649
 Alpha  occ. eigenvalues --   -0.38188  -0.37892  -0.37864  -0.37720  -0.37578
 Alpha  occ. eigenvalues --   -0.37370  -0.37112  -0.36989  -0.36894  -0.36691
 Alpha  occ. eigenvalues --   -0.36494  -0.36410  -0.35876  -0.35843  -0.35784
 Alpha  occ. eigenvalues --   -0.35589  -0.35402  -0.35287  -0.35186  -0.34947
 Alpha  occ. eigenvalues --   -0.34755  -0.34724  -0.34667  -0.34434  -0.33996
 Alpha  occ. eigenvalues --   -0.33757  -0.33630  -0.33419  -0.32771  -0.32490
 Alpha  occ. eigenvalues --   -0.32290  -0.32145  -0.31723  -0.31525  -0.31276
 Alpha  occ. eigenvalues --   -0.30604  -0.30020  -0.29903  -0.29500  -0.29363
 Alpha  occ. eigenvalues --   -0.28648  -0.28636  -0.28233  -0.26889  -0.26451
 Alpha  occ. eigenvalues --   -0.25649  -0.25406  -0.24855  -0.23793  -0.20920
 Alpha  occ. eigenvalues --   -0.18928
 Alpha virt. eigenvalues --   -0.11647  -0.05360  -0.04460  -0.02347  -0.00626
 Alpha virt. eigenvalues --   -0.00313  -0.00011   0.01062   0.01401   0.03183
 Alpha virt. eigenvalues --    0.03417   0.04274   0.04806   0.05783   0.05849

 Mulliken charges:
               1
     1  Mg   0.956435
     2  C   -0.030336
     3  C   -0.052197
     4  C   -0.047415
     5  C   -0.073559
     6  N   -0.356128
     7  C    0.003711
     8  C   -0.093538
     9  C   -0.101111
    10  C    0.009450
    11  C    0.033624
    12  C    0.011515
    13  C   -0.014455
    14  C    0.226294
    15  O   -0.270726
    16  O   -0.360129
    17  N   -0.505117
    18  C    0.182033
    19  C   -0.166940
    20  C   -0.029145
    21  C    0.180359
    22  C    0.076960
    23  C   -0.039715
    24  O   -0.295087
    25  C    0.000658
    26  N   -0.444069
    27  C    0.077586
    28  C   -0.096026
    29  C   -0.097656
    30  C    0.133925
    31  C    0.003134
    32  C   -0.055719
    33  C   -0.079807
    34  N   -0.481360
    35  C    0.119555
    36  C   -0.224759
    37  C   -0.034565
    38  C    0.173309
    39  C    0.062169
    40  C    0.164827
    41  O   -0.216644
    42  C   -0.115704
    43  C    0.322383
    44  O   -0.285286
    45  O   -0.378860
    46  C    0.119209
    47  C    0.216287
    48  C   -0.162295
    49  C   -0.221499
    50  C    0.027521
    51  C    0.030059
    52  C   -0.036559
    53  C    0.027218
    54  C   -0.254228
    55  C   -0.017273
    56  C    0.028870
    57  C   -0.081197
    58  C    0.006070
    59  C   -0.213637
    60  C   -0.031059
    61  C    0.011401
    62  C   -0.066133
    63  C    0.018870
    64  C   -0.258763
    65  C   -0.011015
    66  C   -0.017641
    67  H   -0.004123
    68  H    0.026948
    69  H    0.017293
    70  H    0.091197
    71  H    0.043137
    72  H    0.063830
    73  H    0.042628
    74  H    0.043648
    75  H    0.048459
    76  H    0.055511
    77  H    0.047276
    78  H    0.074529
    79  H    0.047356
    80  H    0.051832
    81  H    0.056153
    82  H    0.067217
    83  H    0.037047
    84  H    0.047387
    85  H    0.062100
    86  H    0.060531
    87  H    0.061283
    88  H    0.041131
    89  H    0.044275
    90  H    0.041058
    91  H    0.045372
    92  H    0.052238
    93  H    0.037176
    94  H    0.054054
    95  H    0.068189
    96  H    0.041162
    97  H    0.075297
    98  H    0.066893
    99  H    0.061023
   100  H    0.066774
   101  H    0.045385
   102  H    0.084944
   103  H    0.063604
   104  H    0.036108
   105  H    0.032466
   106  H    0.065090
   107  H    0.050938
   108  H    0.018214
   109  H    0.016819
   110  H    0.042092
   111  H    0.027092
   112  H    0.027135
   113  H    0.030397
   114  H    0.040922
   115  H    0.033943
   116  H    0.036346
   117  H    0.029575
   118  H    0.021177
   119  H    0.018074
   120  H    0.035725
   121  H    0.025073
   122  H    0.035465
   123  H    0.043968
   124  H    0.031701
   125  H    0.021459
   126  H    0.031972
   127  H    0.037284
   128  H    0.016825
   129  H    0.024383
   130  H    0.027235
   131  H    0.030847
   132  H    0.029221
   133  H    0.015568
   134  H    0.033576
   135  H    0.029508
   136  H    0.035542
   137  H    0.026727
   138  H    0.027078
   139  H    0.046806
   140  H    0.031761
 Sum of Mulliken charges =  -0.00000

 Dipole moment (field-independent basis, Debye):
    X=              4.4390    Y=              2.4956    Z=             -3.8126  Tot=              6.3615
 Quadrupole moment (field-independent basis, Debye-Ang):
   XX=           -365.3066   YY=           -430.0434   ZZ=           -404.4201
   XY=             26.7595   XZ=             15.3633   YZ=              6.4024

 Normal termination of Gaussian 16 at Sat Apr 30 05:05:11 2022.
