 Gaussian 16, Revision A.03,
 Gaussian 16:  ES64L-G16RevA.03 25-Dec-2016

 --------------------------------
 #p wB97XD/Def2SVP td=(nstates=5)
 --------------------------------

 ----------------------------------------------------
 step_601_chromophore_19 TDDFT with wB97XD functional
 ----------------------------------------------------
 Symbolic Z-matrix:
 Charge =  0 Multiplicity = 1

                         Standard orientation:
 ---------------------------------------------------------------------
 Center     Atomic      Atomic             Coordinates (Angstroms)
 Number     Number       Type             X           Y           Z
 ---------------------------------------------------------------------
      1         12           0       -5.880461    0.325918   -0.340729
      2          6           0       -3.412525   -2.196939   -0.401604
      3          6           0       -3.286268    2.592675    0.121448
      4          6           0       -8.239818    2.744253    0.199689
      5          6           0       -8.403790   -2.163433   -0.531111
      6          7           0       -3.564921    0.217800   -0.073631
      7          6           0       -2.790497   -0.922433   -0.331086
      8          6           0       -1.237432   -0.526235   -0.317989
      9          6           0       -1.320168    1.012111    0.079083
     10          6           0       -2.790467    1.316339    0.058885
     11          6           0       -0.636456    1.473645    1.380186
     12          6           0       -0.552905   -0.994004   -1.630272
     13          6           0        0.683412   -1.858842   -1.495066
     14          6           0        1.655446   -1.450239   -0.347030
     15          8           0        1.660953   -1.936338    0.767852
     16          8           0        2.469184   -0.422848   -0.642551
     17          7           0       -5.785797    2.395731    0.089678
     18          6           0       -4.601770    3.167226    0.142487
     19          6           0       -4.924494    4.537763    0.226228
     20          6           0       -6.380017    4.653025    0.295111
     21          6           0       -6.892988    3.232378    0.226140
     22          6           0       -3.837975    5.677550    0.148162
     23          6           0       -7.179214    5.778972    0.493649
     24          8           0       -8.435358    5.779034    0.525678
     25          6           0       -6.621166    7.112826    0.547722
     26          7           0       -7.990971    0.314691   -0.060945
     27          6           0       -8.770232    1.479851    0.093243
     28          6           0      -10.291293    1.149305    0.036343
     29          6           0      -10.390054   -0.459259   -0.133304
     30          6           0       -8.828105   -0.800623   -0.335654
     31          6           0      -11.100630    1.734887    1.237909
     32          6           0      -11.444336   -1.015177   -1.243915
     33          6           0      -12.882141   -1.286773   -0.654596
     34          7           0       -5.933136   -1.755815   -0.303868
     35          6           0       -7.023142   -2.625289   -0.435202
     36          6           0       -6.489273   -4.012434   -0.291188
     37          6           0       -5.067913   -3.925593   -0.271284
     38          6           0       -4.804905   -2.512658   -0.338107
     39          6           0       -7.306643   -5.225871   -0.159919
     40          6           0       -3.809615   -4.674527   -0.183064
     41          8           0       -3.583200   -5.877206   -0.026062
     42          6           0       -2.695796   -3.565883   -0.275784
     43          6           0       -1.879437   -3.687347    0.971608
     44          8           0       -2.319995   -3.375256    2.112333
     45          8           0       -0.612154   -4.277174    0.704253
     46          6           0        0.174562   -4.582823    1.861561
     47          6           0        3.516844   -0.010761    0.285426
     48          6           0        4.822663   -0.310064   -0.465589
     49          6           0        6.046754   -0.461875    0.065475
     50          6           0        6.312380   -0.245627    1.524683
     51          6           0        7.283832   -0.679399   -0.763232
     52          6           0        8.326509    0.406099   -1.121018
     53          6           0        8.231407    1.024925   -2.514759
     54          6           0        9.695066    1.480627   -2.873968
     55          6           0        9.605476    2.607880   -3.956522
     56          6           0       10.610669    0.378176   -3.464315
     57          6           0       12.060819    0.617114   -2.908456
     58          6           0       12.434204   -0.373305   -1.683262
     59          6           0       13.490181    0.328960   -0.872999
     60          6           0       14.899642    0.278403   -1.502912
     61          6           0       13.502325   -0.298374    0.544565
     62          6           0       13.095218    0.747830    1.598797
     63          6           0       13.042510    0.249722    2.957949
     64          6           0       11.615030    0.524414    3.643184
     65          6           0       11.617305    1.959788    4.194525
     66          6           0       11.214791   -0.530557    4.665905
     67          1           0       -2.470314    3.304338   -0.019152
     68          1           0       -9.021935    3.499321    0.308680
     69          1           0       -9.067406   -3.003350   -0.746563
     70          1           0       -0.867762   -1.087737    0.539786
     71          1           0       -0.969662    1.574789   -0.786353
     72          1           0       -1.388234    1.846418    2.077065
     73          1           0        0.235531    2.108160    1.220576
     74          1           0       -0.194913    0.567536    1.795195
     75          1           0       -0.170945   -0.171195   -2.234059
     76          1           0       -1.226590   -1.618869   -2.218122
     77          1           0        1.178672   -1.662542   -2.446063
     78          1           0        0.400450   -2.911766   -1.508061
     79          1           0       -2.829027    5.296676   -0.010030
     80          1           0       -3.877335    6.187609    1.110487
     81          1           0       -4.154384    6.426999   -0.576703
     82          1           0       -6.217307    7.417582   -0.416991
     83          1           0       -5.901968    7.089049    1.366452
     84          1           0       -7.389411    7.813688    0.874930
     85          1           0      -10.590265    1.659181   -0.880122
     86          1           0      -10.638401   -1.038231    0.755776
     87          1           0      -10.453339    2.261819    1.940359
     88          1           0      -11.648959    0.944780    1.750843
     89          1           0      -11.821800    2.462705    0.865792
     90          1           0      -11.081922   -1.974025   -1.611790
     91          1           0      -11.514737   -0.328815   -2.088677
     92          1           0      -13.457060   -0.362963   -0.724151
     93          1           0      -12.955114   -1.489562    0.413762
     94          1           0      -13.192016   -2.186512   -1.185753
     95          1           0       -7.378756   -5.725519   -1.125897
     96          1           0       -8.293127   -4.946765    0.210746
     97          1           0       -6.740559   -5.810328    0.565963
     98          1           0       -2.088348   -3.704757   -1.170261
     99          1           0       -0.406382   -4.860144    2.741935
    100          1           0        0.793284   -3.704617    2.045005
    101          1           0        0.829330   -5.405369    1.573976
    102          1           0        3.343095   -0.532706    1.225448
    103          1           0        3.549553    1.078161    0.324478
    104          1           0        4.605557   -0.679283   -1.467490
    105          1           0        7.298676    0.208364    1.612016
    106          1           0        6.444175   -1.215429    2.003580
    107          1           0        5.540378    0.460772    1.831760
    108          1           0        7.030427   -1.141483   -1.717085
    109          1           0        7.711626   -1.485800   -0.168459
    110          1           0        9.307062    0.060587   -0.793253
    111          1           0        8.127240    1.230120   -0.436180
    112          1           0        7.714228    1.983589   -2.482922
    113          1           0        7.803539    0.454019   -3.338064
    114          1           0       10.136591    1.843648   -1.945711
    115          1           0        9.058489    3.503226   -3.662572
    116          1           0        9.134087    2.139696   -4.821195
    117          1           0       10.585615    2.992841   -4.238238
    118          1           0       10.632885    0.354969   -4.554808
    119          1           0       10.243625   -0.612146   -3.195770
    120          1           0       12.245549    1.680806   -2.757426
    121          1           0       12.759725    0.352545   -3.701571
    122          1           0       12.988563   -1.201190   -2.125952
    123          1           0       11.574036   -0.691924   -1.095214
    124          1           0       13.367575    1.410253   -0.806562
    125          1           0       14.855151    0.382107   -2.587032
    126          1           0       15.435406   -0.665738   -1.398607
    127          1           0       15.523386    1.089780   -1.129401
    128          1           0       14.536661   -0.568645    0.756809
    129          1           0       12.862276   -1.177178    0.632942
    130          1           0       12.083220    1.033575    1.312374
    131          1           0       13.773385    1.597862    1.529918
    132          1           0       13.888517    0.711862    3.467142
    133          1           0       13.182486   -0.828897    3.034805
    134          1           0       10.749949    0.448617    2.985246
    135          1           0       12.345268    2.568796    3.658611
    136          1           0       11.831098    2.060334    5.257770
    137          1           0       10.652958    2.425455    3.991664
    138          1           0       11.970299   -0.531143    5.451201
    139          1           0       11.125461   -1.489059    4.153180
    140          1           0       10.333285   -0.180933    5.203533
 ---------------------------------------------------------------------

 SCF Done:  E(RwB97XD) =  -3007.85368735     A.U. after   19 cycles

 Excitation energies and oscillator strengths:

 Excited State   1:      Singlet-A      1.5659 eV  791.80 nm  f=0.3891  <S**2>=0.000
     245 -> 248       -0.18376
     246 -> 247        0.68444
     245 <- 248       -0.11961
 This state for optimization and/or second-order correction.
 Total Energy, E(TD-HF/TD-DFT) =  -3007.79614309
 Copying the excited state density for this state as the 1-particle RhoCI density.

 Excited State   2:      Singlet-A      2.0791 eV  596.34 nm  f=0.1499  <S**2>=0.000
     245 -> 247        0.65178
     246 -> 248        0.25820

 Excited State   3:      Singlet-A      3.1770 eV  390.26 nm  f=0.0004  <S**2>=0.000
     244 -> 247        0.56348
     244 -> 248        0.16698
     244 -> 249        0.24021
     244 -> 250        0.26825

 Excited State   4:      Singlet-A      3.2380 eV  382.90 nm  f=0.0036  <S**2>=0.000
     241 -> 247       -0.24645
     243 -> 247        0.63135

 Excited State   5:      Singlet-A      3.4082 eV  363.78 nm  f=0.0207  <S**2>=0.000
     241 -> 247        0.59747
     243 -> 247        0.19083
     246 -> 248       -0.28535

 The electronic state is 1-A.
 Alpha  occ. eigenvalues --  -46.95580 -19.30944 -19.29745 -19.25191 -19.25000
 Alpha  occ. eigenvalues --  -19.24868 -19.21028 -14.46975 -14.46738 -14.44666
 Alpha  occ. eigenvalues --  -14.44225 -10.44194 -10.43656 -10.40292 -10.36794
 Alpha  occ. eigenvalues --  -10.36673 -10.36251 -10.35943 -10.35223 -10.34814
 Alpha  occ. eigenvalues --  -10.34805 -10.34197 -10.33971 -10.33730 -10.33280
 Alpha  occ. eigenvalues --  -10.33173 -10.33140 -10.33131 -10.33122 -10.33057
 Alpha  occ. eigenvalues --  -10.32965 -10.32349 -10.32296 -10.32171 -10.32090
 Alpha  occ. eigenvalues --  -10.32038 -10.31397 -10.31310 -10.31103 -10.30977
 Alpha  occ. eigenvalues --  -10.30397 -10.30332 -10.30138 -10.30134 -10.30106
 Alpha  occ. eigenvalues --  -10.30016 -10.29947 -10.29825 -10.29789 -10.29697
 Alpha  occ. eigenvalues --  -10.29668 -10.29639 -10.29418 -10.29384 -10.29341
 Alpha  occ. eigenvalues --  -10.29305 -10.29110 -10.28973 -10.28637 -10.28355
 Alpha  occ. eigenvalues --  -10.28342 -10.28321 -10.28296 -10.28245 -10.28125
 Alpha  occ. eigenvalues --  -10.27993  -3.21398  -1.94983  -1.94502  -1.94370
 Alpha  occ. eigenvalues --   -1.20348  -1.16125  -1.12080  -1.10747  -1.08793
 Alpha  occ. eigenvalues --   -1.08437  -1.05347  -1.04520  -1.02914  -1.01914
 Alpha  occ. eigenvalues --   -0.94301  -0.92968  -0.92283  -0.92001  -0.90947
 Alpha  occ. eigenvalues --   -0.90146  -0.89772  -0.89127  -0.88858  -0.88669
 Alpha  occ. eigenvalues --   -0.88047  -0.87605  -0.86493  -0.85419  -0.85007
 Alpha  occ. eigenvalues --   -0.84730  -0.83824  -0.83387  -0.82396  -0.81750
 Alpha  occ. eigenvalues --   -0.81671  -0.80202  -0.79705  -0.78491  -0.78083
 Alpha  occ. eigenvalues --   -0.77652  -0.77541  -0.76942  -0.76667  -0.76105
 Alpha  occ. eigenvalues --   -0.75978  -0.74578  -0.73527  -0.72586  -0.71061
 Alpha  occ. eigenvalues --   -0.70587  -0.70262  -0.69431  -0.68937  -0.67923
 Alpha  occ. eigenvalues --   -0.67022  -0.67014  -0.66235  -0.65860  -0.65825
 Alpha  occ. eigenvalues --   -0.65716  -0.65322  -0.64831  -0.63267  -0.62175
 Alpha  occ. eigenvalues --   -0.61417  -0.61175  -0.60842  -0.60079  -0.59976
 Alpha  occ. eigenvalues --   -0.59161  -0.58704  -0.58274  -0.57511  -0.57317
 Alpha  occ. eigenvalues --   -0.56776  -0.56474  -0.56364  -0.55971  -0.55894
 Alpha  occ. eigenvalues --   -0.55463  -0.55210  -0.55135  -0.55002  -0.54691
 Alpha  occ. eigenvalues --   -0.54599  -0.54404  -0.54293  -0.54206  -0.53840
 Alpha  occ. eigenvalues --   -0.53716  -0.53501  -0.53352  -0.53055  -0.52687
 Alpha  occ. eigenvalues --   -0.52447  -0.52160  -0.52030  -0.51585  -0.51558
 Alpha  occ. eigenvalues --   -0.51330  -0.51124  -0.51011  -0.50685  -0.50320
 Alpha  occ. eigenvalues --   -0.50247  -0.49976  -0.49873  -0.49804  -0.49628
 Alpha  occ. eigenvalues --   -0.49506  -0.49372  -0.49151  -0.48609  -0.48456
 Alpha  occ. eigenvalues --   -0.48388  -0.48297  -0.48233  -0.47673  -0.47659
 Alpha  occ. eigenvalues --   -0.47488  -0.47406  -0.47038  -0.46711  -0.46565
 Alpha  occ. eigenvalues --   -0.46415  -0.46182  -0.45962  -0.45942  -0.45843
 Alpha  occ. eigenvalues --   -0.45405  -0.45040  -0.45022  -0.44839  -0.44728
 Alpha  occ. eigenvalues --   -0.44476  -0.44156  -0.44084  -0.43885  -0.43844
 Alpha  occ. eigenvalues --   -0.43634  -0.43536  -0.43093  -0.42928  -0.42806
 Alpha  occ. eigenvalues --   -0.42678  -0.42465  -0.42337  -0.42165  -0.42046
 Alpha  occ. eigenvalues --   -0.41828  -0.41768  -0.41696  -0.41507  -0.40877
 Alpha  occ. eigenvalues --   -0.40839  -0.40503  -0.40481  -0.39829  -0.39380
 Alpha  occ. eigenvalues --   -0.39321  -0.39139  -0.38752  -0.38507  -0.38213
 Alpha  occ. eigenvalues --   -0.37543  -0.37182  -0.36847  -0.36491  -0.36258
 Alpha  occ. eigenvalues --   -0.35887  -0.35473  -0.34877  -0.33792  -0.33423
 Alpha  occ. eigenvalues --   -0.32337  -0.32170  -0.31175  -0.30826  -0.25882
 Alpha  occ. eigenvalues --   -0.23094
 Alpha virt. eigenvalues --   -0.07657   0.00138   0.01694   0.04118   0.05332
 Alpha virt. eigenvalues --    0.06230   0.06801   0.07740   0.08151   0.09886
 Alpha virt. eigenvalues --    0.10069   0.10499   0.11572   0.12497   0.12594

 Mulliken charges:
               1
     1  Mg   0.947144
     2  C   -0.032766
     3  C   -0.062123
     4  C   -0.063280
     5  C   -0.090205
     6  N   -0.322206
     7  C   -0.023408
     8  C   -0.065630
     9  C   -0.076013
    10  C   -0.005452
    11  C    0.044648
    12  C    0.021384
    13  C    0.003521
    14  C    0.210691
    15  O   -0.265765
    16  O   -0.357393
    17  N   -0.475512
    18  C    0.169314
    19  C   -0.161895
    20  C   -0.022347
    21  C    0.166366
    22  C    0.091933
    23  C   -0.038958
    24  O   -0.291314
    25  C    0.013042
    26  N   -0.420062
    27  C    0.069361
    28  C   -0.073226
    29  C   -0.076497
    30  C    0.126077
    31  C    0.014443
    32  C   -0.039477
    33  C   -0.064891
    34  N   -0.447497
    35  C    0.113675
    36  C   -0.216078
    37  C   -0.033607
    38  C    0.159943
    39  C    0.073401
    40  C    0.149150
    41  O   -0.205161
    42  C   -0.076995
    43  C    0.300721
    44  O   -0.279890
    45  O   -0.376209
    46  C    0.133800
    47  C    0.228040
    48  C   -0.170774
    49  C   -0.208164
    50  C    0.041674
    51  C    0.049581
    52  C   -0.013133
    53  C    0.037455
    54  C   -0.217588
    55  C   -0.003123
    56  C    0.037456
    57  C   -0.062665
    58  C    0.025029
    59  C   -0.182995
    60  C   -0.020144
    61  C    0.024997
    62  C   -0.044197
    63  C    0.031372
    64  C   -0.226346
    65  C   -0.002922
    66  C   -0.004535
    67  H   -0.013748
    68  H    0.021222
    69  H    0.011347
    70  H    0.069352
    71  H    0.031934
    72  H    0.058266
    73  H    0.038115
    74  H    0.037338
    75  H    0.042761
    76  H    0.046386
    77  H    0.042275
    78  H    0.067455
    79  H    0.043348
    80  H    0.044936
    81  H    0.049388
    82  H    0.062176
    83  H    0.028836
    84  H    0.045651
    85  H    0.051900
    86  H    0.048682
    87  H    0.055578
    88  H    0.034423
    89  H    0.039137
    90  H    0.031587
    91  H    0.038796
    92  H    0.046231
    93  H    0.030823
    94  H    0.049060
    95  H    0.064575
    96  H    0.036141
    97  H    0.071482
    98  H    0.059095
    99  H    0.057289
   100  H    0.061272
   101  H    0.042049
   102  H    0.081697
   103  H    0.058887
   104  H    0.032211
   105  H    0.025451
   106  H    0.060504
   107  H    0.045173
   108  H    0.009335
   109  H    0.008123
   110  H    0.027769
   111  H    0.016644
   112  H    0.018246
   113  H    0.023257
   114  H    0.025032
   115  H    0.028376
   116  H    0.027999
   117  H    0.023103
   118  H    0.013974
   119  H    0.008915
   120  H    0.024813
   121  H    0.016173
   122  H    0.025942
   123  H    0.031075
   124  H    0.017400
   125  H    0.014227
   126  H    0.025528
   127  H    0.032034
   128  H    0.007143
   129  H    0.016001
   130  H    0.012517
   131  H    0.022495
   132  H    0.022235
   133  H    0.006244
   134  H    0.021414
   135  H    0.022470
   136  H    0.030348
   137  H    0.021497
   138  H    0.019331
   139  H    0.041404
   140  H    0.026080
 Sum of Mulliken charges =  -0.00000

 Dipole moment (field-independent basis, Debye):
    X=              4.6393    Y=              2.1031    Z=             -3.8724  Tot=              6.3985
 Quadrupole moment (field-independent basis, Debye-Ang):
   XX=           -368.0483   YY=           -428.8056   ZZ=           -403.9883
   XY=             28.9320   XZ=             15.8193   YZ=              6.4875

 Normal termination of Gaussian 16 at Sat Apr 30 05:32:46 2022.
