 Gaussian 16, Revision A.03,
 Gaussian 16:  ES64L-G16RevA.03 25-Dec-2016

 --------------------
 #p ZINDO=(nstates=5)
 --------------------

 -----------------------------
 step_601_chromophore_19 ZINDO
 -----------------------------
 Symbolic Z-matrix:
 Charge =  0 Multiplicity = 1

                         Standard orientation:
 ---------------------------------------------------------------------
 Center     Atomic      Atomic             Coordinates (Angstroms)
 Number     Number       Type             X           Y           Z
 ---------------------------------------------------------------------
      1         12           0       -5.880461    0.325918   -0.340729
      2          6           0       -3.412525   -2.196939   -0.401604
      3          6           0       -3.286268    2.592675    0.121448
      4          6           0       -8.239818    2.744253    0.199689
      5          6           0       -8.403790   -2.163433   -0.531111
      6          7           0       -3.564921    0.217800   -0.073631
      7          6           0       -2.790497   -0.922433   -0.331086
      8          6           0       -1.237432   -0.526235   -0.317989
      9          6           0       -1.320168    1.012111    0.079083
     10          6           0       -2.790467    1.316339    0.058885
     11          6           0       -0.636456    1.473645    1.380186
     12          6           0       -0.552905   -0.994004   -1.630272
     13          6           0        0.683412   -1.858842   -1.495066
     14          6           0        1.655446   -1.450239   -0.347030
     15          8           0        1.660953   -1.936338    0.767852
     16          8           0        2.469184   -0.422848   -0.642551
     17          7           0       -5.785797    2.395731    0.089678
     18          6           0       -4.601770    3.167226    0.142487
     19          6           0       -4.924494    4.537763    0.226228
     20          6           0       -6.380017    4.653025    0.295111
     21          6           0       -6.892988    3.232378    0.226140
     22          6           0       -3.837975    5.677550    0.148162
     23          6           0       -7.179214    5.778972    0.493649
     24          8           0       -8.435358    5.779034    0.525678
     25          6           0       -6.621166    7.112826    0.547722
     26          7           0       -7.990971    0.314691   -0.060945
     27          6           0       -8.770232    1.479851    0.093243
     28          6           0      -10.291293    1.149305    0.036343
     29          6           0      -10.390054   -0.459259   -0.133304
     30          6           0       -8.828105   -0.800623   -0.335654
     31          6           0      -11.100630    1.734887    1.237909
     32          6           0      -11.444336   -1.015177   -1.243915
     33          6           0      -12.882141   -1.286773   -0.654596
     34          7           0       -5.933136   -1.755815   -0.303868
     35          6           0       -7.023142   -2.625289   -0.435202
     36          6           0       -6.489273   -4.012434   -0.291188
     37          6           0       -5.067913   -3.925593   -0.271284
     38          6           0       -4.804905   -2.512658   -0.338107
     39          6           0       -7.306643   -5.225871   -0.159919
     40          6           0       -3.809615   -4.674527   -0.183064
     41          8           0       -3.583200   -5.877206   -0.026062
     42          6           0       -2.695796   -3.565883   -0.275784
     43          6           0       -1.879437   -3.687347    0.971608
     44          8           0       -2.319995   -3.375256    2.112333
     45          8           0       -0.612154   -4.277174    0.704253
     46          6           0        0.174562   -4.582823    1.861561
     47          6           0        3.516844   -0.010761    0.285426
     48          6           0        4.822663   -0.310064   -0.465589
     49          6           0        6.046754   -0.461875    0.065475
     50          6           0        6.312380   -0.245627    1.524683
     51          6           0        7.283832   -0.679399   -0.763232
     52          6           0        8.326509    0.406099   -1.121018
     53          6           0        8.231407    1.024925   -2.514759
     54          6           0        9.695066    1.480627   -2.873968
     55          6           0        9.605476    2.607880   -3.956522
     56          6           0       10.610669    0.378176   -3.464315
     57          6           0       12.060819    0.617114   -2.908456
     58          6           0       12.434204   -0.373305   -1.683262
     59          6           0       13.490181    0.328960   -0.872999
     60          6           0       14.899642    0.278403   -1.502912
     61          6           0       13.502325   -0.298374    0.544565
     62          6           0       13.095218    0.747830    1.598797
     63          6           0       13.042510    0.249722    2.957949
     64          6           0       11.615030    0.524414    3.643184
     65          6           0       11.617305    1.959788    4.194525
     66          6           0       11.214791   -0.530557    4.665905
     67          1           0       -2.470314    3.304338   -0.019152
     68          1           0       -9.021935    3.499321    0.308680
     69          1           0       -9.067406   -3.003350   -0.746563
     70          1           0       -0.867762   -1.087737    0.539786
     71          1           0       -0.969662    1.574789   -0.786353
     72          1           0       -1.388234    1.846418    2.077065
     73          1           0        0.235531    2.108160    1.220576
     74          1           0       -0.194913    0.567536    1.795195
     75          1           0       -0.170945   -0.171195   -2.234059
     76          1           0       -1.226590   -1.618869   -2.218122
     77          1           0        1.178672   -1.662542   -2.446063
     78          1           0        0.400450   -2.911766   -1.508061
     79          1           0       -2.829027    5.296676   -0.010030
     80          1           0       -3.877335    6.187609    1.110487
     81          1           0       -4.154384    6.426999   -0.576703
     82          1           0       -6.217307    7.417582   -0.416991
     83          1           0       -5.901968    7.089049    1.366452
     84          1           0       -7.389411    7.813688    0.874930
     85          1           0      -10.590265    1.659181   -0.880122
     86          1           0      -10.638401   -1.038231    0.755776
     87          1           0      -10.453339    2.261819    1.940359
     88          1           0      -11.648959    0.944780    1.750843
     89          1           0      -11.821800    2.462705    0.865792
     90          1           0      -11.081922   -1.974025   -1.611790
     91          1           0      -11.514737   -0.328815   -2.088677
     92          1           0      -13.457060   -0.362963   -0.724151
     93          1           0      -12.955114   -1.489562    0.413762
     94          1           0      -13.192016   -2.186512   -1.185753
     95          1           0       -7.378756   -5.725519   -1.125897
     96          1           0       -8.293127   -4.946765    0.210746
     97          1           0       -6.740559   -5.810328    0.565963
     98          1           0       -2.088348   -3.704757   -1.170261
     99          1           0       -0.406382   -4.860144    2.741935
    100          1           0        0.793284   -3.704617    2.045005
    101          1           0        0.829330   -5.405369    1.573976
    102          1           0        3.343095   -0.532706    1.225448
    103          1           0        3.549553    1.078161    0.324478
    104          1           0        4.605557   -0.679283   -1.467490
    105          1           0        7.298676    0.208364    1.612016
    106          1           0        6.444175   -1.215429    2.003580
    107          1           0        5.540378    0.460772    1.831760
    108          1           0        7.030427   -1.141483   -1.717085
    109          1           0        7.711626   -1.485800   -0.168459
    110          1           0        9.307062    0.060587   -0.793253
    111          1           0        8.127240    1.230120   -0.436180
    112          1           0        7.714228    1.983589   -2.482922
    113          1           0        7.803539    0.454019   -3.338064
    114          1           0       10.136591    1.843648   -1.945711
    115          1           0        9.058489    3.503226   -3.662572
    116          1           0        9.134087    2.139696   -4.821195
    117          1           0       10.585615    2.992841   -4.238238
    118          1           0       10.632885    0.354969   -4.554808
    119          1           0       10.243625   -0.612146   -3.195770
    120          1           0       12.245549    1.680806   -2.757426
    121          1           0       12.759725    0.352545   -3.701571
    122          1           0       12.988563   -1.201190   -2.125952
    123          1           0       11.574036   -0.691924   -1.095214
    124          1           0       13.367575    1.410253   -0.806562
    125          1           0       14.855151    0.382107   -2.587032
    126          1           0       15.435406   -0.665738   -1.398607
    127          1           0       15.523386    1.089780   -1.129401
    128          1           0       14.536661   -0.568645    0.756809
    129          1           0       12.862276   -1.177178    0.632942
    130          1           0       12.083220    1.033575    1.312374
    131          1           0       13.773385    1.597862    1.529918
    132          1           0       13.888517    0.711862    3.467142
    133          1           0       13.182486   -0.828897    3.034805
    134          1           0       10.749949    0.448617    2.985246
    135          1           0       12.345268    2.568796    3.658611
    136          1           0       11.831098    2.060334    5.257770
    137          1           0       10.652958    2.425455    3.991664
    138          1           0       11.970299   -0.531143    5.451201
    139          1           0       11.125461   -1.489059    4.153180
    140          1           0       10.333285   -0.180933    5.203533
 ---------------------------------------------------------------------

 SCF Done:  E(RZINDO/S) =  -473.778120724     A.U. after   20 cycles

 Excitation energies and oscillator strengths:

 Excited State   1:      Singlet-A      1.1951 eV 1037.43 nm  f=0.6260  <S**2>=0.000
     175 ->178         0.18018
     176 ->177         0.66454
 This state for optimization and/or second-order correction.
 Total Energy, E(CIS/TDA) =  -473.734201113
 Copying the excited state density for this state as the 1-particle RhoCI density.

 Excited State   2:      Singlet-A      1.8666 eV  664.21 nm  f=0.0945  <S**2>=0.000
     175 ->177         0.57270
     176 ->178        -0.37550

 Excited State   3:      Singlet-A      2.7171 eV  456.32 nm  f=0.0003  <S**2>=0.000
     171 ->177         0.36001
     171 ->179         0.28041
     171 ->180         0.36850
     171 ->182        -0.10029
     171 ->185        -0.16480
     171 ->189         0.22084
     171 ->203        -0.14941

 Excited State   4:      Singlet-A      2.9082 eV  426.32 nm  f=0.5414  <S**2>=0.000
     175 ->177         0.25006
     176 ->178         0.47908
     176 ->179         0.39228

 Excited State   5:      Singlet-A      3.0008 eV  413.17 nm  f=0.2902  <S**2>=0.000
     168 ->177         0.27529
     168 ->178        -0.15508
     168 ->179        -0.31643
     168 ->180         0.12039
     168 ->185         0.13573
     175 ->177        -0.18427
     176 ->178        -0.23762
     176 ->179         0.28237
     176 ->180         0.13428

 The electronic state is 1-A.
 Alpha  occ. eigenvalues --   -1.80783  -1.76932  -1.75009  -1.73510  -1.69474
 Alpha  occ. eigenvalues --   -1.66570  -1.66000  -1.62043  -1.58594  -1.57596
 Alpha  occ. eigenvalues --   -1.56262  -1.53018  -1.49263  -1.48041  -1.44476
 Alpha  occ. eigenvalues --   -1.43521  -1.42082  -1.39295  -1.38202  -1.37793
 Alpha  occ. eigenvalues --   -1.35260  -1.34863  -1.34121  -1.31325  -1.27214
 Alpha  occ. eigenvalues --   -1.26774  -1.23245  -1.20792  -1.19531  -1.17256
 Alpha  occ. eigenvalues --   -1.16437  -1.16347  -1.14397  -1.14115  -1.13168
 Alpha  occ. eigenvalues --   -1.11341  -1.10484  -1.10217  -1.04212  -1.03894
 Alpha  occ. eigenvalues --   -1.02566  -1.00568  -0.98616  -0.97754  -0.96899
 Alpha  occ. eigenvalues --   -0.94878  -0.94082  -0.93059  -0.92309  -0.91736
 Alpha  occ. eigenvalues --   -0.90322  -0.89995  -0.88989  -0.88095  -0.87374
 Alpha  occ. eigenvalues --   -0.86103  -0.83968  -0.83530  -0.81560  -0.80116
 Alpha  occ. eigenvalues --   -0.79478  -0.78849  -0.76645  -0.76596  -0.75861
 Alpha  occ. eigenvalues --   -0.75775  -0.75431  -0.75010  -0.74346  -0.73196
 Alpha  occ. eigenvalues --   -0.72669  -0.72030  -0.71471  -0.71190  -0.70795
 Alpha  occ. eigenvalues --   -0.69892  -0.69457  -0.69047  -0.68703  -0.68361
 Alpha  occ. eigenvalues --   -0.67680  -0.66796  -0.66457  -0.66192  -0.66047
 Alpha  occ. eigenvalues --   -0.65452  -0.65180  -0.64931  -0.64582  -0.64376
 Alpha  occ. eigenvalues --   -0.63642  -0.63246  -0.62915  -0.62554  -0.61712
 Alpha  occ. eigenvalues --   -0.60973  -0.60820  -0.60478  -0.59908  -0.59752
 Alpha  occ. eigenvalues --   -0.59448  -0.59301  -0.58928  -0.58672  -0.58321
 Alpha  occ. eigenvalues --   -0.57599  -0.57310  -0.57154  -0.56605  -0.56543
 Alpha  occ. eigenvalues --   -0.56493  -0.56087  -0.55566  -0.55512  -0.55237
 Alpha  occ. eigenvalues --   -0.53595  -0.53522  -0.53379  -0.53190  -0.52505
 Alpha  occ. eigenvalues --   -0.52109  -0.51859  -0.51515  -0.51157  -0.51118
 Alpha  occ. eigenvalues --   -0.50674  -0.50622  -0.50575  -0.50370  -0.49913
 Alpha  occ. eigenvalues --   -0.49806  -0.49587  -0.49295  -0.49144  -0.48925
 Alpha  occ. eigenvalues --   -0.48832  -0.48598  -0.48390  -0.47843  -0.47776
 Alpha  occ. eigenvalues --   -0.47444  -0.47160  -0.46820  -0.46788  -0.46392
 Alpha  occ. eigenvalues --   -0.46069  -0.45996  -0.45802  -0.45689  -0.45447
 Alpha  occ. eigenvalues --   -0.45297  -0.45241  -0.44979  -0.44959  -0.44154
 Alpha  occ. eigenvalues --   -0.43588  -0.43269  -0.42746  -0.42729  -0.42350
 Alpha  occ. eigenvalues --   -0.41189  -0.41057  -0.40985  -0.38698  -0.38597
 Alpha  occ. eigenvalues --   -0.38210  -0.37376  -0.36366  -0.34278  -0.33238
 Alpha  occ. eigenvalues --   -0.32507  -0.32432  -0.32391  -0.31502  -0.26541
 Alpha  occ. eigenvalues --   -0.21827
 Alpha virt. eigenvalues --   -0.09070  -0.02097  -0.01078   0.00986   0.01964
 Alpha virt. eigenvalues --    0.01989   0.02094   0.03028   0.04500   0.04548
 Alpha virt. eigenvalues --    0.05933   0.07127   0.07202   0.07579   0.07783

 Mulliken charges:
               1
     1  Mg   0.431030
     2  C   -0.047840
     3  C   -0.065307
     4  C   -0.053764
     5  C   -0.082528
     6  N   -0.285317
     7  C    0.122842
     8  C    0.004923
     9  C    0.011550
    10  C    0.126431
    11  C   -0.048360
    12  C   -0.013414
    13  C    0.006694
    14  C    0.472435
    15  O   -0.527786
    16  O   -0.275554
    17  N   -0.331047
    18  C    0.079883
    19  C   -0.001280
    20  C   -0.062252
    21  C    0.142735
    22  C   -0.048213
    23  C    0.327597
    24  O   -0.585460
    25  C   -0.028609
    26  N   -0.292236
    27  C    0.127334
    28  C    0.008871
    29  C   -0.009649
    30  C    0.138233
    31  C   -0.049808
    32  C   -0.034390
    33  C   -0.063934
    34  N   -0.317396
    35  C    0.109077
    36  C    0.054914
    37  C   -0.054780
    38  C    0.129775
    39  C   -0.036310
    40  C    0.347080
    41  O   -0.507127
    42  C    0.059970
    43  C    0.484781
    44  O   -0.522837
    45  O   -0.269188
    46  C    0.075654
    47  C    0.098852
    48  C   -0.101236
    49  C    0.001529
    50  C   -0.048759
    51  C   -0.026908
    52  C   -0.022040
    53  C   -0.032416
    54  C   -0.017528
    55  C   -0.060535
    56  C   -0.035796
    57  C   -0.050521
    58  C   -0.031811
    59  C   -0.012087
    60  C   -0.058859
    61  C   -0.041003
    62  C   -0.028715
    63  C   -0.027276
    64  C   -0.018996
    65  C   -0.056636
    66  C   -0.058237
    67  H    0.015122
    68  H    0.042861
    69  H    0.038879
    70  H    0.050318
    71  H    0.023556
    72  H    0.036843
    73  H    0.025280
    74  H    0.022098
    75  H    0.027786
    76  H    0.025771
    77  H    0.025074
    78  H    0.045586
    79  H    0.031093
    80  H    0.026327
    81  H    0.030858
    82  H    0.041847
    83  H    0.026019
    84  H    0.031503
    85  H    0.037214
    86  H    0.040762
    87  H    0.032372
    88  H    0.019882
    89  H    0.021627
    90  H    0.019682
    91  H    0.027949
    92  H    0.026319
    93  H    0.020365
    94  H    0.027366
    95  H    0.041369
    96  H    0.027309
    97  H    0.043573
    98  H    0.047930
    99  H    0.051807
   100  H    0.049215
   101  H    0.027648
   102  H    0.071047
   103  H    0.045783
   104  H    0.031940
   105  H    0.016643
   106  H    0.043438
   107  H    0.033770
   108  H    0.010735
   109  H    0.016280
   110  H    0.028828
   111  H    0.011810
   112  H    0.017758
   113  H    0.031382
   114  H    0.024531
   115  H    0.014152
   116  H    0.020005
   117  H    0.012685
   118  H    0.019800
   119  H    0.013782
   120  H    0.030137
   121  H    0.008033
   122  H    0.025530
   123  H    0.031230
   124  H    0.021629
   125  H    0.009486
   126  H    0.017108
   127  H    0.016404
   128  H    0.013788
   129  H    0.024134
   130  H    0.013417
   131  H    0.019842
   132  H    0.021500
   133  H    0.012126
   134  H    0.020882
   135  H    0.013267
   136  H    0.022610
   137  H    0.011066
   138  H    0.013104
   139  H    0.025159
   140  H    0.017521
 Sum of Mulliken charges =  -0.00000

 Dipole moment (field-independent basis, Debye):
    X=              5.7285    Y=              0.6389    Z=             -6.1952  Tot=              8.4620
 N-N= 4.279850118378D+03 E-N= 0.000000000000D+00  KE=-9.233903219356D+03
 Leave Link  601 at Sat Apr 30 05:45:04 2022, MaxMem=  6710886400 cpu:               1.0 elap:               0.1
 (Enter /sw/apps/gaussian-16.0/g16/l9999.exe)
 1\1\GINC-BP1-COMPUTE103\SP\RZINDO CIS\STO-3G\C55H74Mg1N4O6\OF15641\30-
 Apr-2022\0\\#p ZINDO=(nstates=5)\\step_601_chromophore_19 ZINDO\\0,1\M
 g,0,25.673,50.996,26.065\C,0,23.553,51.964,28.716\C,0,28.005,50.131,28
 .493\C,0,27.937,50.49,23.55\C,0,23.28,52.2,23.736\N,0,25.818,51.112,28
 .391\C,0,24.733,51.373,29.24\C,0,25.161,51.082,30.757\C,0,26.695,50.70
 3,30.572\C,0,26.881,50.648,29.083\C,0,27.757,51.573,31.271\C,0,24.154,
 50.105,31.421\C,0,23.521,50.545,32.725\C,0,24.477,51.285,33.709\O,0,24

 Normal termination of Gaussian 16 at Sat Apr 30 05:45:04 2022.
