 Gaussian 16, Revision A.03,
 Gaussian 16:  ES64L-G16RevA.03 25-Dec-2016

 ------------------------------
 #p blyp/Def2SVP td=(nstates=5)
 ------------------------------

 --------------------------------------------------
 step_201_chromophore_23 TDDFT with blyp functional
 --------------------------------------------------
 Symbolic Z-matrix:
 Charge =  0 Multiplicity = 1

                         Standard orientation:
 ---------------------------------------------------------------------
 Center     Atomic      Atomic             Coordinates (Angstroms)
 Number     Number       Type             X           Y           Z
 ---------------------------------------------------------------------
      1         12           0        4.428765    0.921181   -0.501205
      2          6           0        3.646499   -2.464912   -0.537857
      3          6           0        1.545706    1.503083   -2.440363
      4          6           0        4.851433    4.092517    0.098379
      5          6           0        6.716713    0.223480    2.258705
      6          7           0        2.794047   -0.327318   -1.351624
      7          6           0        2.772062   -1.681547   -1.260644
      8          6           0        1.546070   -2.186847   -1.961492
      9          6           0        0.912992   -0.969841   -2.691196
     10          6           0        1.786101    0.143632   -2.128241
     11          6           0        0.945721   -1.041878   -4.265281
     12          6           0        0.528191   -2.871517   -1.004522
     13          6           0       -0.018361   -4.182783   -1.512108
     14          6           0       -1.452364   -4.024763   -1.940713
     15          8           0       -1.880217   -3.650438   -3.018085
     16          8           0       -2.291068   -4.359855   -0.888639
     17          7           0        3.438311    2.545324   -1.308827
     18          6           0        2.258168    2.628773   -1.918887
     19          6           0        1.926532    4.049554   -2.126455
     20          6           0        2.899882    4.845855   -1.490603
     21          6           0        3.798237    3.823021   -0.831286
     22          6           0        0.807203    4.415870   -3.092710
     23          6           0        2.832033    6.394766   -1.461890
     24          8           0        1.928866    7.043999   -1.957176
     25          6           0        3.860980    7.173106   -0.745923
     26          7           0        5.669292    1.982006    0.926422
     27          6           0        5.672322    3.337402    0.864909
     28          6           0        6.627683    3.985813    1.863040
     29          6           0        7.331433    2.753023    2.503664
     30          6           0        6.502846    1.553142    1.873065
     31          6           0        7.610703    4.994196    1.294416
     32          6           0        7.405204    2.780666    4.055300
     33          6           0        8.733078    2.511264    4.802771
     34          7           0        5.105700   -0.749924    0.615263
     35          6           0        6.055327   -0.895754    1.630761
     36          6           0        6.233266   -2.307941    1.933335
     37          6           0        5.331952   -2.922245    1.050710
     38          6           0        4.660907   -1.947149    0.277518
     39          6           0        7.085254   -2.883124    3.006934
     40          6           0        4.807313   -4.217432    0.792673
     41          8           0        5.038082   -5.324623    1.276349
     42          6           0        3.640342   -3.937109   -0.253865
     43          6           0        4.077747   -4.737541   -1.489329
     44          8           0        5.191139   -4.661647   -1.949768
     45          8           0        3.040685   -5.603415   -1.877129
     46          6           0        3.236705   -6.418387   -3.105416
     47          6           0       -3.708034   -4.467203   -1.204799
     48          6           0       -4.611676   -4.814582   -0.011980
     49          6           0       -4.926993   -4.078767    1.089797
     50          6           0       -4.576152   -2.637030    1.256402
     51          6           0       -5.853001   -4.602367    2.223555
     52          6           0       -7.348789   -4.709078    1.870344
     53          6           0       -8.232719   -3.819072    2.659203
     54          6           0       -8.774368   -2.669609    1.784927
     55          6           0      -10.136692   -3.068540    1.166737
     56          6           0       -8.883783   -1.358425    2.620471
     57          6           0       -9.027133   -0.069224    1.758949
     58          6           0       -7.967636    1.012070    1.922944
     59          6           0       -7.570255    1.791157    0.599819
     60          6           0       -6.180625    1.381699    0.052785
     61          6           0       -7.564962    3.304552    0.789720
     62          6           0       -8.948987    3.906978    0.911343
     63          6           0       -9.339428    4.466248   -0.442759
     64          6           0       -9.663968    6.011525   -0.355655
     65          6           0      -11.177686    6.238851   -0.366476
     66          6           0       -8.917787    6.752213   -1.496366
     67          1           0        0.703279    1.653560   -3.117777
     68          1           0        4.984544    5.153548    0.320569
     69          1           0        7.410462    0.023103    3.076714
     70          1           0        1.834223   -2.906909   -2.727487
     71          1           0       -0.122721   -0.886604   -2.359753
     72          1           0       -0.010544   -1.415747   -4.633174
     73          1           0        1.543322   -1.897840   -4.576569
     74          1           0        1.355608   -0.161338   -4.759609
     75          1           0       -0.287572   -2.183393   -0.782298
     76          1           0        0.976803   -2.928950   -0.013182
     77          1           0        0.095505   -5.001580   -0.802365
     78          1           0        0.516698   -4.547790   -2.388395
     79          1           0        0.954773    3.833701   -4.001866
     80          1           0        0.817658    5.440004   -3.467306
     81          1           0       -0.184350    4.179944   -2.707365
     82          1           0        3.704185    8.236620   -0.925600
     83          1           0        4.781423    6.889310   -1.255630
     84          1           0        3.763158    6.979028    0.322303
     85          1           0        6.058695    4.583419    2.574215
     86          1           0        8.347119    2.607853    2.135761
     87          1           0        8.643865    4.647601    1.267131
     88          1           0        7.645813    5.940187    1.834228
     89          1           0        7.265621    5.279120    0.301279
     90          1           0        6.590044    2.250569    4.547260
     91          1           0        7.199573    3.787911    4.417401
     92          1           0        9.621339    2.393459    4.181632
     93          1           0        8.545948    1.666047    5.464882
     94          1           0        8.966985    3.213119    5.603717
     95          1           0        7.520428   -3.810240    2.634365
     96          1           0        6.333054   -3.091701    3.768388
     97          1           0        7.897831   -2.234698    3.335433
     98          1           0        2.664778   -4.325296    0.038792
     99          1           0        4.178381   -6.963436   -3.028201
    100          1           0        3.433738   -5.719884   -3.919529
    101          1           0        2.404708   -7.116301   -3.195022
    102          1           0       -3.804555   -5.341702   -1.849657
    103          1           0       -4.127022   -3.625733   -1.755556
    104          1           0       -5.085842   -5.788996   -0.123363
    105          1           0       -4.115469   -2.543502    2.240605
    106          1           0       -5.453183   -1.992448    1.305876
    107          1           0       -3.923670   -2.405738    0.413989
    108          1           0       -5.720924   -4.056727    3.157530
    109          1           0       -5.700769   -5.674778    2.341669
    110          1           0       -7.693275   -5.719930    2.089784
    111          1           0       -7.555474   -4.661372    0.800378
    112          1           0       -7.775056   -3.516250    3.600906
    113          1           0       -9.071493   -4.328141    3.134394
    114          1           0       -7.951723   -2.547474    1.080353
    115          1           0      -10.719938   -3.738586    1.797806
    116          1           0      -10.048147   -3.489747    0.165596
    117          1           0      -10.666037   -2.116231    1.145573
    118          1           0       -7.971299   -1.350912    3.217310
    119          1           0       -9.640404   -1.361894    3.404490
    120          1           0       -9.864555    0.507777    2.151057
    121          1           0       -9.248781   -0.224322    0.703404
    122          1           0       -7.076018    0.709047    2.470635
    123          1           0       -8.422265    1.749571    2.585946
    124          1           0       -8.221976    1.513069   -0.228481
    125          1           0       -6.287329    1.382767   -1.031414
    126          1           0       -5.876583    0.392644    0.393867
    127          1           0       -5.446550    2.147867    0.301115
    128          1           0       -6.908237    3.730676    0.030183
    129          1           0       -7.147876    3.530432    1.771216
    130          1           0       -9.078933    4.595526    1.745941
    131          1           0       -9.746123    3.196356    1.127992
    132          1           0      -10.170384    3.802177   -0.680553
    133          1           0       -8.531184    4.267053   -1.144996
    134          1           0       -9.334960    6.452798    0.584345
    135          1           0      -11.475328    6.398539    0.669639
    136          1           0      -11.594482    5.311250   -0.758341
    137          1           0      -11.483153    7.121358   -0.928671
    138          1           0       -8.219918    7.402014   -0.968052
    139          1           0       -9.683359    7.282756   -2.062795
    140          1           0       -8.319873    6.128703   -2.159403
 ---------------------------------------------------------------------

 SCF Done:  E(RB-LYP) =  -3007.36364060     A.U. after   22 cycles

 Excitation energies and oscillator strengths:

 Excited State   1:      Singlet-A      1.8375 eV  674.75 nm  f=0.2322  <S**2>=0.000
     244 -> 247        0.28969
     245 -> 247       -0.12927
     245 -> 248       -0.17017
     246 -> 247        0.61433
     246 <- 247       -0.13315
 This state for optimization and/or second-order correction.
 Total Energy, E(TD-HF/TD-DFT) =  -3007.29611443
 Copying the excited state density for this state as the 1-particle RhoCI density.

 Excited State   2:      Singlet-A      1.8884 eV  656.56 nm  f=0.0869  <S**2>=0.000
     244 -> 247        0.56313
     245 -> 247       -0.28037
     246 -> 247       -0.30566

 Excited State   3:      Singlet-A      1.9686 eV  629.82 nm  f=0.0031  <S**2>=0.000
     243 -> 247        0.70248

 Excited State   4:      Singlet-A      2.0988 eV  590.73 nm  f=0.0704  <S**2>=0.000
     244 -> 247        0.30209
     245 -> 247        0.56624
     246 -> 248        0.26020

 Excited State   5:      Singlet-A      2.3167 eV  535.17 nm  f=0.0003  <S**2>=0.000
     242 -> 247        0.70656

 The electronic state is 1-A.
 Alpha  occ. eigenvalues --  -46.27997 -18.82104 -18.81629 -18.77206 -18.77128
 Alpha  occ. eigenvalues --  -18.75753 -18.75260 -14.03337 -14.03330 -14.01883
 Alpha  occ. eigenvalues --  -14.00823 -10.03969 -10.03935 -10.00152  -9.98860
 Alpha  occ. eigenvalues --   -9.98139  -9.97676  -9.97181  -9.96542  -9.96444
 Alpha  occ. eigenvalues --   -9.96267  -9.96173  -9.95731  -9.95637  -9.94345
 Alpha  occ. eigenvalues --   -9.94219  -9.93983  -9.93713  -9.93667  -9.93494
 Alpha  occ. eigenvalues --   -9.93396  -9.93354  -9.93312  -9.93302  -9.93298
 Alpha  occ. eigenvalues --   -9.93296  -9.93137  -9.93119  -9.92919  -9.92914
 Alpha  occ. eigenvalues --   -9.92762  -9.92487  -9.92410  -9.92200  -9.92138
 Alpha  occ. eigenvalues --   -9.92101  -9.92082  -9.91987  -9.91964  -9.91877
 Alpha  occ. eigenvalues --   -9.91595  -9.91548  -9.91467  -9.91233  -9.91225
 Alpha  occ. eigenvalues --   -9.91013  -9.90998  -9.90843  -9.90567  -9.90506
 Alpha  occ. eigenvalues --   -9.90359  -9.90342  -9.90334  -9.90286  -9.90251
 Alpha  occ. eigenvalues --   -9.90153  -2.92528  -1.72953  -1.72450  -1.72197
 Alpha  occ. eigenvalues --   -0.97564  -0.96763  -0.92131  -0.90538  -0.90059
 Alpha  occ. eigenvalues --   -0.89869  -0.87105  -0.86637  -0.85853  -0.85236
 Alpha  occ. eigenvalues --   -0.75599  -0.73866  -0.73348  -0.73118  -0.72726
 Alpha  occ. eigenvalues --   -0.72117  -0.71900  -0.70892  -0.70734  -0.70244
 Alpha  occ. eigenvalues --   -0.69445  -0.69188  -0.68394  -0.67819  -0.67332
 Alpha  occ. eigenvalues --   -0.66513  -0.66350  -0.65542  -0.65071  -0.64962
 Alpha  occ. eigenvalues --   -0.64499  -0.62680  -0.62067  -0.61644  -0.60601
 Alpha  occ. eigenvalues --   -0.60376  -0.59937  -0.59856  -0.59580  -0.58606
 Alpha  occ. eigenvalues --   -0.58208  -0.57764  -0.56826  -0.55809  -0.54966
 Alpha  occ. eigenvalues --   -0.53735  -0.53702  -0.52814  -0.52106  -0.51990
 Alpha  occ. eigenvalues --   -0.51614  -0.51123  -0.51052  -0.50620  -0.50151
 Alpha  occ. eigenvalues --   -0.49763  -0.49310  -0.48562  -0.48426  -0.46424
 Alpha  occ. eigenvalues --   -0.46166  -0.46089  -0.45339  -0.45212  -0.44323
 Alpha  occ. eigenvalues --   -0.44099  -0.43724  -0.43195  -0.43000  -0.42181
 Alpha  occ. eigenvalues --   -0.42171  -0.41757  -0.41642  -0.41478  -0.41183
 Alpha  occ. eigenvalues --   -0.41015  -0.40812  -0.40630  -0.40485  -0.39978
 Alpha  occ. eigenvalues --   -0.39667  -0.39483  -0.39234  -0.39148  -0.38905
 Alpha  occ. eigenvalues --   -0.38882  -0.38721  -0.38638  -0.38606  -0.38266
 Alpha  occ. eigenvalues --   -0.37873  -0.37702  -0.37668  -0.37538  -0.37320
 Alpha  occ. eigenvalues --   -0.37268  -0.36910  -0.36706  -0.36605  -0.36556
 Alpha  occ. eigenvalues --   -0.36246  -0.36068  -0.35965  -0.35853  -0.35636
 Alpha  occ. eigenvalues --   -0.35400  -0.35188  -0.35042  -0.34941  -0.34712
 Alpha  occ. eigenvalues --   -0.34560  -0.34473  -0.34434  -0.34248  -0.34078
 Alpha  occ. eigenvalues --   -0.33992  -0.33910  -0.33676  -0.33372  -0.33156
 Alpha  occ. eigenvalues --   -0.32840  -0.32789  -0.32607  -0.32373  -0.32242
 Alpha  occ. eigenvalues --   -0.32145  -0.31895  -0.31714  -0.31600  -0.31574
 Alpha  occ. eigenvalues --   -0.31359  -0.31177  -0.31124  -0.30997  -0.30810
 Alpha  occ. eigenvalues --   -0.30677  -0.30623  -0.30549  -0.30027  -0.29931
 Alpha  occ. eigenvalues --   -0.29726  -0.29556  -0.29451  -0.29255  -0.29085
 Alpha  occ. eigenvalues --   -0.29000  -0.28219  -0.28009  -0.27671  -0.27615
 Alpha  occ. eigenvalues --   -0.27583  -0.27321  -0.26803  -0.26635  -0.26579
 Alpha  occ. eigenvalues --   -0.26112  -0.25975  -0.25184  -0.25127  -0.24981
 Alpha  occ. eigenvalues --   -0.24809  -0.24801  -0.23862  -0.23640  -0.23188
 Alpha  occ. eigenvalues --   -0.22925  -0.22852  -0.22211  -0.21862  -0.20883
 Alpha  occ. eigenvalues --   -0.20463  -0.20017  -0.18676  -0.18397  -0.17474
 Alpha  occ. eigenvalues --   -0.15852
 Alpha virt. eigenvalues --   -0.11505  -0.07027  -0.05930  -0.04380  -0.03289
 Alpha virt. eigenvalues --   -0.03052  -0.02604  -0.02284  -0.01228   0.00248
 Alpha virt. eigenvalues --    0.01537   0.01626   0.01859   0.02606   0.02770

 Mulliken charges:
               1
     1  Mg   0.703269
     2  C    0.023295
     3  C   -0.059504
     4  C   -0.029264
     5  C   -0.072516
     6  N   -0.187839
     7  C   -0.069133
     8  C    0.011683
     9  C    0.017812
    10  C   -0.008064
    11  C    0.122967
    12  C    0.109668
    13  C    0.206106
    14  C    0.038373
    15  O   -0.193592
    16  O   -0.279358
    17  N   -0.298087
    18  C    0.133403
    19  C   -0.131240
    20  C    0.002028
    21  C    0.128318
    22  C    0.172715
    23  C   -0.097119
    24  O   -0.145193
    25  C    0.164775
    26  N   -0.186239
    27  C   -0.002315
    28  C    0.023069
    29  C    0.073718
    30  C   -0.000104
    31  C    0.121220
    32  C    0.075845
    33  C    0.060146
    34  N   -0.239727
    35  C    0.087198
    36  C   -0.184110
    37  C    0.089846
    38  C    0.094154
    39  C    0.185891
    40  C   -0.043764
    41  O   -0.138659
    42  C    0.028679
    43  C    0.104462
    44  O   -0.158557
    45  O   -0.302587
    46  C    0.227407
    47  C    0.312811
    48  C   -0.124290
    49  C   -0.132387
    50  C    0.142048
    51  C    0.165484
    52  C    0.083479
    53  C    0.093078
    54  C   -0.078222
    55  C    0.137360
    56  C    0.084489
    57  C    0.087369
    58  C    0.106959
    59  C   -0.096904
    60  C    0.111766
    61  C    0.108629
    62  C    0.068178
    63  C    0.091031
    64  C   -0.111802
    65  C    0.117626
    66  C    0.109667
    67  H   -0.057078
    68  H   -0.089731
    69  H   -0.061627
    70  H   -0.026327
    71  H   -0.013556
    72  H    0.000982
    73  H   -0.028846
    74  H    0.004267
    75  H   -0.019469
    76  H   -0.019524
    77  H   -0.005662
    78  H   -0.008752
    79  H   -0.009008
    80  H    0.000967
    81  H   -0.002134
    82  H   -0.013840
    83  H    0.007440
    84  H    0.029191
    85  H   -0.015522
    86  H   -0.018085
    87  H   -0.012329
    88  H   -0.020097
    89  H   -0.011992
    90  H   -0.024022
    91  H   -0.029760
    92  H    0.000656
    93  H   -0.018409
    94  H   -0.021342
    95  H    0.013663
    96  H    0.018371
    97  H   -0.006447
    98  H   -0.014595
    99  H    0.014366
   100  H    0.009094
   101  H    0.031078
   102  H   -0.022675
   103  H    0.006549
   104  H   -0.036795
   105  H   -0.008374
   106  H    0.018967
   107  H   -0.002389
   108  H   -0.031335
   109  H   -0.026296
   110  H   -0.048283
   111  H   -0.030889
   112  H   -0.057307
   113  H   -0.055403
   114  H   -0.029391
   115  H   -0.016290
   116  H   -0.010218
   117  H   -0.019138
   118  H   -0.044133
   119  H   -0.037409
   120  H   -0.035471
   121  H   -0.019062
   122  H   -0.039234
   123  H   -0.046349
   124  H   -0.044576
   125  H   -0.021128
   126  H   -0.019269
   127  H   -0.017238
   128  H   -0.028299
   129  H   -0.042887
   130  H   -0.039084
   131  H   -0.045595
   132  H   -0.030041
   133  H   -0.028206
   134  H   -0.028762
   135  H   -0.019743
   136  H   -0.015291
   137  H   -0.016963
   138  H   -0.014288
   139  H   -0.020708
   140  H   -0.014363
 Sum of Mulliken charges =  -0.00000

 Dipole moment (field-independent basis, Debye):
    X=             -0.2353    Y=              1.5729    Z=              2.1730  Tot=              2.6928
 Quadrupole moment (field-independent basis, Debye-Ang):
   XX=           -381.4120   YY=           -428.6667   ZZ=           -395.3057
   XY=             43.8141   XZ=              1.6189   YZ=             24.6763

 Normal termination of Gaussian 16 at Fri Apr 29 09:07:53 2022.
