 Gaussian 16, Revision A.03,
 Gaussian 16:  ES64L-G16RevA.03 25-Dec-2016

 -----------------------------------
 #p cam-b3lyp/Def2SVP td=(nstates=5)
 -----------------------------------

 -------------------------------------------------------
 step_201_chromophore_23 TDDFT with cam-b3lyp functional
 -------------------------------------------------------
 Symbolic Z-matrix:
 Charge =  0 Multiplicity = 1

                         Standard orientation:
 ---------------------------------------------------------------------
 Center     Atomic      Atomic             Coordinates (Angstroms)
 Number     Number       Type             X           Y           Z
 ---------------------------------------------------------------------
      1         12           0        4.428765    0.921181   -0.501205
      2          6           0        3.646499   -2.464912   -0.537857
      3          6           0        1.545706    1.503083   -2.440363
      4          6           0        4.851433    4.092517    0.098379
      5          6           0        6.716713    0.223480    2.258705
      6          7           0        2.794047   -0.327318   -1.351624
      7          6           0        2.772062   -1.681547   -1.260644
      8          6           0        1.546070   -2.186847   -1.961492
      9          6           0        0.912992   -0.969841   -2.691196
     10          6           0        1.786101    0.143632   -2.128241
     11          6           0        0.945721   -1.041878   -4.265281
     12          6           0        0.528191   -2.871517   -1.004522
     13          6           0       -0.018361   -4.182783   -1.512108
     14          6           0       -1.452364   -4.024763   -1.940713
     15          8           0       -1.880217   -3.650438   -3.018085
     16          8           0       -2.291068   -4.359855   -0.888639
     17          7           0        3.438311    2.545324   -1.308827
     18          6           0        2.258168    2.628773   -1.918887
     19          6           0        1.926532    4.049554   -2.126455
     20          6           0        2.899882    4.845855   -1.490603
     21          6           0        3.798237    3.823021   -0.831286
     22          6           0        0.807203    4.415870   -3.092710
     23          6           0        2.832033    6.394766   -1.461890
     24          8           0        1.928866    7.043999   -1.957176
     25          6           0        3.860980    7.173106   -0.745923
     26          7           0        5.669292    1.982006    0.926422
     27          6           0        5.672322    3.337402    0.864909
     28          6           0        6.627683    3.985813    1.863040
     29          6           0        7.331433    2.753023    2.503664
     30          6           0        6.502846    1.553142    1.873065
     31          6           0        7.610703    4.994196    1.294416
     32          6           0        7.405204    2.780666    4.055300
     33          6           0        8.733078    2.511264    4.802771
     34          7           0        5.105700   -0.749924    0.615263
     35          6           0        6.055327   -0.895754    1.630761
     36          6           0        6.233266   -2.307941    1.933335
     37          6           0        5.331952   -2.922245    1.050710
     38          6           0        4.660907   -1.947149    0.277518
     39          6           0        7.085254   -2.883124    3.006934
     40          6           0        4.807313   -4.217432    0.792673
     41          8           0        5.038082   -5.324623    1.276349
     42          6           0        3.640342   -3.937109   -0.253865
     43          6           0        4.077747   -4.737541   -1.489329
     44          8           0        5.191139   -4.661647   -1.949768
     45          8           0        3.040685   -5.603415   -1.877129
     46          6           0        3.236705   -6.418387   -3.105416
     47          6           0       -3.708034   -4.467203   -1.204799
     48          6           0       -4.611676   -4.814582   -0.011980
     49          6           0       -4.926993   -4.078767    1.089797
     50          6           0       -4.576152   -2.637030    1.256402
     51          6           0       -5.853001   -4.602367    2.223555
     52          6           0       -7.348789   -4.709078    1.870344
     53          6           0       -8.232719   -3.819072    2.659203
     54          6           0       -8.774368   -2.669609    1.784927
     55          6           0      -10.136692   -3.068540    1.166737
     56          6           0       -8.883783   -1.358425    2.620471
     57          6           0       -9.027133   -0.069224    1.758949
     58          6           0       -7.967636    1.012070    1.922944
     59          6           0       -7.570255    1.791157    0.599819
     60          6           0       -6.180625    1.381699    0.052785
     61          6           0       -7.564962    3.304552    0.789720
     62          6           0       -8.948987    3.906978    0.911343
     63          6           0       -9.339428    4.466248   -0.442759
     64          6           0       -9.663968    6.011525   -0.355655
     65          6           0      -11.177686    6.238851   -0.366476
     66          6           0       -8.917787    6.752213   -1.496366
     67          1           0        0.703279    1.653560   -3.117777
     68          1           0        4.984544    5.153548    0.320569
     69          1           0        7.410462    0.023103    3.076714
     70          1           0        1.834223   -2.906909   -2.727487
     71          1           0       -0.122721   -0.886604   -2.359753
     72          1           0       -0.010544   -1.415747   -4.633174
     73          1           0        1.543322   -1.897840   -4.576569
     74          1           0        1.355608   -0.161338   -4.759609
     75          1           0       -0.287572   -2.183393   -0.782298
     76          1           0        0.976803   -2.928950   -0.013182
     77          1           0        0.095505   -5.001580   -0.802365
     78          1           0        0.516698   -4.547790   -2.388395
     79          1           0        0.954773    3.833701   -4.001866
     80          1           0        0.817658    5.440004   -3.467306
     81          1           0       -0.184350    4.179944   -2.707365
     82          1           0        3.704185    8.236620   -0.925600
     83          1           0        4.781423    6.889310   -1.255630
     84          1           0        3.763158    6.979028    0.322303
     85          1           0        6.058695    4.583419    2.574215
     86          1           0        8.347119    2.607853    2.135761
     87          1           0        8.643865    4.647601    1.267131
     88          1           0        7.645813    5.940187    1.834228
     89          1           0        7.265621    5.279120    0.301279
     90          1           0        6.590044    2.250569    4.547260
     91          1           0        7.199573    3.787911    4.417401
     92          1           0        9.621339    2.393459    4.181632
     93          1           0        8.545948    1.666047    5.464882
     94          1           0        8.966985    3.213119    5.603717
     95          1           0        7.520428   -3.810240    2.634365
     96          1           0        6.333054   -3.091701    3.768388
     97          1           0        7.897831   -2.234698    3.335433
     98          1           0        2.664778   -4.325296    0.038792
     99          1           0        4.178381   -6.963436   -3.028201
    100          1           0        3.433738   -5.719884   -3.919529
    101          1           0        2.404708   -7.116301   -3.195022
    102          1           0       -3.804555   -5.341702   -1.849657
    103          1           0       -4.127022   -3.625733   -1.755556
    104          1           0       -5.085842   -5.788996   -0.123363
    105          1           0       -4.115469   -2.543502    2.240605
    106          1           0       -5.453183   -1.992448    1.305876
    107          1           0       -3.923670   -2.405738    0.413989
    108          1           0       -5.720924   -4.056727    3.157530
    109          1           0       -5.700769   -5.674778    2.341669
    110          1           0       -7.693275   -5.719930    2.089784
    111          1           0       -7.555474   -4.661372    0.800378
    112          1           0       -7.775056   -3.516250    3.600906
    113          1           0       -9.071493   -4.328141    3.134394
    114          1           0       -7.951723   -2.547474    1.080353
    115          1           0      -10.719938   -3.738586    1.797806
    116          1           0      -10.048147   -3.489747    0.165596
    117          1           0      -10.666037   -2.116231    1.145573
    118          1           0       -7.971299   -1.350912    3.217310
    119          1           0       -9.640404   -1.361894    3.404490
    120          1           0       -9.864555    0.507777    2.151057
    121          1           0       -9.248781   -0.224322    0.703404
    122          1           0       -7.076018    0.709047    2.470635
    123          1           0       -8.422265    1.749571    2.585946
    124          1           0       -8.221976    1.513069   -0.228481
    125          1           0       -6.287329    1.382767   -1.031414
    126          1           0       -5.876583    0.392644    0.393867
    127          1           0       -5.446550    2.147867    0.301115
    128          1           0       -6.908237    3.730676    0.030183
    129          1           0       -7.147876    3.530432    1.771216
    130          1           0       -9.078933    4.595526    1.745941
    131          1           0       -9.746123    3.196356    1.127992
    132          1           0      -10.170384    3.802177   -0.680553
    133          1           0       -8.531184    4.267053   -1.144996
    134          1           0       -9.334960    6.452798    0.584345
    135          1           0      -11.475328    6.398539    0.669639
    136          1           0      -11.594482    5.311250   -0.758341
    137          1           0      -11.483153    7.121358   -0.928671
    138          1           0       -8.219918    7.402014   -0.968052
    139          1           0       -9.683359    7.282756   -2.062795
    140          1           0       -8.319873    6.128703   -2.159403
 ---------------------------------------------------------------------

 SCF Done:  E(RCAM-B3LYP) =  -3007.16422708     A.U. after   16 cycles

 Excitation energies and oscillator strengths:

 Excited State   1:      Singlet-A      1.7309 eV  716.30 nm  f=0.3832  <S**2>=0.000
     245 -> 248        0.17926
     246 -> 247        0.68573
     245 <- 248        0.10676
 This state for optimization and/or second-order correction.
 Total Energy, E(TD-HF/TD-DFT) =  -3007.10061815
 Copying the excited state density for this state as the 1-particle RhoCI density.

 Excited State   2:      Singlet-A      2.2975 eV  539.64 nm  f=0.0950  <S**2>=0.000
     245 -> 247        0.62593
     246 -> 248       -0.31695

 Excited State   3:      Singlet-A      3.4160 eV  362.95 nm  f=0.0482  <S**2>=0.000
     242 -> 247        0.24186
     242 -> 249        0.14060
     242 -> 251       -0.13328
     244 -> 247        0.55124
     246 -> 248       -0.24974

 Excited State   4:      Singlet-A      3.4977 eV  354.47 nm  f=0.3009  <S**2>=0.000
     241 -> 247        0.37565
     242 -> 247       -0.19890
     244 -> 247        0.30091
     245 -> 247        0.20140
     246 -> 248        0.40810

 Excited State   5:      Singlet-A      3.5422 eV  350.02 nm  f=0.1144  <S**2>=0.000
     241 -> 247        0.12857
     242 -> 247        0.50643
     242 -> 249        0.21053
     242 -> 251       -0.18224
     244 -> 247       -0.19150
     245 -> 247        0.11644
     246 -> 248        0.27030

 The electronic state is 1-A.
 Alpha  occ. eigenvalues --  -46.89628 -19.25037 -19.24467 -19.20288 -19.20134
 Alpha  occ. eigenvalues --  -19.19059 -19.18240 -14.42275 -14.42131 -14.40555
 Alpha  occ. eigenvalues --  -14.39150 -10.39391 -10.39272 -10.35407 -10.34081
 Alpha  occ. eigenvalues --  -10.32200 -10.31946 -10.31742 -10.31151 -10.30716
 Alpha  occ. eigenvalues --  -10.30693 -10.30674 -10.30293 -10.29701 -10.28425
 Alpha  occ. eigenvalues --  -10.28397 -10.28320 -10.27941 -10.27938 -10.27834
 Alpha  occ. eigenvalues --  -10.27730 -10.27707 -10.27504 -10.27444 -10.27269
 Alpha  occ. eigenvalues --  -10.27263 -10.27166 -10.27061 -10.27023 -10.27008
 Alpha  occ. eigenvalues --  -10.26651 -10.26166 -10.26082 -10.26065 -10.25871
 Alpha  occ. eigenvalues --  -10.25852 -10.25804 -10.25788 -10.25696 -10.25671
 Alpha  occ. eigenvalues --  -10.25459 -10.25329 -10.25171 -10.24919 -10.24818
 Alpha  occ. eigenvalues --  -10.24648 -10.24580 -10.24528 -10.24192 -10.24181
 Alpha  occ. eigenvalues --  -10.24099 -10.23942 -10.23935 -10.23931 -10.23831
 Alpha  occ. eigenvalues --  -10.23764  -3.18055  -1.92958  -1.92543  -1.92316
 Alpha  occ. eigenvalues --   -1.16027  -1.15297  -1.10651  -1.08665  -1.08041
 Alpha  occ. eigenvalues --   -1.07709  -1.04869  -1.04358  -1.03442  -1.02835
 Alpha  occ. eigenvalues --   -0.92660  -0.90729  -0.90151  -0.89930  -0.89455
 Alpha  occ. eigenvalues --   -0.88854  -0.88588  -0.87475  -0.87315  -0.86720
 Alpha  occ. eigenvalues --   -0.86215  -0.85585  -0.84694  -0.84045  -0.83525
 Alpha  occ. eigenvalues --   -0.82633  -0.82563  -0.81513  -0.80923  -0.80738
 Alpha  occ. eigenvalues --   -0.80270  -0.78318  -0.77610  -0.77280  -0.76027
 Alpha  occ. eigenvalues --   -0.75713  -0.75272  -0.75218  -0.74874  -0.73823
 Alpha  occ. eigenvalues --   -0.73236  -0.72752  -0.71754  -0.70631  -0.69585
 Alpha  occ. eigenvalues --   -0.68341  -0.68297  -0.67384  -0.66379  -0.66202
 Alpha  occ. eigenvalues --   -0.65797  -0.65232  -0.65150  -0.64651  -0.63931
 Alpha  occ. eigenvalues --   -0.63697  -0.63318  -0.62459  -0.62101  -0.60014
 Alpha  occ. eigenvalues --   -0.59791  -0.59588  -0.58739  -0.58621  -0.57785
 Alpha  occ. eigenvalues --   -0.57512  -0.57278  -0.56453  -0.56162  -0.55428
 Alpha  occ. eigenvalues --   -0.55152  -0.54751  -0.54578  -0.54386  -0.54068
 Alpha  occ. eigenvalues --   -0.53866  -0.53618  -0.53445  -0.53201  -0.52993
 Alpha  occ. eigenvalues --   -0.52512  -0.52298  -0.51775  -0.51691  -0.51560
 Alpha  occ. eigenvalues --   -0.51455  -0.51310  -0.51126  -0.51094  -0.50660
 Alpha  occ. eigenvalues --   -0.50299  -0.50249  -0.50068  -0.49879  -0.49595
 Alpha  occ. eigenvalues --   -0.49462  -0.49340  -0.49028  -0.48839  -0.48675
 Alpha  occ. eigenvalues --   -0.48577  -0.48353  -0.48226  -0.48024  -0.47874
 Alpha  occ. eigenvalues --   -0.47638  -0.47181  -0.47076  -0.46874  -0.46690
 Alpha  occ. eigenvalues --   -0.46600  -0.46435  -0.46354  -0.46032  -0.46007
 Alpha  occ. eigenvalues --   -0.45838  -0.45736  -0.45502  -0.45118  -0.45027
 Alpha  occ. eigenvalues --   -0.44713  -0.44431  -0.44331  -0.43975  -0.43911
 Alpha  occ. eigenvalues --   -0.43762  -0.43521  -0.43212  -0.43201  -0.42987
 Alpha  occ. eigenvalues --   -0.42955  -0.42709  -0.42570  -0.42404  -0.42300
 Alpha  occ. eigenvalues --   -0.42291  -0.41999  -0.41880  -0.41715  -0.41566
 Alpha  occ. eigenvalues --   -0.41042  -0.40854  -0.40709  -0.40656  -0.40365
 Alpha  occ. eigenvalues --   -0.40058  -0.39170  -0.39022  -0.38969  -0.38563
 Alpha  occ. eigenvalues --   -0.38413  -0.38174  -0.37684  -0.37445  -0.37359
 Alpha  occ. eigenvalues --   -0.37263  -0.36698  -0.36630  -0.36263  -0.36068
 Alpha  occ. eigenvalues --   -0.35551  -0.35453  -0.34771  -0.34351  -0.34110
 Alpha  occ. eigenvalues --   -0.33886  -0.33328  -0.32999  -0.31667  -0.31095
 Alpha  occ. eigenvalues --   -0.30377  -0.30249  -0.29673  -0.29589  -0.24357
 Alpha  occ. eigenvalues --   -0.21102
 Alpha virt. eigenvalues --   -0.08590  -0.01874   0.00614   0.01978   0.02640
 Alpha virt. eigenvalues --    0.04206   0.04976   0.05600   0.05733   0.06905
 Alpha virt. eigenvalues --    0.07786   0.08285   0.08632   0.08831   0.09217

 Mulliken charges:
               1
     1  Mg   0.833901
     2  C   -0.016704
     3  C   -0.074489
     4  C   -0.056446
     5  C   -0.071927
     6  N   -0.263419
     7  C   -0.018889
     8  C   -0.036394
     9  C   -0.034631
    10  C    0.016549
    11  C    0.064039
    12  C    0.047305
    13  C    0.133473
    14  C    0.120790
    15  O   -0.234291
    16  O   -0.342398
    17  N   -0.382091
    18  C    0.139771
    19  C   -0.134234
    20  C   -0.061113
    21  C    0.157242
    22  C    0.111587
    23  C   -0.013590
    24  O   -0.185289
    25  C    0.074216
    26  N   -0.260037
    27  C    0.022727
    28  C   -0.033754
    29  C    0.018989
    30  C    0.018050
    31  C    0.063414
    32  C    0.014313
    33  C   -0.002083
    34  N   -0.329333
    35  C    0.087478
    36  C   -0.176456
    37  C    0.003664
    38  C    0.137656
    39  C    0.134590
    40  C    0.053533
    41  O   -0.179616
    42  C   -0.042767
    43  C    0.198885
    44  O   -0.195428
    45  O   -0.369249
    46  C    0.185240
    47  C    0.277684
    48  C   -0.146803
    49  C   -0.149444
    50  C    0.089128
    51  C    0.102641
    52  C    0.024501
    53  C    0.038594
    54  C   -0.134672
    55  C    0.079815
    56  C    0.036414
    57  C    0.028106
    58  C    0.055359
    59  C   -0.146839
    60  C    0.058359
    61  C    0.045816
    62  C    0.014008
    63  C    0.039579
    64  C   -0.172013
    65  C    0.060298
    66  C    0.051690
    67  H   -0.020454
    68  H   -0.054005
    69  H   -0.025955
    70  H    0.005713
    71  H    0.021175
    72  H    0.027821
    73  H   -0.002986
    74  H    0.029221
    75  H    0.012520
    76  H    0.014451
    77  H    0.031240
    78  H    0.022980
    79  H    0.016789
    80  H    0.033576
    81  H    0.025462
    82  H    0.023827
    83  H    0.033546
    84  H    0.054784
    85  H    0.019134
    86  H    0.015341
    87  H    0.013894
    88  H    0.006088
    89  H    0.012045
    90  H    0.007376
    91  H   -0.000500
    92  H    0.023353
    93  H    0.005388
    94  H    0.004757
    95  H    0.040317
    96  H    0.044260
    97  H    0.017137
    98  H    0.027847
    99  H    0.039562
   100  H    0.031929
   101  H    0.053804
   102  H    0.007089
   103  H    0.034920
   104  H   -0.005745
   105  H    0.016126
   106  H    0.032917
   107  H    0.020489
   108  H   -0.001392
   109  H    0.006090
   110  H   -0.015335
   111  H   -0.001618
   112  H   -0.025810
   113  H   -0.024286
   114  H   -0.001729
   115  H    0.007885
   116  H    0.013735
   117  H    0.003737
   118  H   -0.016406
   119  H   -0.007898
   120  H   -0.006288
   121  H    0.007569
   122  H   -0.010888
   123  H   -0.016771
   124  H   -0.013853
   125  H    0.002960
   126  H    0.001006
   127  H    0.006988
   128  H    0.001005
   129  H   -0.012134
   130  H   -0.009550
   131  H   -0.017112
   132  H   -0.001963
   133  H   -0.002167
   134  H    0.002304
   135  H    0.003883
   136  H    0.007682
   137  H    0.007275
   138  H    0.009157
   139  H    0.002639
   140  H    0.009049
 Sum of Mulliken charges =  -0.00000

 Dipole moment (field-independent basis, Debye):
    X=             -0.2778    Y=              2.1226    Z=              2.0569  Tot=              2.9687
 Quadrupole moment (field-independent basis, Debye-Ang):
   XX=           -380.8419   YY=           -424.9042   ZZ=           -393.5957
   XY=             47.8608   XZ=              1.9447   YZ=             25.9329

 Normal termination of Gaussian 16 at Fri Apr 29 08:12:39 2022.
