 Gaussian 16, Revision A.03,
 Gaussian 16:  ES64L-G16RevA.03 25-Dec-2016

 ---------------------------------
 #p PBE1PBE/Def2SVP td=(nstates=5)
 ---------------------------------

 -----------------------------------------------------
 step_201_chromophore_23 TDDFT with PBE1PBE functional
 -----------------------------------------------------
 Symbolic Z-matrix:
 Charge =  0 Multiplicity = 1

                         Standard orientation:
 ---------------------------------------------------------------------
 Center     Atomic      Atomic             Coordinates (Angstroms)
 Number     Number       Type             X           Y           Z
 ---------------------------------------------------------------------
      1         12           0        4.428765    0.921181   -0.501205
      2          6           0        3.646499   -2.464912   -0.537857
      3          6           0        1.545706    1.503083   -2.440363
      4          6           0        4.851433    4.092517    0.098379
      5          6           0        6.716713    0.223480    2.258705
      6          7           0        2.794047   -0.327318   -1.351624
      7          6           0        2.772062   -1.681547   -1.260644
      8          6           0        1.546070   -2.186847   -1.961492
      9          6           0        0.912992   -0.969841   -2.691196
     10          6           0        1.786101    0.143632   -2.128241
     11          6           0        0.945721   -1.041878   -4.265281
     12          6           0        0.528191   -2.871517   -1.004522
     13          6           0       -0.018361   -4.182783   -1.512108
     14          6           0       -1.452364   -4.024763   -1.940713
     15          8           0       -1.880217   -3.650438   -3.018085
     16          8           0       -2.291068   -4.359855   -0.888639
     17          7           0        3.438311    2.545324   -1.308827
     18          6           0        2.258168    2.628773   -1.918887
     19          6           0        1.926532    4.049554   -2.126455
     20          6           0        2.899882    4.845855   -1.490603
     21          6           0        3.798237    3.823021   -0.831286
     22          6           0        0.807203    4.415870   -3.092710
     23          6           0        2.832033    6.394766   -1.461890
     24          8           0        1.928866    7.043999   -1.957176
     25          6           0        3.860980    7.173106   -0.745923
     26          7           0        5.669292    1.982006    0.926422
     27          6           0        5.672322    3.337402    0.864909
     28          6           0        6.627683    3.985813    1.863040
     29          6           0        7.331433    2.753023    2.503664
     30          6           0        6.502846    1.553142    1.873065
     31          6           0        7.610703    4.994196    1.294416
     32          6           0        7.405204    2.780666    4.055300
     33          6           0        8.733078    2.511264    4.802771
     34          7           0        5.105700   -0.749924    0.615263
     35          6           0        6.055327   -0.895754    1.630761
     36          6           0        6.233266   -2.307941    1.933335
     37          6           0        5.331952   -2.922245    1.050710
     38          6           0        4.660907   -1.947149    0.277518
     39          6           0        7.085254   -2.883124    3.006934
     40          6           0        4.807313   -4.217432    0.792673
     41          8           0        5.038082   -5.324623    1.276349
     42          6           0        3.640342   -3.937109   -0.253865
     43          6           0        4.077747   -4.737541   -1.489329
     44          8           0        5.191139   -4.661647   -1.949768
     45          8           0        3.040685   -5.603415   -1.877129
     46          6           0        3.236705   -6.418387   -3.105416
     47          6           0       -3.708034   -4.467203   -1.204799
     48          6           0       -4.611676   -4.814582   -0.011980
     49          6           0       -4.926993   -4.078767    1.089797
     50          6           0       -4.576152   -2.637030    1.256402
     51          6           0       -5.853001   -4.602367    2.223555
     52          6           0       -7.348789   -4.709078    1.870344
     53          6           0       -8.232719   -3.819072    2.659203
     54          6           0       -8.774368   -2.669609    1.784927
     55          6           0      -10.136692   -3.068540    1.166737
     56          6           0       -8.883783   -1.358425    2.620471
     57          6           0       -9.027133   -0.069224    1.758949
     58          6           0       -7.967636    1.012070    1.922944
     59          6           0       -7.570255    1.791157    0.599819
     60          6           0       -6.180625    1.381699    0.052785
     61          6           0       -7.564962    3.304552    0.789720
     62          6           0       -8.948987    3.906978    0.911343
     63          6           0       -9.339428    4.466248   -0.442759
     64          6           0       -9.663968    6.011525   -0.355655
     65          6           0      -11.177686    6.238851   -0.366476
     66          6           0       -8.917787    6.752213   -1.496366
     67          1           0        0.703279    1.653560   -3.117777
     68          1           0        4.984544    5.153548    0.320569
     69          1           0        7.410462    0.023103    3.076714
     70          1           0        1.834223   -2.906909   -2.727487
     71          1           0       -0.122721   -0.886604   -2.359753
     72          1           0       -0.010544   -1.415747   -4.633174
     73          1           0        1.543322   -1.897840   -4.576569
     74          1           0        1.355608   -0.161338   -4.759609
     75          1           0       -0.287572   -2.183393   -0.782298
     76          1           0        0.976803   -2.928950   -0.013182
     77          1           0        0.095505   -5.001580   -0.802365
     78          1           0        0.516698   -4.547790   -2.388395
     79          1           0        0.954773    3.833701   -4.001866
     80          1           0        0.817658    5.440004   -3.467306
     81          1           0       -0.184350    4.179944   -2.707365
     82          1           0        3.704185    8.236620   -0.925600
     83          1           0        4.781423    6.889310   -1.255630
     84          1           0        3.763158    6.979028    0.322303
     85          1           0        6.058695    4.583419    2.574215
     86          1           0        8.347119    2.607853    2.135761
     87          1           0        8.643865    4.647601    1.267131
     88          1           0        7.645813    5.940187    1.834228
     89          1           0        7.265621    5.279120    0.301279
     90          1           0        6.590044    2.250569    4.547260
     91          1           0        7.199573    3.787911    4.417401
     92          1           0        9.621339    2.393459    4.181632
     93          1           0        8.545948    1.666047    5.464882
     94          1           0        8.966985    3.213119    5.603717
     95          1           0        7.520428   -3.810240    2.634365
     96          1           0        6.333054   -3.091701    3.768388
     97          1           0        7.897831   -2.234698    3.335433
     98          1           0        2.664778   -4.325296    0.038792
     99          1           0        4.178381   -6.963436   -3.028201
    100          1           0        3.433738   -5.719884   -3.919529
    101          1           0        2.404708   -7.116301   -3.195022
    102          1           0       -3.804555   -5.341702   -1.849657
    103          1           0       -4.127022   -3.625733   -1.755556
    104          1           0       -5.085842   -5.788996   -0.123363
    105          1           0       -4.115469   -2.543502    2.240605
    106          1           0       -5.453183   -1.992448    1.305876
    107          1           0       -3.923670   -2.405738    0.413989
    108          1           0       -5.720924   -4.056727    3.157530
    109          1           0       -5.700769   -5.674778    2.341669
    110          1           0       -7.693275   -5.719930    2.089784
    111          1           0       -7.555474   -4.661372    0.800378
    112          1           0       -7.775056   -3.516250    3.600906
    113          1           0       -9.071493   -4.328141    3.134394
    114          1           0       -7.951723   -2.547474    1.080353
    115          1           0      -10.719938   -3.738586    1.797806
    116          1           0      -10.048147   -3.489747    0.165596
    117          1           0      -10.666037   -2.116231    1.145573
    118          1           0       -7.971299   -1.350912    3.217310
    119          1           0       -9.640404   -1.361894    3.404490
    120          1           0       -9.864555    0.507777    2.151057
    121          1           0       -9.248781   -0.224322    0.703404
    122          1           0       -7.076018    0.709047    2.470635
    123          1           0       -8.422265    1.749571    2.585946
    124          1           0       -8.221976    1.513069   -0.228481
    125          1           0       -6.287329    1.382767   -1.031414
    126          1           0       -5.876583    0.392644    0.393867
    127          1           0       -5.446550    2.147867    0.301115
    128          1           0       -6.908237    3.730676    0.030183
    129          1           0       -7.147876    3.530432    1.771216
    130          1           0       -9.078933    4.595526    1.745941
    131          1           0       -9.746123    3.196356    1.127992
    132          1           0      -10.170384    3.802177   -0.680553
    133          1           0       -8.531184    4.267053   -1.144996
    134          1           0       -9.334960    6.452798    0.584345
    135          1           0      -11.475328    6.398539    0.669639
    136          1           0      -11.594482    5.311250   -0.758341
    137          1           0      -11.483153    7.121358   -0.928671
    138          1           0       -8.219918    7.402014   -0.968052
    139          1           0       -9.683359    7.282756   -2.062795
    140          1           0       -8.319873    6.128703   -2.159403
 ---------------------------------------------------------------------

 SCF Done:  E(RPBE1PBE) =  -3005.35293178     A.U. after   15 cycles

 Excitation energies and oscillator strengths:

 Excited State   1:      Singlet-A      1.8914 eV  655.52 nm  f=0.3706  <S**2>=0.000
     245 -> 248       -0.17442
     246 -> 247        0.69228
     246 <- 247       -0.10966
 This state for optimization and/or second-order correction.
 Total Energy, E(TD-HF/TD-DFT) =  -3005.28342512
 Copying the excited state density for this state as the 1-particle RhoCI density.

 Excited State   2:      Singlet-A      2.3028 eV  538.42 nm  f=0.0973  <S**2>=0.000
     245 -> 247        0.63918
     246 -> 248        0.28815

 Excited State   3:      Singlet-A      2.9310 eV  423.01 nm  f=0.0003  <S**2>=0.000
     242 -> 247        0.16664
     243 -> 247        0.65220
     243 -> 249       -0.12348

 Excited State   4:      Singlet-A      3.1234 eV  396.96 nm  f=0.0018  <S**2>=0.000
     241 -> 247       -0.35350
     242 -> 247        0.57496
     243 -> 247       -0.14275

 Excited State   5:      Singlet-A      3.1535 eV  393.16 nm  f=0.0004  <S**2>=0.000
     241 -> 247        0.56504
     242 -> 247        0.34709
     243 -> 247       -0.10211
     246 -> 248       -0.12324

 The electronic state is 1-A.
 Alpha  occ. eigenvalues --  -46.92995 -19.25711 -19.25155 -19.20507 -19.20394
 Alpha  occ. eigenvalues --  -19.19200 -19.18593 -14.41698 -14.41685 -14.40105
 Alpha  occ. eigenvalues --  -14.38856 -10.36458 -10.36311 -10.32476 -10.31310
 Alpha  occ. eigenvalues --  -10.29560 -10.29413 -10.29138 -10.28769 -10.28538
 Alpha  occ. eigenvalues --  -10.28410 -10.28308 -10.27819 -10.27601 -10.26170
 Alpha  occ. eigenvalues --  -10.26132 -10.25994 -10.25710 -10.25557 -10.25524
 Alpha  occ. eigenvalues --  -10.25496 -10.25487 -10.25319 -10.25153 -10.25093
 Alpha  occ. eigenvalues --  -10.24878 -10.24825 -10.24682 -10.24566 -10.24555
 Alpha  occ. eigenvalues --  -10.24291 -10.23611 -10.23564 -10.23375 -10.23369
 Alpha  occ. eigenvalues --  -10.23359 -10.23357 -10.23313 -10.23296 -10.23055
 Alpha  occ. eigenvalues --  -10.23021 -10.22854 -10.22830 -10.22485 -10.22380
 Alpha  occ. eigenvalues --  -10.22183 -10.22083 -10.22035 -10.21963 -10.21750
 Alpha  occ. eigenvalues --  -10.21524 -10.21517 -10.21484 -10.21312 -10.21299
 Alpha  occ. eigenvalues --  -10.21222  -3.15005  -1.87847  -1.87412  -1.87187
 Alpha  occ. eigenvalues --   -1.10825  -1.10045  -1.05321  -1.03492  -1.02895
 Alpha  occ. eigenvalues --   -1.02579  -0.99475  -0.98961  -0.98133  -0.97481
 Alpha  occ. eigenvalues --   -0.87075  -0.84842  -0.84364  -0.84035  -0.83743
 Alpha  occ. eigenvalues --   -0.83125  -0.82723  -0.81831  -0.81430  -0.81082
 Alpha  occ. eigenvalues --   -0.80417  -0.79829  -0.78856  -0.78274  -0.77814
 Alpha  occ. eigenvalues --   -0.76797  -0.76754  -0.75779  -0.75157  -0.75064
 Alpha  occ. eigenvalues --   -0.74461  -0.72642  -0.71901  -0.71528  -0.70361
 Alpha  occ. eigenvalues --   -0.69877  -0.69610  -0.69306  -0.69005  -0.67992
 Alpha  occ. eigenvalues --   -0.67665  -0.67117  -0.66191  -0.64931  -0.63940
 Alpha  occ. eigenvalues --   -0.62800  -0.62519  -0.61792  -0.60596  -0.60573
 Alpha  occ. eigenvalues --   -0.60253  -0.59713  -0.59442  -0.59219  -0.58397
 Alpha  occ. eigenvalues --   -0.57899  -0.57478  -0.56680  -0.56630  -0.54585
 Alpha  occ. eigenvalues --   -0.54329  -0.54179  -0.53302  -0.53077  -0.52358
 Alpha  occ. eigenvalues --   -0.51984  -0.51711  -0.50990  -0.50577  -0.50020
 Alpha  occ. eigenvalues --   -0.49749  -0.49211  -0.49071  -0.48945  -0.48518
 Alpha  occ. eigenvalues --   -0.48347  -0.48111  -0.47759  -0.47690  -0.47602
 Alpha  occ. eigenvalues --   -0.47080  -0.46796  -0.46406  -0.46233  -0.46113
 Alpha  occ. eigenvalues --   -0.45993  -0.45819  -0.45724  -0.45579  -0.45173
 Alpha  occ. eigenvalues --   -0.44860  -0.44809  -0.44606  -0.44484  -0.44171
 Alpha  occ. eigenvalues --   -0.44093  -0.43912  -0.43633  -0.43470  -0.43316
 Alpha  occ. eigenvalues --   -0.43213  -0.43026  -0.42891  -0.42592  -0.42557
 Alpha  occ. eigenvalues --   -0.42253  -0.41920  -0.41724  -0.41490  -0.41360
 Alpha  occ. eigenvalues --   -0.41301  -0.41105  -0.41023  -0.40674  -0.40596
 Alpha  occ. eigenvalues --   -0.40469  -0.40371  -0.40228  -0.39854  -0.39722
 Alpha  occ. eigenvalues --   -0.39458  -0.39160  -0.39080  -0.38832  -0.38590
 Alpha  occ. eigenvalues --   -0.38454  -0.38268  -0.38047  -0.37978  -0.37799
 Alpha  occ. eigenvalues --   -0.37697  -0.37481  -0.37365  -0.37229  -0.37169
 Alpha  occ. eigenvalues --   -0.37078  -0.36783  -0.36678  -0.36533  -0.36354
 Alpha  occ. eigenvalues --   -0.35972  -0.35658  -0.35576  -0.35486  -0.35238
 Alpha  occ. eigenvalues --   -0.34803  -0.33974  -0.33903  -0.33770  -0.33510
 Alpha  occ. eigenvalues --   -0.33215  -0.32974  -0.32437  -0.32355  -0.32288
 Alpha  occ. eigenvalues --   -0.32263  -0.31580  -0.31539  -0.31217  -0.31060
 Alpha  occ. eigenvalues --   -0.30419  -0.30239  -0.29740  -0.29290  -0.29013
 Alpha  occ. eigenvalues --   -0.28944  -0.28520  -0.28256  -0.27250  -0.26064
 Alpha  occ. eigenvalues --   -0.25598  -0.25448  -0.25092  -0.24963  -0.21248
 Alpha  occ. eigenvalues --   -0.18758
 Alpha virt. eigenvalues --   -0.11076  -0.05359  -0.03614  -0.01805  -0.00767
 Alpha virt. eigenvalues --   -0.00239   0.00517   0.00918   0.01645   0.03112
 Alpha virt. eigenvalues --    0.04260   0.04680   0.04720   0.05421   0.05709

 Mulliken charges:
               1
     1  Mg   0.974429
     2  C   -0.030417
     3  C   -0.063411
     4  C   -0.057102
     5  C   -0.061080
     6  N   -0.372679
     7  C    0.058415
     8  C   -0.103125
     9  C   -0.109028
    10  C    0.055241
    11  C    0.008061
    12  C   -0.004616
    13  C    0.057283
    14  C    0.186016
    15  O   -0.267915
    16  O   -0.370318
    17  N   -0.492606
    18  C    0.161923
    19  C   -0.158096
    20  C   -0.098958
    21  C    0.177899
    22  C    0.051570
    23  C    0.039407
    24  O   -0.222316
    25  C   -0.008348
    26  N   -0.372455
    27  C    0.060987
    28  C   -0.111894
    29  C   -0.060006
    30  C    0.063761
    31  C    0.010153
    32  C   -0.044638
    33  C   -0.071801
    34  N   -0.460155
    35  C    0.111695
    36  C   -0.188355
    37  C   -0.051687
    38  C    0.205422
    39  C    0.079212
    40  C    0.146620
    41  O   -0.226123
    42  C   -0.159430
    43  C    0.295749
    44  O   -0.229194
    45  O   -0.401366
    46  C    0.129021
    47  C    0.230934
    48  C   -0.155891
    49  C   -0.189610
    50  C    0.017071
    51  C    0.039857
    52  C   -0.039309
    53  C   -0.007098
    54  C   -0.230662
    55  C    0.022544
    56  C   -0.014385
    57  C   -0.038247
    58  C    0.004608
    59  C   -0.226134
    60  C   -0.008007
    61  C   -0.022310
    62  C   -0.041072
    63  C   -0.013403
    64  C   -0.262971
    65  C    0.000840
    66  C   -0.008331
    67  H    0.010058
    68  H   -0.018212
    69  H    0.006988
    70  H    0.044928
    71  H    0.056689
    72  H    0.054983
    73  H    0.024500
    74  H    0.055537
    75  H    0.044880
    76  H    0.047410
    77  H    0.062384
    78  H    0.056655
    79  H    0.043733
    80  H    0.060778
    81  H    0.053264
    82  H    0.052251
    83  H    0.061228
    84  H    0.079909
    85  H    0.055247
    86  H    0.052748
    87  H    0.040368
    88  H    0.033562
    89  H    0.039568
    90  H    0.039171
    91  H    0.033388
    92  H    0.049661
    93  H    0.032623
    94  H    0.032435
    95  H    0.067880
    96  H    0.072866
    97  H    0.043611
    98  H    0.067242
    99  H    0.061353
   100  H    0.053801
   101  H    0.074534
   102  H    0.035243
   103  H    0.060420
   104  H    0.023380
   105  H    0.044785
   106  H    0.065362
   107  H    0.049892
   108  H    0.028711
   109  H    0.039301
   110  H    0.018236
   111  H    0.030493
   112  H    0.004882
   113  H    0.008369
   114  H    0.040090
   115  H    0.034266
   116  H    0.040750
   117  H    0.032944
   118  H    0.016110
   119  H    0.024096
   120  H    0.027324
   121  H    0.037734
   122  H    0.020194
   123  H    0.016852
   124  H    0.023993
   125  H    0.031342
   126  H    0.034434
   127  H    0.034739
   128  H    0.033271
   129  H    0.022502
   130  H    0.021275
   131  H    0.016617
   132  H    0.029271
   133  H    0.029535
   134  H    0.038870
   135  H    0.031844
   136  H    0.034885
   137  H    0.033923
   138  H    0.036710
   139  H    0.029682
   140  H    0.035478
 Sum of Mulliken charges =  -0.00000

 Dipole moment (field-independent basis, Debye):
    X=             -0.2312    Y=              1.9690    Z=              2.1976  Tot=              2.9597
 Quadrupole moment (field-independent basis, Debye-Ang):
   XX=           -375.8051   YY=           -422.2679   ZZ=           -389.8237
   XY=             47.9611   XZ=              3.2483   YZ=             26.3306

 Normal termination of Gaussian 16 at Fri Apr 29 08:30:14 2022.
