 Gaussian 16, Revision A.03,
 Gaussian 16:  ES64L-G16RevA.03 25-Dec-2016

 --------------------------------
 #p wB97XD/Def2SVP td=(nstates=5)
 --------------------------------

 ----------------------------------------------------
 step_201_chromophore_23 TDDFT with wB97XD functional
 ----------------------------------------------------
 Symbolic Z-matrix:
 Charge =  0 Multiplicity = 1

                         Standard orientation:
 ---------------------------------------------------------------------
 Center     Atomic      Atomic             Coordinates (Angstroms)
 Number     Number       Type             X           Y           Z
 ---------------------------------------------------------------------
      1         12           0        4.428765    0.921181   -0.501205
      2          6           0        3.646499   -2.464912   -0.537857
      3          6           0        1.545706    1.503083   -2.440363
      4          6           0        4.851433    4.092517    0.098379
      5          6           0        6.716713    0.223480    2.258705
      6          7           0        2.794047   -0.327318   -1.351624
      7          6           0        2.772062   -1.681547   -1.260644
      8          6           0        1.546070   -2.186847   -1.961492
      9          6           0        0.912992   -0.969841   -2.691196
     10          6           0        1.786101    0.143632   -2.128241
     11          6           0        0.945721   -1.041878   -4.265281
     12          6           0        0.528191   -2.871517   -1.004522
     13          6           0       -0.018361   -4.182783   -1.512108
     14          6           0       -1.452364   -4.024763   -1.940713
     15          8           0       -1.880217   -3.650438   -3.018085
     16          8           0       -2.291068   -4.359855   -0.888639
     17          7           0        3.438311    2.545324   -1.308827
     18          6           0        2.258168    2.628773   -1.918887
     19          6           0        1.926532    4.049554   -2.126455
     20          6           0        2.899882    4.845855   -1.490603
     21          6           0        3.798237    3.823021   -0.831286
     22          6           0        0.807203    4.415870   -3.092710
     23          6           0        2.832033    6.394766   -1.461890
     24          8           0        1.928866    7.043999   -1.957176
     25          6           0        3.860980    7.173106   -0.745923
     26          7           0        5.669292    1.982006    0.926422
     27          6           0        5.672322    3.337402    0.864909
     28          6           0        6.627683    3.985813    1.863040
     29          6           0        7.331433    2.753023    2.503664
     30          6           0        6.502846    1.553142    1.873065
     31          6           0        7.610703    4.994196    1.294416
     32          6           0        7.405204    2.780666    4.055300
     33          6           0        8.733078    2.511264    4.802771
     34          7           0        5.105700   -0.749924    0.615263
     35          6           0        6.055327   -0.895754    1.630761
     36          6           0        6.233266   -2.307941    1.933335
     37          6           0        5.331952   -2.922245    1.050710
     38          6           0        4.660907   -1.947149    0.277518
     39          6           0        7.085254   -2.883124    3.006934
     40          6           0        4.807313   -4.217432    0.792673
     41          8           0        5.038082   -5.324623    1.276349
     42          6           0        3.640342   -3.937109   -0.253865
     43          6           0        4.077747   -4.737541   -1.489329
     44          8           0        5.191139   -4.661647   -1.949768
     45          8           0        3.040685   -5.603415   -1.877129
     46          6           0        3.236705   -6.418387   -3.105416
     47          6           0       -3.708034   -4.467203   -1.204799
     48          6           0       -4.611676   -4.814582   -0.011980
     49          6           0       -4.926993   -4.078767    1.089797
     50          6           0       -4.576152   -2.637030    1.256402
     51          6           0       -5.853001   -4.602367    2.223555
     52          6           0       -7.348789   -4.709078    1.870344
     53          6           0       -8.232719   -3.819072    2.659203
     54          6           0       -8.774368   -2.669609    1.784927
     55          6           0      -10.136692   -3.068540    1.166737
     56          6           0       -8.883783   -1.358425    2.620471
     57          6           0       -9.027133   -0.069224    1.758949
     58          6           0       -7.967636    1.012070    1.922944
     59          6           0       -7.570255    1.791157    0.599819
     60          6           0       -6.180625    1.381699    0.052785
     61          6           0       -7.564962    3.304552    0.789720
     62          6           0       -8.948987    3.906978    0.911343
     63          6           0       -9.339428    4.466248   -0.442759
     64          6           0       -9.663968    6.011525   -0.355655
     65          6           0      -11.177686    6.238851   -0.366476
     66          6           0       -8.917787    6.752213   -1.496366
     67          1           0        0.703279    1.653560   -3.117777
     68          1           0        4.984544    5.153548    0.320569
     69          1           0        7.410462    0.023103    3.076714
     70          1           0        1.834223   -2.906909   -2.727487
     71          1           0       -0.122721   -0.886604   -2.359753
     72          1           0       -0.010544   -1.415747   -4.633174
     73          1           0        1.543322   -1.897840   -4.576569
     74          1           0        1.355608   -0.161338   -4.759609
     75          1           0       -0.287572   -2.183393   -0.782298
     76          1           0        0.976803   -2.928950   -0.013182
     77          1           0        0.095505   -5.001580   -0.802365
     78          1           0        0.516698   -4.547790   -2.388395
     79          1           0        0.954773    3.833701   -4.001866
     80          1           0        0.817658    5.440004   -3.467306
     81          1           0       -0.184350    4.179944   -2.707365
     82          1           0        3.704185    8.236620   -0.925600
     83          1           0        4.781423    6.889310   -1.255630
     84          1           0        3.763158    6.979028    0.322303
     85          1           0        6.058695    4.583419    2.574215
     86          1           0        8.347119    2.607853    2.135761
     87          1           0        8.643865    4.647601    1.267131
     88          1           0        7.645813    5.940187    1.834228
     89          1           0        7.265621    5.279120    0.301279
     90          1           0        6.590044    2.250569    4.547260
     91          1           0        7.199573    3.787911    4.417401
     92          1           0        9.621339    2.393459    4.181632
     93          1           0        8.545948    1.666047    5.464882
     94          1           0        8.966985    3.213119    5.603717
     95          1           0        7.520428   -3.810240    2.634365
     96          1           0        6.333054   -3.091701    3.768388
     97          1           0        7.897831   -2.234698    3.335433
     98          1           0        2.664778   -4.325296    0.038792
     99          1           0        4.178381   -6.963436   -3.028201
    100          1           0        3.433738   -5.719884   -3.919529
    101          1           0        2.404708   -7.116301   -3.195022
    102          1           0       -3.804555   -5.341702   -1.849657
    103          1           0       -4.127022   -3.625733   -1.755556
    104          1           0       -5.085842   -5.788996   -0.123363
    105          1           0       -4.115469   -2.543502    2.240605
    106          1           0       -5.453183   -1.992448    1.305876
    107          1           0       -3.923670   -2.405738    0.413989
    108          1           0       -5.720924   -4.056727    3.157530
    109          1           0       -5.700769   -5.674778    2.341669
    110          1           0       -7.693275   -5.719930    2.089784
    111          1           0       -7.555474   -4.661372    0.800378
    112          1           0       -7.775056   -3.516250    3.600906
    113          1           0       -9.071493   -4.328141    3.134394
    114          1           0       -7.951723   -2.547474    1.080353
    115          1           0      -10.719938   -3.738586    1.797806
    116          1           0      -10.048147   -3.489747    0.165596
    117          1           0      -10.666037   -2.116231    1.145573
    118          1           0       -7.971299   -1.350912    3.217310
    119          1           0       -9.640404   -1.361894    3.404490
    120          1           0       -9.864555    0.507777    2.151057
    121          1           0       -9.248781   -0.224322    0.703404
    122          1           0       -7.076018    0.709047    2.470635
    123          1           0       -8.422265    1.749571    2.585946
    124          1           0       -8.221976    1.513069   -0.228481
    125          1           0       -6.287329    1.382767   -1.031414
    126          1           0       -5.876583    0.392644    0.393867
    127          1           0       -5.446550    2.147867    0.301115
    128          1           0       -6.908237    3.730676    0.030183
    129          1           0       -7.147876    3.530432    1.771216
    130          1           0       -9.078933    4.595526    1.745941
    131          1           0       -9.746123    3.196356    1.127992
    132          1           0      -10.170384    3.802177   -0.680553
    133          1           0       -8.531184    4.267053   -1.144996
    134          1           0       -9.334960    6.452798    0.584345
    135          1           0      -11.475328    6.398539    0.669639
    136          1           0      -11.594482    5.311250   -0.758341
    137          1           0      -11.483153    7.121358   -0.928671
    138          1           0       -8.219918    7.402014   -0.968052
    139          1           0       -9.683359    7.282756   -2.062795
    140          1           0       -8.319873    6.128703   -2.159403
 ---------------------------------------------------------------------

 SCF Done:  E(RwB97XD) =  -3007.86210708     A.U. after   17 cycles

 Excitation energies and oscillator strengths:

 Excited State   1:      Singlet-A      1.6740 eV  740.64 nm  f=0.3821  <S**2>=0.000
     245 -> 248       -0.18436
     246 -> 247        0.68367
     245 <- 248       -0.11576
 This state for optimization and/or second-order correction.
 Total Energy, E(TD-HF/TD-DFT) =  -3007.80058782
 Copying the excited state density for this state as the 1-particle RhoCI density.

 Excited State   2:      Singlet-A      2.2443 eV  552.45 nm  f=0.0929  <S**2>=0.000
     245 -> 247        0.62452
     246 -> 248        0.31832

 Excited State   3:      Singlet-A      3.4465 eV  359.74 nm  f=0.0837  <S**2>=0.000
     242 -> 247        0.15067
     242 -> 249       -0.12461
     242 -> 250        0.12004
     243 -> 247        0.53375
     243 -> 249       -0.11471
     244 -> 247       -0.16506
     245 -> 247       -0.11243
     246 -> 248        0.29957

 Excited State   4:      Singlet-A      3.5242 eV  351.81 nm  f=0.3161  <S**2>=0.000
     241 -> 247        0.40332
     242 -> 247       -0.13426
     243 -> 247        0.28313
     245 -> 247        0.20068
     246 -> 248       -0.40675

 Excited State   5:      Singlet-A      3.5802 eV  346.31 nm  f=0.0826  <S**2>=0.000
     242 -> 247        0.54497
     242 -> 249       -0.24170
     242 -> 250        0.19482
     243 -> 247       -0.12762
     246 -> 248       -0.21818

 The electronic state is 1-A.
 Alpha  occ. eigenvalues --  -46.95967 -19.30259 -19.29708 -19.25202 -19.25062
 Alpha  occ. eigenvalues --  -19.24089 -19.23291 -14.46877 -14.46710 -14.45167
 Alpha  occ. eigenvalues --  -14.43724 -10.43247 -10.43085 -10.39378 -10.38094
 Alpha  occ. eigenvalues --  -10.36072 -10.35933 -10.35646 -10.35197 -10.34722
 Alpha  occ. eigenvalues --  -10.34699 -10.34667 -10.34361 -10.33709 -10.32599
 Alpha  occ. eigenvalues --  -10.32375 -10.32361 -10.32083 -10.31982 -10.31884
 Alpha  occ. eigenvalues --  -10.31825 -10.31755 -10.31544 -10.31504 -10.31315
 Alpha  occ. eigenvalues --  -10.31308 -10.31142 -10.31104 -10.31073 -10.30971
 Alpha  occ. eigenvalues --  -10.30591 -10.30040 -10.29944 -10.29934 -10.29749
 Alpha  occ. eigenvalues --  -10.29746 -10.29725 -10.29671 -10.29647 -10.29498
 Alpha  occ. eigenvalues --  -10.29403 -10.29298 -10.29114 -10.28856 -10.28730
 Alpha  occ. eigenvalues --  -10.28569 -10.28456 -10.28401 -10.28198 -10.28110
 Alpha  occ. eigenvalues --  -10.27909 -10.27862 -10.27856 -10.27735 -10.27658
 Alpha  occ. eigenvalues --  -10.27638  -3.21850  -1.95439  -1.95002  -1.94778
 Alpha  occ. eigenvalues --   -1.18194  -1.17439  -1.12877  -1.10879  -1.10246
 Alpha  occ. eigenvalues --   -1.09912  -1.06868  -1.06359  -1.05484  -1.04887
 Alpha  occ. eigenvalues --   -0.94624  -0.92504  -0.91981  -0.91690  -0.91363
 Alpha  occ. eigenvalues --   -0.90752  -0.90384  -0.89406  -0.89085  -0.88654
 Alpha  occ. eigenvalues --   -0.88204  -0.87469  -0.86517  -0.85922  -0.85439
 Alpha  occ. eigenvalues --   -0.84557  -0.84403  -0.83428  -0.82793  -0.82683
 Alpha  occ. eigenvalues --   -0.82112  -0.80245  -0.79516  -0.79212  -0.77970
 Alpha  occ. eigenvalues --   -0.77545  -0.77226  -0.77004  -0.76688  -0.75649
 Alpha  occ. eigenvalues --   -0.75201  -0.74696  -0.73734  -0.72540  -0.71500
 Alpha  occ. eigenvalues --   -0.70329  -0.70162  -0.69398  -0.68219  -0.68114
 Alpha  occ. eigenvalues --   -0.67745  -0.67175  -0.67064  -0.66652  -0.65868
 Alpha  occ. eigenvalues --   -0.65547  -0.65136  -0.64274  -0.64080  -0.61967
 Alpha  occ. eigenvalues --   -0.61809  -0.61583  -0.60674  -0.60561  -0.59762
 Alpha  occ. eigenvalues --   -0.59473  -0.59201  -0.58439  -0.58053  -0.57406
 Alpha  occ. eigenvalues --   -0.57105  -0.56637  -0.56482  -0.56300  -0.55944
 Alpha  occ. eigenvalues --   -0.55760  -0.55509  -0.55382  -0.55083  -0.54943
 Alpha  occ. eigenvalues --   -0.54454  -0.54190  -0.53730  -0.53604  -0.53456
 Alpha  occ. eigenvalues --   -0.53361  -0.53178  -0.53026  -0.52951  -0.52539
 Alpha  occ. eigenvalues --   -0.52251  -0.52159  -0.51977  -0.51785  -0.51499
 Alpha  occ. eigenvalues --   -0.51384  -0.51258  -0.50945  -0.50749  -0.50578
 Alpha  occ. eigenvalues --   -0.50474  -0.50290  -0.50136  -0.49881  -0.49789
 Alpha  occ. eigenvalues --   -0.49521  -0.49112  -0.49011  -0.48773  -0.48600
 Alpha  occ. eigenvalues --   -0.48537  -0.48354  -0.48256  -0.47965  -0.47851
 Alpha  occ. eigenvalues --   -0.47679  -0.47608  -0.47435  -0.47064  -0.46923
 Alpha  occ. eigenvalues --   -0.46640  -0.46324  -0.46244  -0.45863  -0.45782
 Alpha  occ. eigenvalues --   -0.45660  -0.45414  -0.45151  -0.45113  -0.44929
 Alpha  occ. eigenvalues --   -0.44823  -0.44716  -0.44476  -0.44318  -0.44279
 Alpha  occ. eigenvalues --   -0.44207  -0.43886  -0.43772  -0.43669  -0.43445
 Alpha  occ. eigenvalues --   -0.42951  -0.42726  -0.42588  -0.42561  -0.42254
 Alpha  occ. eigenvalues --   -0.41896  -0.41012  -0.40927  -0.40815  -0.40462
 Alpha  occ. eigenvalues --   -0.40249  -0.40011  -0.39521  -0.39439  -0.39309
 Alpha  occ. eigenvalues --   -0.39238  -0.38657  -0.38561  -0.38224  -0.37998
 Alpha  occ. eigenvalues --   -0.37385  -0.37288  -0.36766  -0.36269  -0.35948
 Alpha  occ. eigenvalues --   -0.35850  -0.35236  -0.35147  -0.33871  -0.33083
 Alpha  occ. eigenvalues --   -0.32549  -0.32242  -0.31739  -0.31684  -0.26284
 Alpha  occ. eigenvalues --   -0.22911
 Alpha virt. eigenvalues --   -0.06938   0.00035   0.02695   0.04710   0.05218
 Alpha virt. eigenvalues --    0.06448   0.07301   0.07778   0.08313   0.09539
 Alpha virt. eigenvalues --    0.10783   0.11266   0.11581   0.12103   0.12527

 Mulliken charges:
               1
     1  Mg   0.967995
     2  C   -0.035356
     3  C   -0.085121
     4  C   -0.066238
     5  C   -0.076628
     6  N   -0.337084
     7  C    0.027126
     8  C   -0.076374
     9  C   -0.085468
    10  C    0.044333
    11  C    0.017585
    12  C    0.006822
    13  C    0.073249
    14  C    0.176224
    15  O   -0.264738
    16  O   -0.369795
    17  N   -0.463153
    18  C    0.156750
    19  C   -0.150457
    20  C   -0.098722
    21  C    0.177211
    22  C    0.064099
    23  C    0.037160
    24  O   -0.217077
    25  C    0.005602
    26  N   -0.334701
    27  C    0.049426
    28  C   -0.086740
    29  C   -0.031145
    30  C    0.044119
    31  C    0.019268
    32  C   -0.032862
    33  C   -0.056856
    34  N   -0.419219
    35  C    0.100960
    36  C   -0.185179
    37  C   -0.047637
    38  C    0.180812
    39  C    0.090242
    40  C    0.130171
    41  O   -0.216752
    42  C   -0.113321
    43  C    0.269275
    44  O   -0.225016
    45  O   -0.399301
    46  C    0.142769
    47  C    0.243879
    48  C   -0.166053
    49  C   -0.176942
    50  C    0.040344
    51  C    0.055753
    52  C   -0.022090
    53  C    0.003873
    54  C   -0.192913
    55  C    0.032698
    56  C    0.002870
    57  C   -0.021318
    58  C    0.017174
    59  C   -0.200325
    60  C    0.008801
    61  C    0.003213
    62  C   -0.030472
    63  C    0.003941
    64  C   -0.234965
    65  C    0.013503
    66  C    0.004863
    67  H    0.005006
    68  H   -0.034604
    69  H    0.000513
    70  H    0.026466
    71  H    0.047089
    72  H    0.051807
    73  H    0.018412
    74  H    0.050074
    75  H    0.036669
    76  H    0.039143
    77  H    0.059333
    78  H    0.047617
    79  H    0.037734
    80  H    0.057839
    81  H    0.049285
    82  H    0.051475
    83  H    0.054573
    84  H    0.076103
    85  H    0.045693
    86  H    0.040080
    87  H    0.035803
    88  H    0.028856
    89  H    0.031454
    90  H    0.032392
    91  H    0.023852
    92  H    0.044380
    93  H    0.026163
    94  H    0.027072
    95  H    0.063784
    96  H    0.067447
    97  H    0.038469
    98  H    0.056612
    99  H    0.057537
   100  H    0.049925
   101  H    0.072347
   102  H    0.030938
   103  H    0.056230
   104  H    0.020197
   105  H    0.038759
   106  H    0.051615
   107  H    0.043445
   108  H    0.021505
   109  H    0.032358
   110  H    0.011775
   111  H    0.019644
   112  H   -0.004269
   113  H   -0.000567
   114  H    0.020071
   115  H    0.028585
   116  H    0.036274
   117  H    0.024621
   118  H    0.004095
   119  H    0.017103
   120  H    0.018757
   121  H    0.028079
   122  H    0.011522
   123  H    0.006714
   124  H    0.010494
   125  H    0.025418
   126  H    0.024878
   127  H    0.027897
   128  H    0.022918
   129  H    0.012735
   130  H    0.013797
   131  H    0.006033
   132  H    0.020534
   133  H    0.016792
   134  H    0.027350
   135  H    0.026065
   136  H    0.027432
   137  H    0.028053
   138  H    0.031040
   139  H    0.022908
   140  H    0.029710
 Sum of Mulliken charges =  -0.00000

 Dipole moment (field-independent basis, Debye):
    X=             -0.3066    Y=              2.2265    Z=              2.0450  Tot=              3.0387
 Quadrupole moment (field-independent basis, Debye-Ang):
   XX=           -376.5192   YY=           -420.4694   ZZ=           -389.7593
   XY=             48.8056   XZ=              2.5525   YZ=             26.0459

 Normal termination of Gaussian 16 at Fri Apr 29 08:55:02 2022.
