 Gaussian 16, Revision A.03,
 Gaussian 16:  ES64L-G16RevA.03 25-Dec-2016

 --------------------
 #p ZINDO=(nstates=5)
 --------------------

 -----------------------------
 step_201_chromophore_23 ZINDO
 -----------------------------
 Symbolic Z-matrix:
 Charge =  0 Multiplicity = 1

                         Standard orientation:
 ---------------------------------------------------------------------
 Center     Atomic      Atomic             Coordinates (Angstroms)
 Number     Number       Type             X           Y           Z
 ---------------------------------------------------------------------
      1         12           0        4.428765    0.921181   -0.501205
      2          6           0        3.646499   -2.464912   -0.537857
      3          6           0        1.545706    1.503083   -2.440363
      4          6           0        4.851433    4.092517    0.098379
      5          6           0        6.716713    0.223480    2.258705
      6          7           0        2.794047   -0.327318   -1.351624
      7          6           0        2.772062   -1.681547   -1.260644
      8          6           0        1.546070   -2.186847   -1.961492
      9          6           0        0.912992   -0.969841   -2.691196
     10          6           0        1.786101    0.143632   -2.128241
     11          6           0        0.945721   -1.041878   -4.265281
     12          6           0        0.528191   -2.871517   -1.004522
     13          6           0       -0.018361   -4.182783   -1.512108
     14          6           0       -1.452364   -4.024763   -1.940713
     15          8           0       -1.880217   -3.650438   -3.018085
     16          8           0       -2.291068   -4.359855   -0.888639
     17          7           0        3.438311    2.545324   -1.308827
     18          6           0        2.258168    2.628773   -1.918887
     19          6           0        1.926532    4.049554   -2.126455
     20          6           0        2.899882    4.845855   -1.490603
     21          6           0        3.798237    3.823021   -0.831286
     22          6           0        0.807203    4.415870   -3.092710
     23          6           0        2.832033    6.394766   -1.461890
     24          8           0        1.928866    7.043999   -1.957176
     25          6           0        3.860980    7.173106   -0.745923
     26          7           0        5.669292    1.982006    0.926422
     27          6           0        5.672322    3.337402    0.864909
     28          6           0        6.627683    3.985813    1.863040
     29          6           0        7.331433    2.753023    2.503664
     30          6           0        6.502846    1.553142    1.873065
     31          6           0        7.610703    4.994196    1.294416
     32          6           0        7.405204    2.780666    4.055300
     33          6           0        8.733078    2.511264    4.802771
     34          7           0        5.105700   -0.749924    0.615263
     35          6           0        6.055327   -0.895754    1.630761
     36          6           0        6.233266   -2.307941    1.933335
     37          6           0        5.331952   -2.922245    1.050710
     38          6           0        4.660907   -1.947149    0.277518
     39          6           0        7.085254   -2.883124    3.006934
     40          6           0        4.807313   -4.217432    0.792673
     41          8           0        5.038082   -5.324623    1.276349
     42          6           0        3.640342   -3.937109   -0.253865
     43          6           0        4.077747   -4.737541   -1.489329
     44          8           0        5.191139   -4.661647   -1.949768
     45          8           0        3.040685   -5.603415   -1.877129
     46          6           0        3.236705   -6.418387   -3.105416
     47          6           0       -3.708034   -4.467203   -1.204799
     48          6           0       -4.611676   -4.814582   -0.011980
     49          6           0       -4.926993   -4.078767    1.089797
     50          6           0       -4.576152   -2.637030    1.256402
     51          6           0       -5.853001   -4.602367    2.223555
     52          6           0       -7.348789   -4.709078    1.870344
     53          6           0       -8.232719   -3.819072    2.659203
     54          6           0       -8.774368   -2.669609    1.784927
     55          6           0      -10.136692   -3.068540    1.166737
     56          6           0       -8.883783   -1.358425    2.620471
     57          6           0       -9.027133   -0.069224    1.758949
     58          6           0       -7.967636    1.012070    1.922944
     59          6           0       -7.570255    1.791157    0.599819
     60          6           0       -6.180625    1.381699    0.052785
     61          6           0       -7.564962    3.304552    0.789720
     62          6           0       -8.948987    3.906978    0.911343
     63          6           0       -9.339428    4.466248   -0.442759
     64          6           0       -9.663968    6.011525   -0.355655
     65          6           0      -11.177686    6.238851   -0.366476
     66          6           0       -8.917787    6.752213   -1.496366
     67          1           0        0.703279    1.653560   -3.117777
     68          1           0        4.984544    5.153548    0.320569
     69          1           0        7.410462    0.023103    3.076714
     70          1           0        1.834223   -2.906909   -2.727487
     71          1           0       -0.122721   -0.886604   -2.359753
     72          1           0       -0.010544   -1.415747   -4.633174
     73          1           0        1.543322   -1.897840   -4.576569
     74          1           0        1.355608   -0.161338   -4.759609
     75          1           0       -0.287572   -2.183393   -0.782298
     76          1           0        0.976803   -2.928950   -0.013182
     77          1           0        0.095505   -5.001580   -0.802365
     78          1           0        0.516698   -4.547790   -2.388395
     79          1           0        0.954773    3.833701   -4.001866
     80          1           0        0.817658    5.440004   -3.467306
     81          1           0       -0.184350    4.179944   -2.707365
     82          1           0        3.704185    8.236620   -0.925600
     83          1           0        4.781423    6.889310   -1.255630
     84          1           0        3.763158    6.979028    0.322303
     85          1           0        6.058695    4.583419    2.574215
     86          1           0        8.347119    2.607853    2.135761
     87          1           0        8.643865    4.647601    1.267131
     88          1           0        7.645813    5.940187    1.834228
     89          1           0        7.265621    5.279120    0.301279
     90          1           0        6.590044    2.250569    4.547260
     91          1           0        7.199573    3.787911    4.417401
     92          1           0        9.621339    2.393459    4.181632
     93          1           0        8.545948    1.666047    5.464882
     94          1           0        8.966985    3.213119    5.603717
     95          1           0        7.520428   -3.810240    2.634365
     96          1           0        6.333054   -3.091701    3.768388
     97          1           0        7.897831   -2.234698    3.335433
     98          1           0        2.664778   -4.325296    0.038792
     99          1           0        4.178381   -6.963436   -3.028201
    100          1           0        3.433738   -5.719884   -3.919529
    101          1           0        2.404708   -7.116301   -3.195022
    102          1           0       -3.804555   -5.341702   -1.849657
    103          1           0       -4.127022   -3.625733   -1.755556
    104          1           0       -5.085842   -5.788996   -0.123363
    105          1           0       -4.115469   -2.543502    2.240605
    106          1           0       -5.453183   -1.992448    1.305876
    107          1           0       -3.923670   -2.405738    0.413989
    108          1           0       -5.720924   -4.056727    3.157530
    109          1           0       -5.700769   -5.674778    2.341669
    110          1           0       -7.693275   -5.719930    2.089784
    111          1           0       -7.555474   -4.661372    0.800378
    112          1           0       -7.775056   -3.516250    3.600906
    113          1           0       -9.071493   -4.328141    3.134394
    114          1           0       -7.951723   -2.547474    1.080353
    115          1           0      -10.719938   -3.738586    1.797806
    116          1           0      -10.048147   -3.489747    0.165596
    117          1           0      -10.666037   -2.116231    1.145573
    118          1           0       -7.971299   -1.350912    3.217310
    119          1           0       -9.640404   -1.361894    3.404490
    120          1           0       -9.864555    0.507777    2.151057
    121          1           0       -9.248781   -0.224322    0.703404
    122          1           0       -7.076018    0.709047    2.470635
    123          1           0       -8.422265    1.749571    2.585946
    124          1           0       -8.221976    1.513069   -0.228481
    125          1           0       -6.287329    1.382767   -1.031414
    126          1           0       -5.876583    0.392644    0.393867
    127          1           0       -5.446550    2.147867    0.301115
    128          1           0       -6.908237    3.730676    0.030183
    129          1           0       -7.147876    3.530432    1.771216
    130          1           0       -9.078933    4.595526    1.745941
    131          1           0       -9.746123    3.196356    1.127992
    132          1           0      -10.170384    3.802177   -0.680553
    133          1           0       -8.531184    4.267053   -1.144996
    134          1           0       -9.334960    6.452798    0.584345
    135          1           0      -11.475328    6.398539    0.669639
    136          1           0      -11.594482    5.311250   -0.758341
    137          1           0      -11.483153    7.121358   -0.928671
    138          1           0       -8.219918    7.402014   -0.968052
    139          1           0       -9.683359    7.282756   -2.062795
    140          1           0       -8.319873    6.128703   -2.159403
 ---------------------------------------------------------------------

 SCF Done:  E(RZINDO/S) =  -474.483449771     A.U. after   19 cycles

 Excitation energies and oscillator strengths:

 Excited State   1:      Singlet-A      1.2867 eV  963.61 nm  f=0.6090  <S**2>=0.000
     175 ->178        -0.18891
     176 ->177         0.66340
 This state for optimization and/or second-order correction.
 Total Energy, E(CIS/TDA) =  -474.436165845
 Copying the excited state density for this state as the 1-particle RhoCI density.

 Excited State   2:      Singlet-A      1.9598 eV  632.64 nm  f=0.0128  <S**2>=0.000
     175 ->177         0.51185
     176 ->178         0.46370

 Excited State   3:      Singlet-A      2.9749 eV  416.77 nm  f=0.0800  <S**2>=0.000
     168 ->177         0.21045
     168 ->178        -0.17855
     168 ->179        -0.35651
     168 ->181        -0.30295
     168 ->186        -0.22203
     169 ->179         0.11894
     169 ->181         0.10075
     171 ->177        -0.10061
     175 ->177         0.12086
     176 ->178        -0.14240

 Excited State   4:      Singlet-A      3.0051 eV  412.58 nm  f=0.8237  <S**2>=0.000
     168 ->179        -0.11595
     168 ->181        -0.10309
     170 ->177         0.11948
     170 ->179         0.13920
     170 ->181        -0.13021
     171 ->177         0.11240
     175 ->177        -0.36932
     176 ->178         0.42756
     176 ->180         0.11739

 Excited State   5:      Singlet-A      3.0368 eV  408.27 nm  f=0.0942  <S**2>=0.000
     170 ->177        -0.18520
     170 ->179        -0.19525
     170 ->181         0.18540
     170 ->186        -0.11181
     176 ->178         0.10238
     176 ->179         0.41324
     176 ->180         0.32859

 The electronic state is 1-A.
 Alpha  occ. eigenvalues --   -1.85206  -1.81271  -1.80761  -1.73553  -1.71557
 Alpha  occ. eigenvalues --   -1.69792  -1.66427  -1.63300  -1.60975  -1.57545
 Alpha  occ. eigenvalues --   -1.54920  -1.51971  -1.48905  -1.48114  -1.47031
 Alpha  occ. eigenvalues --   -1.45336  -1.44155  -1.42050  -1.39703  -1.37719
 Alpha  occ. eigenvalues --   -1.35769  -1.34247  -1.33424  -1.32123  -1.29293
 Alpha  occ. eigenvalues --   -1.28793  -1.26995  -1.23550  -1.21547  -1.18948
 Alpha  occ. eigenvalues --   -1.17305  -1.15871  -1.15214  -1.14266  -1.13658
 Alpha  occ. eigenvalues --   -1.13217  -1.10332  -1.09797  -1.05151  -1.03260
 Alpha  occ. eigenvalues --   -1.02287  -1.01435  -0.99089  -0.98154  -0.96703
 Alpha  occ. eigenvalues --   -0.95988  -0.94886  -0.94166  -0.93514  -0.92818
 Alpha  occ. eigenvalues --   -0.91549  -0.91007  -0.89118  -0.88697  -0.87448
 Alpha  occ. eigenvalues --   -0.87080  -0.85402  -0.83970  -0.82421  -0.80007
 Alpha  occ. eigenvalues --   -0.79348  -0.78628  -0.77377  -0.77139  -0.76738
 Alpha  occ. eigenvalues --   -0.76561  -0.75899  -0.75116  -0.74086  -0.73715
 Alpha  occ. eigenvalues --   -0.73385  -0.72731  -0.71856  -0.71755  -0.70774
 Alpha  occ. eigenvalues --   -0.70494  -0.69845  -0.69234  -0.68462  -0.67486
 Alpha  occ. eigenvalues --   -0.67268  -0.67075  -0.66502  -0.65934  -0.65787
 Alpha  occ. eigenvalues --   -0.65280  -0.64726  -0.64352  -0.63905  -0.63767
 Alpha  occ. eigenvalues --   -0.63138  -0.62961  -0.62870  -0.62269  -0.62179
 Alpha  occ. eigenvalues --   -0.61808  -0.61166  -0.60872  -0.60647  -0.60234
 Alpha  occ. eigenvalues --   -0.59949  -0.59689  -0.59083  -0.58672  -0.58394
 Alpha  occ. eigenvalues --   -0.58157  -0.57690  -0.57139  -0.56671  -0.56623
 Alpha  occ. eigenvalues --   -0.56104  -0.56038  -0.55440  -0.55160  -0.54970
 Alpha  occ. eigenvalues --   -0.54424  -0.53970  -0.53544  -0.53163  -0.53083
 Alpha  occ. eigenvalues --   -0.52669  -0.52377  -0.52085  -0.51998  -0.51545
 Alpha  occ. eigenvalues --   -0.51359  -0.51080  -0.50797  -0.50597  -0.50319
 Alpha  occ. eigenvalues --   -0.50129  -0.49831  -0.49443  -0.49190  -0.49115
 Alpha  occ. eigenvalues --   -0.48888  -0.48717  -0.48300  -0.48099  -0.47863
 Alpha  occ. eigenvalues --   -0.47493  -0.47432  -0.47008  -0.46919  -0.46794
 Alpha  occ. eigenvalues --   -0.46391  -0.46277  -0.45899  -0.45714  -0.45110
 Alpha  occ. eigenvalues --   -0.45003  -0.44782  -0.44499  -0.44037  -0.43693
 Alpha  occ. eigenvalues --   -0.43351  -0.42482  -0.42393  -0.42337  -0.41861
 Alpha  occ. eigenvalues --   -0.41776  -0.41068  -0.40325  -0.39545  -0.39250
 Alpha  occ. eigenvalues --   -0.38425  -0.36966  -0.35831  -0.34915  -0.34323
 Alpha  occ. eigenvalues --   -0.33492  -0.33301  -0.32343  -0.32319  -0.27189
 Alpha  occ. eigenvalues --   -0.21904
 Alpha virt. eigenvalues --   -0.08490  -0.02529  -0.00453   0.01005   0.01388
 Alpha virt. eigenvalues --    0.01818   0.02769   0.03061   0.04287   0.04642
 Alpha virt. eigenvalues --    0.06133   0.06263   0.07199   0.07909   0.07975

 Mulliken charges:
               1
     1  Mg   0.437533
     2  C   -0.041528
     3  C   -0.099377
     4  C   -0.073151
     5  C   -0.061429
     6  N   -0.290111
     7  C    0.123848
     8  C    0.002941
     9  C    0.000518
    10  C    0.154135
    11  C   -0.056976
    12  C   -0.014712
    13  C    0.014707
    14  C    0.474870
    15  O   -0.523424
    16  O   -0.274424
    17  N   -0.306290
    18  C    0.139603
    19  C    0.037596
    20  C   -0.051426
    21  C    0.109029
    22  C   -0.037944
    23  C    0.337420
    24  O   -0.515157
    25  C   -0.026669
    26  N   -0.255732
    27  C    0.136584
    28  C    0.008799
    29  C    0.001533
    30  C    0.096690
    31  C   -0.052037
    32  C   -0.033908
    33  C   -0.061753
    34  N   -0.318301
    35  C    0.059453
    36  C    0.037507
    37  C   -0.061777
    38  C    0.125303
    39  C   -0.033987
    40  C    0.331774
    41  O   -0.535292
    42  C    0.049970
    43  C    0.481219
    44  O   -0.499970
    45  O   -0.292718
    46  C    0.070750
    47  C    0.107452
    48  C   -0.098953
    49  C    0.003418
    50  C   -0.043190
    51  C   -0.028235
    52  C   -0.023039
    53  C   -0.036738
    54  C   -0.011832
    55  C   -0.055112
    56  C   -0.034493
    57  C   -0.039131
    58  C   -0.033972
    59  C   -0.015628
    60  C   -0.063202
    61  C   -0.024582
    62  C   -0.040155
    63  C   -0.041299
    64  C   -0.016370
    65  C   -0.059991
    66  C   -0.063691
    67  H    0.031832
    68  H    0.018048
    69  H    0.035706
    70  H    0.031411
    71  H    0.039256
    72  H    0.029539
    73  H    0.016002
    74  H    0.034545
    75  H    0.025663
    76  H    0.024335
    77  H    0.039185
    78  H    0.038618
    79  H    0.021651
    80  H    0.038673
    81  H    0.034645
    82  H    0.035286
    83  H    0.038455
    84  H    0.046914
    85  H    0.034363
    86  H    0.035040
    87  H    0.024294
    88  H    0.014875
    89  H    0.017555
    90  H    0.024819
    91  H    0.007687
    92  H    0.028308
    93  H    0.014911
    94  H    0.017738
    95  H    0.037446
    96  H    0.042416
    97  H    0.027155
    98  H    0.050871
    99  H    0.044767
   100  H    0.043978
   101  H    0.045106
   102  H    0.031681
   103  H    0.054404
   104  H    0.025441
   105  H    0.026874
   106  H    0.033804
   107  H    0.027651
   108  H    0.031553
   109  H    0.022228
   110  H    0.005144
   111  H    0.022140
   112  H    0.013303
   113  H    0.007682
   114  H    0.027070
   115  H    0.024896
   116  H    0.022309
   117  H    0.015894
   118  H    0.009500
   119  H    0.022217
   120  H    0.011800
   121  H    0.027011
   122  H    0.020142
   123  H    0.010277
   124  H    0.021084
   125  H    0.013427
   126  H    0.018465
   127  H    0.020067
   128  H    0.025852
   129  H    0.007322
   130  H    0.017560
   131  H    0.010741
   132  H    0.020958
   133  H    0.021406
   134  H    0.022782
   135  H    0.014321
   136  H    0.023754
   137  H    0.021465
   138  H    0.016867
   139  H    0.022294
   140  H    0.022569
 Sum of Mulliken charges =  -0.00000

 Dipole moment (field-independent basis, Debye):
    X=             -1.1427    Y=              3.8830    Z=              2.6569  Tot=              4.8418
 N-N= 4.421577162752D+03 E-N= 0.000000000000D+00  KE=-9.517181802881D+03
 Leave Link  601 at Fri Apr 29 09:08:00 2022, MaxMem=  6710886400 cpu:               0.8 elap:               0.1
 (Enter /sw/apps/gaussian-16.0/g16/l9999.exe)
 1\1\GINC-BP1-COMPUTE140\SP\RZINDO CIS\STO-3G\C55H74Mg1N4O6\OF15641\29-
 Apr-2022\0\\#p ZINDO=(nstates=5)\\step_201_chromophore_23 ZINDO\\0,1\M
 g,0,-8.461,40.866,42.812\C,0,-7.589,37.591,42.042\C,0,-5.784,41.945,40
 .792\C,0,-9.695,43.869,43.046\C,0,-11.675,39.59,43.987\N,0,-6.907,39.8
 84,41.557\C,0,-6.755,38.537,41.485\C,0,-5.604,38.235,40.572\C,0,-4.919
 ,39.592,40.25\C,0,-5.925,40.54,40.889\C,0,-3.462,39.76,40.827\C,0,-6.0
 27,37.487,39.275\C,0,-5.15,36.312,38.92\C,0,-4.292,36.637,37.727\O,0,-

 Normal termination of Gaussian 16 at Fri Apr 29 09:08:00 2022.
