 Gaussian 16, Revision A.03,
 Gaussian 16:  ES64L-G16RevA.03 25-Dec-2016

 ------------------------------
 #p blyp/Def2SVP td=(nstates=5)
 ------------------------------

 ---------------------------------------------------
 step_1201_chromophore_18 TDDFT with blyp functional
 ---------------------------------------------------
 Symbolic Z-matrix:
 Charge =  0 Multiplicity = 1

                         Standard orientation:
 ---------------------------------------------------------------------
 Center     Atomic      Atomic             Coordinates (Angstroms)
 Number     Number       Type             X           Y           Z
 ---------------------------------------------------------------------
      1         12           0        5.369335    1.180922    0.314646
      2          6           0        4.647659   -2.301290    0.004944
      3          6           0        1.995607    1.758553    0.295502
      4          6           0        6.086872    4.311397   -0.264412
      5          6           0        8.789424    0.265962    0.026064
      6          7           0        3.584589   -0.107103    0.183963
      7          6           0        3.520483   -1.487441    0.171642
      8          6           0        2.074470   -1.990274    0.270392
      9          6           0        1.203977   -0.665504    0.459950
     10          6           0        2.298374    0.406303    0.289326
     11          6           0       -0.008060   -0.540151   -0.417086
     12          6           0        1.825347   -2.973872    1.433623
     13          6           0        1.061951   -4.229454    1.138370
     14          6           0        0.028986   -4.162617   -0.017996
     15          8           0        0.365323   -4.458183   -1.204092
     16          8           0       -1.196381   -3.654183    0.295676
     17          7           0        4.254061    2.811161    0.102019
     18          6           0        2.797721    2.903515    0.193548
     19          6           0        2.383846    4.317715    0.062296
     20          6           0        3.604609    5.081398   -0.114074
     21          6           0        4.741788    4.067173   -0.181962
     22          6           0        0.981215    4.794082    0.114505
     23          6           0        3.853606    6.590224   -0.276893
     24          8           0        4.952506    7.099387   -0.261407
     25          6           0        2.691445    7.511112   -0.669320
     26          7           0        7.207516    2.111679    0.031196
     27          6           0        7.252755    3.474840   -0.219445
     28          6           0        8.704237    4.042963   -0.127729
     29          6           0        9.479446    2.692884    0.009804
     30          6           0        8.455918    1.619013    0.031540
     31          6           0        9.177064    5.092139   -1.127692
     32          6           0       10.520461    2.634781    1.135512
     33          6           0       10.000610    2.326503    2.531161
     34          7           0        6.525416   -0.611187   -0.016188
     35          6           0        7.887657   -0.821292   -0.065931
     36          6           0        8.223601   -2.235035   -0.394014
     37          6           0        6.957756   -2.868975   -0.281106
     38          6           0        5.990808   -1.835193   -0.027326
     39          6           0        9.648659   -2.814578   -0.713680
     40          6           0        6.224438   -4.093980   -0.288990
     41          8           0        6.680923   -5.226770   -0.393011
     42          6           0        4.706439   -3.796320   -0.102023
     43          6           0        3.980124   -4.423968   -1.279973
     44          8           0        3.934703   -4.099334   -2.439834
     45          8           0        3.415969   -5.618326   -0.869194
     46          6           0        2.765806   -6.606110   -1.705462
     47          6           0       -2.192661   -3.590403   -0.806460
     48          6           0       -3.545892   -3.000848   -0.316379
     49          6           0       -4.847435   -3.380338   -0.492362
     50          6           0       -5.353199   -4.726351   -0.933062
     51          6           0       -5.948886   -2.276758   -0.333924
     52          6           0       -7.004326   -2.483608    0.787892
     53          6           0       -7.057916   -1.224048    1.665718
     54          6           0       -8.343799   -0.993176    2.504293
     55          6           0       -8.003072   -0.872961    3.980046
     56          6           0       -9.236883    0.259098    2.050722
     57          6           0      -10.083297   -0.049373    0.874571
     58          6           0      -11.581548   -0.297865    1.189841
     59          6           0      -12.427760    0.990550    1.219894
     60          6           0      -12.756924    1.412183    2.629746
     61          6           0      -13.854149    0.800788    0.491080
     62          6           0      -13.697525    1.235861   -1.003768
     63          6           0      -14.353200    2.657173   -1.279034
     64          6           0      -15.198781    2.685819   -2.569143
     65          6           0      -14.677880    3.851539   -3.488215
     66          6           0      -16.665230    2.898345   -2.255998
     67          1           0        0.931760    1.941288    0.462337
     68          1           0        6.456891    5.307358   -0.516915
     69          1           0        9.845209    0.062849   -0.165786
     70          1           0        1.848863   -2.426606   -0.702899
     71          1           0        0.876806   -0.605292    1.498419
     72          1           0       -0.842656   -0.827117    0.223252
     73          1           0       -0.001926   -1.133052   -1.331444
     74          1           0       -0.077198    0.492445   -0.760493
     75          1           0        1.201566   -2.589516    2.240302
     76          1           0        2.761746   -3.175585    1.953961
     77          1           0        0.624381   -4.558353    2.080996
     78          1           0        1.804577   -4.991094    0.897814
     79          1           0        0.566212    4.660356   -0.884436
     80          1           0        0.975302    5.763994    0.612718
     81          1           0        0.339970    4.144411    0.709448
     82          1           0        2.083261    7.848872    0.169212
     83          1           0        2.059777    6.913853   -1.327984
     84          1           0        3.134084    8.305875   -1.271318
     85          1           0        8.853423    4.548493    0.826294
     86          1           0       10.136967    2.537562   -0.846581
     87          1           0        9.633421    5.969927   -0.668644
     88          1           0        8.425943    5.444452   -1.834872
     89          1           0        9.989663    4.680798   -1.726427
     90          1           0       10.936551    3.640233    1.202590
     91          1           0       11.436786    2.083436    0.922224
     92          1           0       10.320038    1.314097    2.776650
     93          1           0        8.932500    2.180564    2.692088
     94          1           0       10.361003    2.975377    3.328558
     95          1           0       10.338042   -2.594528    0.102196
     96          1           0       10.095966   -2.672553   -1.697694
     97          1           0        9.437501   -3.875234   -0.579885
     98          1           0        4.315478   -4.207044    0.828876
     99          1           0        3.340764   -7.530268   -1.655920
    100          1           0        2.717883   -6.146353   -2.692119
    101          1           0        1.752563   -6.874793   -1.406937
    102          1           0       -2.456842   -4.527732   -1.296893
    103          1           0       -1.765361   -2.975378   -1.597851
    104          1           0       -3.390007   -1.994919    0.073639
    105          1           0       -4.496570   -5.376626   -1.109479
    106          1           0       -6.008635   -4.659795   -1.800518
    107          1           0       -5.820289   -5.235285   -0.090187
    108          1           0       -6.386597   -2.166773   -1.326963
    109          1           0       -5.418951   -1.324532   -0.301274
    110          1           0       -6.567518   -3.308200    1.349850
    111          1           0       -7.969079   -2.776408    0.372890
    112          1           0       -6.938169   -0.380405    0.985694
    113          1           0       -6.185287   -1.229580    2.319471
    114          1           0       -8.978426   -1.867848    2.366050
    115          1           0       -7.392972   -1.752204    4.186552
    116          1           0       -8.902838   -1.078326    4.559721
    117          1           0       -7.552946    0.105247    4.151535
    118          1           0       -8.581962    1.117734    1.901937
    119          1           0       -9.955750    0.554341    2.815169
    120          1           0       -9.687296   -0.919740    0.351909
    121          1           0      -10.133624    0.812228    0.209188
    122          1           0      -11.584934   -0.814224    2.149119
    123          1           0      -11.958088   -0.983082    0.429975
    124          1           0      -11.922531    1.835254    0.752445
    125          1           0      -11.839965    1.716640    3.135527
    126          1           0      -13.301119    0.675563    3.220667
    127          1           0      -13.288680    2.361544    2.677793
    128          1           0      -14.661261    1.290640    1.034362
    129          1           0      -14.023375   -0.272423    0.584849
    130          1           0      -14.216183    0.372267   -1.422158
    131          1           0      -12.642463    1.294886   -1.272698
    132          1           0      -13.610796    3.451688   -1.346891
    133          1           0      -15.026594    2.885271   -0.453835
    134          1           0      -15.084809    1.721600   -3.064566
    135          1           0      -13.737149    4.368925   -3.297484
    136          1           0      -15.430017    4.633645   -3.588477
    137          1           0      -14.565526    3.327216   -4.437148
    138          1           0      -17.151017    1.924224   -2.196531
    139          1           0      -17.199009    3.569905   -2.929158
    140          1           0      -16.786337    3.431391   -1.312750
 ---------------------------------------------------------------------

 SCF Done:  E(RB-LYP) =  -3007.38301238     A.U. after   21 cycles

 Excitation energies and oscillator strengths:

 Excited State   1:      Singlet-A      1.7774 eV  697.57 nm  f=0.3009  <S**2>=0.000
     245 -> 248        0.18948
     246 -> 247        0.68654
     246 <- 247       -0.15102
 This state for optimization and/or second-order correction.
 Total Energy, E(TD-HF/TD-DFT) =  -3007.31769505
 Copying the excited state density for this state as the 1-particle RhoCI density.

 Excited State   2:      Singlet-A      1.9171 eV  646.73 nm  f=0.0119  <S**2>=0.000
     244 -> 247        0.63610
     245 -> 247       -0.27782

 Excited State   3:      Singlet-A      1.9785 eV  626.66 nm  f=0.0321  <S**2>=0.000
     243 -> 247        0.38676
     244 -> 247        0.28378
     245 -> 247        0.47198
     246 -> 248       -0.19091

 Excited State   4:      Singlet-A      2.0474 eV  605.56 nm  f=0.0198  <S**2>=0.000
     243 -> 247        0.58499
     244 -> 247       -0.10500
     245 -> 247       -0.32806
     246 -> 248        0.17126

 Excited State   5:      Singlet-A      2.5411 eV  487.92 nm  f=0.0110  <S**2>=0.000
     240 -> 247        0.25353
     242 -> 247        0.62498
     246 -> 248       -0.15411

 The electronic state is 1-A.
 Alpha  occ. eigenvalues --  -46.26259 -18.83662 -18.79552 -18.77066 -18.75660
 Alpha  occ. eigenvalues --  -18.75643 -18.74965 -14.03226 -14.02882 -14.01107
 Alpha  occ. eigenvalues --  -14.00618 -10.05098 -10.03197  -9.99942  -9.99108
 Alpha  occ. eigenvalues --   -9.98970  -9.96632  -9.96364  -9.96183  -9.96141
 Alpha  occ. eigenvalues --   -9.95893  -9.95877  -9.95772  -9.95342  -9.94684
 Alpha  occ. eigenvalues --   -9.94536  -9.94330  -9.94263  -9.93962  -9.93886
 Alpha  occ. eigenvalues --   -9.93795  -9.93784  -9.93497  -9.93433  -9.93402
 Alpha  occ. eigenvalues --   -9.93297  -9.93164  -9.93088  -9.93055  -9.93031
 Alpha  occ. eigenvalues --   -9.92716  -9.92651  -9.92637  -9.92548  -9.92531
 Alpha  occ. eigenvalues --   -9.92153  -9.92136  -9.92106  -9.92077  -9.91866
 Alpha  occ. eigenvalues --   -9.91790  -9.91725  -9.91725  -9.91686  -9.91502
 Alpha  occ. eigenvalues --   -9.91335  -9.91211  -9.91112  -9.91045  -9.91039
 Alpha  occ. eigenvalues --   -9.91018  -9.91004  -9.90847  -9.90692  -9.90690
 Alpha  occ. eigenvalues --   -9.90494  -2.91069  -1.71484  -1.70940  -1.70800
 Alpha  occ. eigenvalues --   -0.97864  -0.96129  -0.92196  -0.90604  -0.88562
 Alpha  occ. eigenvalues --   -0.88407  -0.86268  -0.85428  -0.84564  -0.82745
 Alpha  occ. eigenvalues --   -0.75330  -0.73901  -0.73296  -0.73043  -0.72586
 Alpha  occ. eigenvalues --   -0.72063  -0.71779  -0.71138  -0.70835  -0.70283
 Alpha  occ. eigenvalues --   -0.69173  -0.68866  -0.68492  -0.67265  -0.67025
 Alpha  occ. eigenvalues --   -0.66434  -0.65664  -0.65188  -0.64741  -0.64608
 Alpha  occ. eigenvalues --   -0.64046  -0.62326  -0.62228  -0.61889  -0.61072
 Alpha  occ. eigenvalues --   -0.60309  -0.60049  -0.59850  -0.59828  -0.58719
 Alpha  occ. eigenvalues --   -0.58466  -0.57495  -0.56611  -0.55636  -0.55347
 Alpha  occ. eigenvalues --   -0.53804  -0.53351  -0.52485  -0.52296  -0.51102
 Alpha  occ. eigenvalues --   -0.50989  -0.50709  -0.50501  -0.50199  -0.50150
 Alpha  occ. eigenvalues --   -0.49771  -0.49491  -0.49046  -0.47317  -0.46744
 Alpha  occ. eigenvalues --   -0.46008  -0.45568  -0.45550  -0.44629  -0.43971
 Alpha  occ. eigenvalues --   -0.43622  -0.43294  -0.43012  -0.42807  -0.42525
 Alpha  occ. eigenvalues --   -0.42081  -0.41877  -0.41497  -0.41255  -0.41004
 Alpha  occ. eigenvalues --   -0.40805  -0.40501  -0.40115  -0.39979  -0.39962
 Alpha  occ. eigenvalues --   -0.39805  -0.39495  -0.39419  -0.39308  -0.39200
 Alpha  occ. eigenvalues --   -0.39049  -0.38634  -0.38402  -0.38287  -0.38071
 Alpha  occ. eigenvalues --   -0.37877  -0.37676  -0.37590  -0.37581  -0.37269
 Alpha  occ. eigenvalues --   -0.37078  -0.36977  -0.36744  -0.36517  -0.36336
 Alpha  occ. eigenvalues --   -0.36229  -0.36031  -0.35994  -0.35881  -0.35557
 Alpha  occ. eigenvalues --   -0.35399  -0.35366  -0.35039  -0.34812  -0.34759
 Alpha  occ. eigenvalues --   -0.34598  -0.34367  -0.34193  -0.33928  -0.33753
 Alpha  occ. eigenvalues --   -0.33512  -0.33435  -0.33331  -0.33109  -0.33001
 Alpha  occ. eigenvalues --   -0.32823  -0.32621  -0.32574  -0.32434  -0.32392
 Alpha  occ. eigenvalues --   -0.32235  -0.32179  -0.31749  -0.31550  -0.31453
 Alpha  occ. eigenvalues --   -0.31095  -0.31047  -0.30813  -0.30647  -0.30545
 Alpha  occ. eigenvalues --   -0.30483  -0.30302  -0.30074  -0.29818  -0.29678
 Alpha  occ. eigenvalues --   -0.29498  -0.29437  -0.29342  -0.29023  -0.28899
 Alpha  occ. eigenvalues --   -0.28849  -0.28274  -0.27844  -0.27698  -0.27445
 Alpha  occ. eigenvalues --   -0.27403  -0.27042  -0.26912  -0.26896  -0.26449
 Alpha  occ. eigenvalues --   -0.26318  -0.26047  -0.25882  -0.25770  -0.25351
 Alpha  occ. eigenvalues --   -0.25313  -0.25218  -0.23487  -0.23385  -0.23041
 Alpha  occ. eigenvalues --   -0.22764  -0.22124  -0.21870  -0.21025  -0.20865
 Alpha  occ. eigenvalues --   -0.20648  -0.20176  -0.18616  -0.18230  -0.17090
 Alpha  occ. eigenvalues --   -0.15445
 Alpha virt. eigenvalues --   -0.11269  -0.07124  -0.05878  -0.04605  -0.04387
 Alpha virt. eigenvalues --   -0.03453  -0.02648  -0.01316  -0.01153   0.00313
 Alpha virt. eigenvalues --    0.01466   0.01974   0.02452   0.02723   0.02955

 Mulliken charges:
               1
     1  Mg   0.713599
     2  C    0.025960
     3  C   -0.070557
     4  C   -0.033107
     5  C   -0.093819
     6  N   -0.220166
     7  C   -0.084166
     8  C    0.026976
     9  C    0.002946
    10  C    0.008548
    11  C    0.134813
    12  C    0.090875
    13  C    0.168485
    14  C    0.103504
    15  O   -0.245691
    16  O   -0.261783
    17  N   -0.380347
    18  C    0.167683
    19  C   -0.141665
    20  C    0.012233
    21  C    0.156615
    22  C    0.186376
    23  C   -0.071539
    24  O   -0.151797
    25  C    0.100910
    26  N   -0.231644
    27  C   -0.007034
    28  C    0.040280
    29  C    0.075326
    30  C    0.026904
    31  C    0.130115
    32  C    0.068902
    33  C    0.065071
    34  N   -0.216745
    35  C    0.114850
    36  C   -0.188157
    37  C    0.135558
    38  C    0.031874
    39  C    0.148763
    40  C   -0.092133
    41  O   -0.135562
    42  C    0.084959
    43  C    0.118731
    44  O   -0.149793
    45  O   -0.294771
    46  C    0.219694
    47  C    0.302423
    48  C   -0.092123
    49  C   -0.173507
    50  C    0.168867
    51  C    0.099678
    52  C    0.103982
    53  C    0.094911
    54  C   -0.082844
    55  C    0.121909
    56  C    0.105913
    57  C    0.083358
    58  C    0.119339
    59  C   -0.075734
    60  C    0.104430
    61  C    0.067829
    62  C    0.071242
    63  C    0.124277
    64  C   -0.102178
    65  C    0.082236
    66  C    0.111031
    67  H   -0.070122
    68  H   -0.042601
    69  H   -0.061813
    70  H    0.021037
    71  H   -0.020025
    72  H   -0.000058
    73  H    0.001048
    74  H   -0.019588
    75  H   -0.028387
    76  H   -0.019589
    77  H   -0.022893
    78  H    0.000557
    79  H    0.014550
    80  H    0.006560
    81  H   -0.017376
    82  H    0.021329
    83  H   -0.006086
    84  H    0.003099
    85  H   -0.010718
    86  H   -0.038494
    87  H   -0.012688
    88  H    0.007504
    89  H   -0.025770
    90  H   -0.036114
    91  H   -0.024992
    92  H   -0.020041
    93  H   -0.006011
    94  H   -0.009319
    95  H   -0.003326
    96  H    0.021733
    97  H    0.002651
    98  H   -0.002686
    99  H    0.010879
   100  H    0.016629
   101  H    0.010778
   102  H   -0.007652
   103  H    0.007944
   104  H   -0.029614
   105  H   -0.025864
   106  H    0.008491
   107  H    0.002309
   108  H   -0.022836
   109  H   -0.039827
   110  H   -0.022492
   111  H   -0.014925
   112  H   -0.033133
   113  H   -0.030677
   114  H   -0.046838
   115  H   -0.023512
   116  H   -0.022223
   117  H   -0.000499
   118  H   -0.039443
   119  H   -0.040536
   120  H   -0.041452
   121  H   -0.045007
   122  H   -0.035584
   123  H   -0.041074
   124  H   -0.037024
   125  H   -0.034433
   126  H   -0.010886
   127  H   -0.031280
   128  H   -0.030104
   129  H   -0.041567
   130  H   -0.022515
   131  H   -0.013712
   132  H   -0.034075
   133  H   -0.036106
   134  H   -0.024233
   135  H   -0.012176
   136  H   -0.018364
   137  H   -0.015168
   138  H   -0.013130
   139  H   -0.020197
   140  H   -0.025358
 Sum of Mulliken charges =  -0.00000

 Dipole moment (field-independent basis, Debye):
    X=             -5.1202    Y=              2.1639    Z=              3.2339  Tot=              6.4309
 Quadrupole moment (field-independent basis, Debye-Ang):
   XX=           -374.1045   YY=           -428.6457   ZZ=           -411.7408
   XY=             29.9603   XZ=             17.0005   YZ=             -8.6878

 Normal termination of Gaussian 16 at Wed May  4 01:44:56 2022.
