 Gaussian 16, Revision A.03,
 Gaussian 16:  ES64L-G16RevA.03 25-Dec-2016

 -----------------------------------
 #p cam-b3lyp/Def2SVP td=(nstates=5)
 -----------------------------------

 --------------------------------------------------------
 step_1201_chromophore_18 TDDFT with cam-b3lyp functional
 --------------------------------------------------------
 Symbolic Z-matrix:
 Charge =  0 Multiplicity = 1

                         Standard orientation:
 ---------------------------------------------------------------------
 Center     Atomic      Atomic             Coordinates (Angstroms)
 Number     Number       Type             X           Y           Z
 ---------------------------------------------------------------------
      1         12           0        5.369335    1.180922    0.314646
      2          6           0        4.647659   -2.301290    0.004944
      3          6           0        1.995607    1.758553    0.295502
      4          6           0        6.086872    4.311397   -0.264412
      5          6           0        8.789424    0.265962    0.026064
      6          7           0        3.584589   -0.107103    0.183963
      7          6           0        3.520483   -1.487441    0.171642
      8          6           0        2.074470   -1.990274    0.270392
      9          6           0        1.203977   -0.665504    0.459950
     10          6           0        2.298374    0.406303    0.289326
     11          6           0       -0.008060   -0.540151   -0.417086
     12          6           0        1.825347   -2.973872    1.433623
     13          6           0        1.061951   -4.229454    1.138370
     14          6           0        0.028986   -4.162617   -0.017996
     15          8           0        0.365323   -4.458183   -1.204092
     16          8           0       -1.196381   -3.654183    0.295676
     17          7           0        4.254061    2.811161    0.102019
     18          6           0        2.797721    2.903515    0.193548
     19          6           0        2.383846    4.317715    0.062296
     20          6           0        3.604609    5.081398   -0.114074
     21          6           0        4.741788    4.067173   -0.181962
     22          6           0        0.981215    4.794082    0.114505
     23          6           0        3.853606    6.590224   -0.276893
     24          8           0        4.952506    7.099387   -0.261407
     25          6           0        2.691445    7.511112   -0.669320
     26          7           0        7.207516    2.111679    0.031196
     27          6           0        7.252755    3.474840   -0.219445
     28          6           0        8.704237    4.042963   -0.127729
     29          6           0        9.479446    2.692884    0.009804
     30          6           0        8.455918    1.619013    0.031540
     31          6           0        9.177064    5.092139   -1.127692
     32          6           0       10.520461    2.634781    1.135512
     33          6           0       10.000610    2.326503    2.531161
     34          7           0        6.525416   -0.611187   -0.016188
     35          6           0        7.887657   -0.821292   -0.065931
     36          6           0        8.223601   -2.235035   -0.394014
     37          6           0        6.957756   -2.868975   -0.281106
     38          6           0        5.990808   -1.835193   -0.027326
     39          6           0        9.648659   -2.814578   -0.713680
     40          6           0        6.224438   -4.093980   -0.288990
     41          8           0        6.680923   -5.226770   -0.393011
     42          6           0        4.706439   -3.796320   -0.102023
     43          6           0        3.980124   -4.423968   -1.279973
     44          8           0        3.934703   -4.099334   -2.439834
     45          8           0        3.415969   -5.618326   -0.869194
     46          6           0        2.765806   -6.606110   -1.705462
     47          6           0       -2.192661   -3.590403   -0.806460
     48          6           0       -3.545892   -3.000848   -0.316379
     49          6           0       -4.847435   -3.380338   -0.492362
     50          6           0       -5.353199   -4.726351   -0.933062
     51          6           0       -5.948886   -2.276758   -0.333924
     52          6           0       -7.004326   -2.483608    0.787892
     53          6           0       -7.057916   -1.224048    1.665718
     54          6           0       -8.343799   -0.993176    2.504293
     55          6           0       -8.003072   -0.872961    3.980046
     56          6           0       -9.236883    0.259098    2.050722
     57          6           0      -10.083297   -0.049373    0.874571
     58          6           0      -11.581548   -0.297865    1.189841
     59          6           0      -12.427760    0.990550    1.219894
     60          6           0      -12.756924    1.412183    2.629746
     61          6           0      -13.854149    0.800788    0.491080
     62          6           0      -13.697525    1.235861   -1.003768
     63          6           0      -14.353200    2.657173   -1.279034
     64          6           0      -15.198781    2.685819   -2.569143
     65          6           0      -14.677880    3.851539   -3.488215
     66          6           0      -16.665230    2.898345   -2.255998
     67          1           0        0.931760    1.941288    0.462337
     68          1           0        6.456891    5.307358   -0.516915
     69          1           0        9.845209    0.062849   -0.165786
     70          1           0        1.848863   -2.426606   -0.702899
     71          1           0        0.876806   -0.605292    1.498419
     72          1           0       -0.842656   -0.827117    0.223252
     73          1           0       -0.001926   -1.133052   -1.331444
     74          1           0       -0.077198    0.492445   -0.760493
     75          1           0        1.201566   -2.589516    2.240302
     76          1           0        2.761746   -3.175585    1.953961
     77          1           0        0.624381   -4.558353    2.080996
     78          1           0        1.804577   -4.991094    0.897814
     79          1           0        0.566212    4.660356   -0.884436
     80          1           0        0.975302    5.763994    0.612718
     81          1           0        0.339970    4.144411    0.709448
     82          1           0        2.083261    7.848872    0.169212
     83          1           0        2.059777    6.913853   -1.327984
     84          1           0        3.134084    8.305875   -1.271318
     85          1           0        8.853423    4.548493    0.826294
     86          1           0       10.136967    2.537562   -0.846581
     87          1           0        9.633421    5.969927   -0.668644
     88          1           0        8.425943    5.444452   -1.834872
     89          1           0        9.989663    4.680798   -1.726427
     90          1           0       10.936551    3.640233    1.202590
     91          1           0       11.436786    2.083436    0.922224
     92          1           0       10.320038    1.314097    2.776650
     93          1           0        8.932500    2.180564    2.692088
     94          1           0       10.361003    2.975377    3.328558
     95          1           0       10.338042   -2.594528    0.102196
     96          1           0       10.095966   -2.672553   -1.697694
     97          1           0        9.437501   -3.875234   -0.579885
     98          1           0        4.315478   -4.207044    0.828876
     99          1           0        3.340764   -7.530268   -1.655920
    100          1           0        2.717883   -6.146353   -2.692119
    101          1           0        1.752563   -6.874793   -1.406937
    102          1           0       -2.456842   -4.527732   -1.296893
    103          1           0       -1.765361   -2.975378   -1.597851
    104          1           0       -3.390007   -1.994919    0.073639
    105          1           0       -4.496570   -5.376626   -1.109479
    106          1           0       -6.008635   -4.659795   -1.800518
    107          1           0       -5.820289   -5.235285   -0.090187
    108          1           0       -6.386597   -2.166773   -1.326963
    109          1           0       -5.418951   -1.324532   -0.301274
    110          1           0       -6.567518   -3.308200    1.349850
    111          1           0       -7.969079   -2.776408    0.372890
    112          1           0       -6.938169   -0.380405    0.985694
    113          1           0       -6.185287   -1.229580    2.319471
    114          1           0       -8.978426   -1.867848    2.366050
    115          1           0       -7.392972   -1.752204    4.186552
    116          1           0       -8.902838   -1.078326    4.559721
    117          1           0       -7.552946    0.105247    4.151535
    118          1           0       -8.581962    1.117734    1.901937
    119          1           0       -9.955750    0.554341    2.815169
    120          1           0       -9.687296   -0.919740    0.351909
    121          1           0      -10.133624    0.812228    0.209188
    122          1           0      -11.584934   -0.814224    2.149119
    123          1           0      -11.958088   -0.983082    0.429975
    124          1           0      -11.922531    1.835254    0.752445
    125          1           0      -11.839965    1.716640    3.135527
    126          1           0      -13.301119    0.675563    3.220667
    127          1           0      -13.288680    2.361544    2.677793
    128          1           0      -14.661261    1.290640    1.034362
    129          1           0      -14.023375   -0.272423    0.584849
    130          1           0      -14.216183    0.372267   -1.422158
    131          1           0      -12.642463    1.294886   -1.272698
    132          1           0      -13.610796    3.451688   -1.346891
    133          1           0      -15.026594    2.885271   -0.453835
    134          1           0      -15.084809    1.721600   -3.064566
    135          1           0      -13.737149    4.368925   -3.297484
    136          1           0      -15.430017    4.633645   -3.588477
    137          1           0      -14.565526    3.327216   -4.437148
    138          1           0      -17.151017    1.924224   -2.196531
    139          1           0      -17.199009    3.569905   -2.929158
    140          1           0      -16.786337    3.431391   -1.312750
 ---------------------------------------------------------------------

 SCF Done:  E(RCAM-B3LYP) =  -3007.17051387     A.U. after   17 cycles

 Excitation energies and oscillator strengths:

 Excited State   1:      Singlet-A      1.6662 eV  744.12 nm  f=0.3823  <S**2>=0.000
     245 -> 248        0.18276
     246 -> 247        0.68444
     245 <- 248        0.10793
 This state for optimization and/or second-order correction.
 Total Energy, E(TD-HF/TD-DFT) =  -3007.10928248
 Copying the excited state density for this state as the 1-particle RhoCI density.

 Excited State   2:      Singlet-A      2.2251 eV  557.21 nm  f=0.0727  <S**2>=0.000
     245 -> 247        0.61716
     246 -> 248       -0.33213

 Excited State   3:      Singlet-A      3.3751 eV  367.35 nm  f=0.5860  <S**2>=0.000
     242 -> 247       -0.13382
     243 -> 247        0.14491
     244 -> 247        0.10871
     245 -> 247        0.30097
     246 -> 248        0.59075
     245 <- 247       -0.10493

 Excited State   4:      Singlet-A      3.4395 eV  360.47 nm  f=0.0131  <S**2>=0.000
     242 -> 247        0.52491
     242 -> 249        0.27504
     242 -> 250       -0.22020
     244 -> 247        0.24974

 Excited State   5:      Singlet-A      3.4696 eV  357.35 nm  f=0.0363  <S**2>=0.000
     242 -> 247       -0.18281
     243 -> 247       -0.11322
     244 -> 247        0.63729
     246 -> 248       -0.11641

 The electronic state is 1-A.
 Alpha  occ. eigenvalues --  -46.87727 -19.26600 -19.22315 -19.20002 -19.18995
 Alpha  occ. eigenvalues --  -19.18696 -19.18156 -14.42145 -14.41736 -14.39640
 Alpha  occ. eigenvalues --  -14.39000 -10.40492 -10.38631 -10.35242 -10.34261
 Alpha  occ. eigenvalues --  -10.33322 -10.31209 -10.30815 -10.30670 -10.30631
 Alpha  occ. eigenvalues --  -10.30349 -10.30015 -10.29758 -10.29529 -10.29463
 Alpha  occ. eigenvalues --  -10.28857 -10.28770 -10.28505 -10.28183 -10.28006
 Alpha  occ. eigenvalues --  -10.27876 -10.27875 -10.27831 -10.27451 -10.27392
 Alpha  occ. eigenvalues --  -10.27297 -10.27197 -10.27065 -10.26950 -10.26745
 Alpha  occ. eigenvalues --  -10.26715 -10.26432 -10.26358 -10.26313 -10.26221
 Alpha  occ. eigenvalues --  -10.26166 -10.25901 -10.25878 -10.25820 -10.25729
 Alpha  occ. eigenvalues --  -10.25701 -10.25544 -10.25538 -10.25411 -10.25203
 Alpha  occ. eigenvalues --  -10.25187 -10.24888 -10.24848 -10.24747 -10.24729
 Alpha  occ. eigenvalues --  -10.24702 -10.24620 -10.24482 -10.24279 -10.24258
 Alpha  occ. eigenvalues --  -10.24101  -3.16447  -1.91335  -1.90892  -1.90772
 Alpha  occ. eigenvalues --   -1.16241  -1.14624  -1.10744  -1.08998  -1.06364
 Alpha  occ. eigenvalues --   -1.06208  -1.03931  -1.03012  -1.02128  -1.00211
 Alpha  occ. eigenvalues --   -0.92470  -0.90784  -0.90119  -0.89849  -0.89232
 Alpha  occ. eigenvalues --   -0.88764  -0.88506  -0.87733  -0.87437  -0.86880
 Alpha  occ. eigenvalues --   -0.85565  -0.85330  -0.84784  -0.83365  -0.83108
 Alpha  occ. eigenvalues --   -0.82525  -0.81600  -0.81322  -0.80636  -0.80427
 Alpha  occ. eigenvalues --   -0.79847  -0.77998  -0.77963  -0.77415  -0.76439
 Alpha  occ. eigenvalues --   -0.75658  -0.75386  -0.75166  -0.75109  -0.73922
 Alpha  occ. eigenvalues --   -0.73520  -0.72507  -0.71507  -0.70467  -0.69972
 Alpha  occ. eigenvalues --   -0.68444  -0.67833  -0.66871  -0.66685  -0.65358
 Alpha  occ. eigenvalues --   -0.65167  -0.64804  -0.64430  -0.64223  -0.64065
 Alpha  occ. eigenvalues --   -0.63598  -0.63470  -0.62963  -0.60883  -0.60268
 Alpha  occ. eigenvalues --   -0.59601  -0.59105  -0.59011  -0.57906  -0.57525
 Alpha  occ. eigenvalues --   -0.56972  -0.56539  -0.56120  -0.56002  -0.55582
 Alpha  occ. eigenvalues --   -0.55037  -0.54857  -0.54561  -0.54343  -0.53981
 Alpha  occ. eigenvalues --   -0.53501  -0.53118  -0.53010  -0.52807  -0.52617
 Alpha  occ. eigenvalues --   -0.52394  -0.52295  -0.52030  -0.51928  -0.51824
 Alpha  occ. eigenvalues --   -0.51514  -0.51447  -0.50886  -0.50705  -0.50529
 Alpha  occ. eigenvalues --   -0.50438  -0.50262  -0.49883  -0.49756  -0.49573
 Alpha  occ. eigenvalues --   -0.49422  -0.49171  -0.49095  -0.48910  -0.48825
 Alpha  occ. eigenvalues --   -0.48563  -0.48384  -0.48154  -0.47969  -0.47782
 Alpha  occ. eigenvalues --   -0.47604  -0.47463  -0.47319  -0.46988  -0.46581
 Alpha  occ. eigenvalues --   -0.46508  -0.46315  -0.46090  -0.45721  -0.45467
 Alpha  occ. eigenvalues --   -0.45386  -0.45315  -0.45201  -0.44862  -0.44724
 Alpha  occ. eigenvalues --   -0.44586  -0.44299  -0.44122  -0.44056  -0.43853
 Alpha  occ. eigenvalues --   -0.43758  -0.43747  -0.43428  -0.43361  -0.42929
 Alpha  occ. eigenvalues --   -0.42853  -0.42657  -0.42534  -0.42200  -0.41968
 Alpha  occ. eigenvalues --   -0.41886  -0.41633  -0.41253  -0.41088  -0.40986
 Alpha  occ. eigenvalues --   -0.40646  -0.40513  -0.40408  -0.40179  -0.39868
 Alpha  occ. eigenvalues --   -0.39836  -0.39179  -0.39042  -0.38572  -0.38540
 Alpha  occ. eigenvalues --   -0.38318  -0.38228  -0.37936  -0.37758  -0.37697
 Alpha  occ. eigenvalues --   -0.37494  -0.37163  -0.36494  -0.36443  -0.36224
 Alpha  occ. eigenvalues --   -0.35971  -0.35756  -0.34442  -0.34251  -0.34047
 Alpha  occ. eigenvalues --   -0.33450  -0.33057  -0.32643  -0.31114  -0.30930
 Alpha  occ. eigenvalues --   -0.30655  -0.30367  -0.29961  -0.29497  -0.23894
 Alpha  occ. eigenvalues --   -0.20584
 Alpha virt. eigenvalues --   -0.08289  -0.01969   0.00471   0.02327   0.02526
 Alpha virt. eigenvalues --    0.03439   0.04033   0.05971   0.06473   0.07271
 Alpha virt. eigenvalues --    0.07854   0.08691   0.08941   0.09107   0.09242

 Mulliken charges:
               1
     1  Mg   0.845895
     2  C   -0.004342
     3  C   -0.088614
     4  C   -0.056518
     5  C   -0.093789
     6  N   -0.290510
     7  C   -0.031299
     8  C   -0.038178
     9  C   -0.040498
    10  C    0.030599
    11  C    0.075031
    12  C    0.038000
    13  C    0.106292
    14  C    0.174156
    15  O   -0.286198
    16  O   -0.324692
    17  N   -0.465743
    18  C    0.174849
    19  C   -0.145906
    20  C   -0.053629
    21  C    0.181373
    22  C    0.123756
    23  C    0.009041
    24  O   -0.191048
    25  C    0.023139
    26  N   -0.305458
    27  C    0.018800
    28  C   -0.016421
    29  C    0.017590
    30  C    0.040162
    31  C    0.067604
    32  C    0.014598
    33  C   -0.000235
    34  N   -0.300271
    35  C    0.111522
    36  C   -0.172266
    37  C    0.050246
    38  C    0.065314
    39  C    0.100995
    40  C    0.005774
    41  O   -0.173840
    42  C    0.009237
    43  C    0.207436
    44  O   -0.186567
    45  O   -0.361913
    46  C    0.187449
    47  C    0.273062
    48  C   -0.110340
    49  C   -0.193638
    50  C    0.105677
    51  C    0.045063
    52  C    0.045919
    53  C    0.040109
    54  C   -0.136349
    55  C    0.062693
    56  C    0.054181
    57  C    0.028949
    58  C    0.063330
    59  C   -0.131107
    60  C    0.045412
    61  C    0.016830
    62  C    0.014979
    63  C    0.072916
    64  C   -0.163058
    65  C    0.024338
    66  C    0.050895
    67  H   -0.036192
    68  H   -0.005845
    69  H   -0.026421
    70  H    0.053503
    71  H    0.014877
    72  H    0.022383
    73  H    0.024973
    74  H    0.006870
    75  H    0.003234
    76  H    0.011916
    77  H    0.012634
    78  H    0.032637
    79  H    0.042710
    80  H    0.031524
    81  H    0.011594
    82  H    0.047784
    83  H    0.021740
    84  H    0.036477
    85  H    0.023717
    86  H   -0.001590
    87  H    0.013294
    88  H    0.032325
    89  H    0.000359
    90  H   -0.006879
    91  H    0.004623
    92  H    0.004262
    93  H    0.017456
    94  H    0.015648
    95  H    0.021546
    96  H    0.047042
    97  H    0.029967
    98  H    0.039405
    99  H    0.031580
   100  H    0.042687
   101  H    0.029398
   102  H    0.019496
   103  H    0.036651
   104  H   -0.001860
   105  H   -0.000695
   106  H    0.032449
   107  H    0.027059
   108  H    0.006361
   109  H   -0.008497
   110  H    0.005173
   111  H    0.011597
   112  H   -0.005191
   113  H   -0.000488
   114  H   -0.015394
   115  H    0.001483
   116  H    0.003049
   117  H    0.021548
   118  H   -0.010032
   119  H   -0.014584
   120  H   -0.014428
   121  H   -0.015525
   122  H   -0.007821
   123  H   -0.010054
   124  H   -0.006870
   125  H   -0.009334
   126  H    0.013036
   127  H   -0.004682
   128  H   -0.000810
   129  H   -0.012278
   130  H    0.005577
   131  H    0.011584
   132  H   -0.005487
   133  H   -0.009487
   134  H    0.007281
   135  H    0.011320
   136  H    0.004934
   137  H    0.008451
   138  H    0.011015
   139  H    0.004820
   140  H   -0.001391
 Sum of Mulliken charges =  -0.00000

 Dipole moment (field-independent basis, Debye):
    X=             -5.4646    Y=              2.6245    Z=              3.3880  Tot=              6.9446
 Quadrupole moment (field-independent basis, Debye-Ang):
   XX=           -373.6547   YY=           -424.1753   ZZ=           -412.1313
   XY=             30.7109   XZ=             17.0322   YZ=             -9.6631

 Normal termination of Gaussian 16 at Wed May  4 00:43:10 2022.
