 Gaussian 16, Revision A.03,
 Gaussian 16:  ES64L-G16RevA.03 25-Dec-2016

 ---------------------------------
 #p PBE1PBE/Def2SVP td=(nstates=5)
 ---------------------------------

 ------------------------------------------------------
 step_1201_chromophore_18 TDDFT with PBE1PBE functional
 ------------------------------------------------------
 Symbolic Z-matrix:
 Charge =  0 Multiplicity = 1

                         Standard orientation:
 ---------------------------------------------------------------------
 Center     Atomic      Atomic             Coordinates (Angstroms)
 Number     Number       Type             X           Y           Z
 ---------------------------------------------------------------------
      1         12           0        5.369335    1.180922    0.314646
      2          6           0        4.647659   -2.301290    0.004944
      3          6           0        1.995607    1.758553    0.295502
      4          6           0        6.086872    4.311397   -0.264412
      5          6           0        8.789424    0.265962    0.026064
      6          7           0        3.584589   -0.107103    0.183963
      7          6           0        3.520483   -1.487441    0.171642
      8          6           0        2.074470   -1.990274    0.270392
      9          6           0        1.203977   -0.665504    0.459950
     10          6           0        2.298374    0.406303    0.289326
     11          6           0       -0.008060   -0.540151   -0.417086
     12          6           0        1.825347   -2.973872    1.433623
     13          6           0        1.061951   -4.229454    1.138370
     14          6           0        0.028986   -4.162617   -0.017996
     15          8           0        0.365323   -4.458183   -1.204092
     16          8           0       -1.196381   -3.654183    0.295676
     17          7           0        4.254061    2.811161    0.102019
     18          6           0        2.797721    2.903515    0.193548
     19          6           0        2.383846    4.317715    0.062296
     20          6           0        3.604609    5.081398   -0.114074
     21          6           0        4.741788    4.067173   -0.181962
     22          6           0        0.981215    4.794082    0.114505
     23          6           0        3.853606    6.590224   -0.276893
     24          8           0        4.952506    7.099387   -0.261407
     25          6           0        2.691445    7.511112   -0.669320
     26          7           0        7.207516    2.111679    0.031196
     27          6           0        7.252755    3.474840   -0.219445
     28          6           0        8.704237    4.042963   -0.127729
     29          6           0        9.479446    2.692884    0.009804
     30          6           0        8.455918    1.619013    0.031540
     31          6           0        9.177064    5.092139   -1.127692
     32          6           0       10.520461    2.634781    1.135512
     33          6           0       10.000610    2.326503    2.531161
     34          7           0        6.525416   -0.611187   -0.016188
     35          6           0        7.887657   -0.821292   -0.065931
     36          6           0        8.223601   -2.235035   -0.394014
     37          6           0        6.957756   -2.868975   -0.281106
     38          6           0        5.990808   -1.835193   -0.027326
     39          6           0        9.648659   -2.814578   -0.713680
     40          6           0        6.224438   -4.093980   -0.288990
     41          8           0        6.680923   -5.226770   -0.393011
     42          6           0        4.706439   -3.796320   -0.102023
     43          6           0        3.980124   -4.423968   -1.279973
     44          8           0        3.934703   -4.099334   -2.439834
     45          8           0        3.415969   -5.618326   -0.869194
     46          6           0        2.765806   -6.606110   -1.705462
     47          6           0       -2.192661   -3.590403   -0.806460
     48          6           0       -3.545892   -3.000848   -0.316379
     49          6           0       -4.847435   -3.380338   -0.492362
     50          6           0       -5.353199   -4.726351   -0.933062
     51          6           0       -5.948886   -2.276758   -0.333924
     52          6           0       -7.004326   -2.483608    0.787892
     53          6           0       -7.057916   -1.224048    1.665718
     54          6           0       -8.343799   -0.993176    2.504293
     55          6           0       -8.003072   -0.872961    3.980046
     56          6           0       -9.236883    0.259098    2.050722
     57          6           0      -10.083297   -0.049373    0.874571
     58          6           0      -11.581548   -0.297865    1.189841
     59          6           0      -12.427760    0.990550    1.219894
     60          6           0      -12.756924    1.412183    2.629746
     61          6           0      -13.854149    0.800788    0.491080
     62          6           0      -13.697525    1.235861   -1.003768
     63          6           0      -14.353200    2.657173   -1.279034
     64          6           0      -15.198781    2.685819   -2.569143
     65          6           0      -14.677880    3.851539   -3.488215
     66          6           0      -16.665230    2.898345   -2.255998
     67          1           0        0.931760    1.941288    0.462337
     68          1           0        6.456891    5.307358   -0.516915
     69          1           0        9.845209    0.062849   -0.165786
     70          1           0        1.848863   -2.426606   -0.702899
     71          1           0        0.876806   -0.605292    1.498419
     72          1           0       -0.842656   -0.827117    0.223252
     73          1           0       -0.001926   -1.133052   -1.331444
     74          1           0       -0.077198    0.492445   -0.760493
     75          1           0        1.201566   -2.589516    2.240302
     76          1           0        2.761746   -3.175585    1.953961
     77          1           0        0.624381   -4.558353    2.080996
     78          1           0        1.804577   -4.991094    0.897814
     79          1           0        0.566212    4.660356   -0.884436
     80          1           0        0.975302    5.763994    0.612718
     81          1           0        0.339970    4.144411    0.709448
     82          1           0        2.083261    7.848872    0.169212
     83          1           0        2.059777    6.913853   -1.327984
     84          1           0        3.134084    8.305875   -1.271318
     85          1           0        8.853423    4.548493    0.826294
     86          1           0       10.136967    2.537562   -0.846581
     87          1           0        9.633421    5.969927   -0.668644
     88          1           0        8.425943    5.444452   -1.834872
     89          1           0        9.989663    4.680798   -1.726427
     90          1           0       10.936551    3.640233    1.202590
     91          1           0       11.436786    2.083436    0.922224
     92          1           0       10.320038    1.314097    2.776650
     93          1           0        8.932500    2.180564    2.692088
     94          1           0       10.361003    2.975377    3.328558
     95          1           0       10.338042   -2.594528    0.102196
     96          1           0       10.095966   -2.672553   -1.697694
     97          1           0        9.437501   -3.875234   -0.579885
     98          1           0        4.315478   -4.207044    0.828876
     99          1           0        3.340764   -7.530268   -1.655920
    100          1           0        2.717883   -6.146353   -2.692119
    101          1           0        1.752563   -6.874793   -1.406937
    102          1           0       -2.456842   -4.527732   -1.296893
    103          1           0       -1.765361   -2.975378   -1.597851
    104          1           0       -3.390007   -1.994919    0.073639
    105          1           0       -4.496570   -5.376626   -1.109479
    106          1           0       -6.008635   -4.659795   -1.800518
    107          1           0       -5.820289   -5.235285   -0.090187
    108          1           0       -6.386597   -2.166773   -1.326963
    109          1           0       -5.418951   -1.324532   -0.301274
    110          1           0       -6.567518   -3.308200    1.349850
    111          1           0       -7.969079   -2.776408    0.372890
    112          1           0       -6.938169   -0.380405    0.985694
    113          1           0       -6.185287   -1.229580    2.319471
    114          1           0       -8.978426   -1.867848    2.366050
    115          1           0       -7.392972   -1.752204    4.186552
    116          1           0       -8.902838   -1.078326    4.559721
    117          1           0       -7.552946    0.105247    4.151535
    118          1           0       -8.581962    1.117734    1.901937
    119          1           0       -9.955750    0.554341    2.815169
    120          1           0       -9.687296   -0.919740    0.351909
    121          1           0      -10.133624    0.812228    0.209188
    122          1           0      -11.584934   -0.814224    2.149119
    123          1           0      -11.958088   -0.983082    0.429975
    124          1           0      -11.922531    1.835254    0.752445
    125          1           0      -11.839965    1.716640    3.135527
    126          1           0      -13.301119    0.675563    3.220667
    127          1           0      -13.288680    2.361544    2.677793
    128          1           0      -14.661261    1.290640    1.034362
    129          1           0      -14.023375   -0.272423    0.584849
    130          1           0      -14.216183    0.372267   -1.422158
    131          1           0      -12.642463    1.294886   -1.272698
    132          1           0      -13.610796    3.451688   -1.346891
    133          1           0      -15.026594    2.885271   -0.453835
    134          1           0      -15.084809    1.721600   -3.064566
    135          1           0      -13.737149    4.368925   -3.297484
    136          1           0      -15.430017    4.633645   -3.588477
    137          1           0      -14.565526    3.327216   -4.437148
    138          1           0      -17.151017    1.924224   -2.196531
    139          1           0      -17.199009    3.569905   -2.929158
    140          1           0      -16.786337    3.431391   -1.312750
 ---------------------------------------------------------------------

 SCF Done:  E(RPBE1PBE) =  -3005.35828256     A.U. after   15 cycles

 Excitation energies and oscillator strengths:

 Excited State   1:      Singlet-A      1.8242 eV  679.65 nm  f=0.3725  <S**2>=0.000
     245 -> 248        0.17313
     246 -> 247        0.69224
     246 <- 247       -0.10864
 This state for optimization and/or second-order correction.
 Total Energy, E(TD-HF/TD-DFT) =  -3005.29124348
 Copying the excited state density for this state as the 1-particle RhoCI density.

 Excited State   2:      Singlet-A      2.2242 eV  557.44 nm  f=0.0769  <S**2>=0.000
     245 -> 247        0.63388
     246 -> 248       -0.29673

 Excited State   3:      Singlet-A      2.9532 eV  419.83 nm  f=0.0006  <S**2>=0.000
     243 -> 247        0.62477
     243 -> 249        0.16046
     243 -> 250       -0.10845
     244 -> 247        0.24316

 Excited State   4:      Singlet-A      3.1165 eV  397.83 nm  f=0.0142  <S**2>=0.000
     243 -> 247       -0.25579
     244 -> 247        0.63780

 Excited State   5:      Singlet-A      3.1295 eV  396.18 nm  f=0.0117  <S**2>=0.000
     241 -> 247        0.22107
     242 -> 247        0.60966
     242 -> 248        0.10859
     242 -> 249       -0.13591
     246 -> 248        0.11236

 The electronic state is 1-A.
 Alpha  occ. eigenvalues --  -46.91160 -19.27243 -19.23002 -19.20318 -19.19137
 Alpha  occ. eigenvalues --  -19.18888 -19.18386 -14.41667 -14.41258 -14.39327
 Alpha  occ. eigenvalues --  -14.38669 -10.37573 -10.35636 -10.32323 -10.31403
 Alpha  occ. eigenvalues --  -10.30722 -10.28954 -10.28596 -10.28382 -10.28335
 Alpha  occ. eigenvalues --  -10.28003 -10.27778 -10.27334 -10.27062 -10.26995
 Alpha  occ. eigenvalues --  -10.26628 -10.26469 -10.26250 -10.25796 -10.25716
 Alpha  occ. eigenvalues --  -10.25692 -10.25669 -10.25664 -10.25112 -10.24881
 Alpha  occ. eigenvalues --  -10.24825 -10.24811 -10.24799 -10.24664 -10.24356
 Alpha  occ. eigenvalues --  -10.24102 -10.24036 -10.24020 -10.23812 -10.23776
 Alpha  occ. eigenvalues --  -10.23771 -10.23607 -10.23362 -10.23269 -10.23249
 Alpha  occ. eigenvalues --  -10.23216 -10.23213 -10.23105 -10.22976 -10.22963
 Alpha  occ. eigenvalues --  -10.22764 -10.22444 -10.22358 -10.22283 -10.22280
 Alpha  occ. eigenvalues --  -10.22280 -10.22005 -10.21997 -10.21698 -10.21646
 Alpha  occ. eigenvalues --  -10.21490  -3.13453  -1.86283  -1.85818  -1.85702
 Alpha  occ. eigenvalues --   -1.11042  -1.09381  -1.05428  -1.03743  -1.01197
 Alpha  occ. eigenvalues --   -1.01051  -0.98577  -0.97674  -0.96746  -0.94807
 Alpha  occ. eigenvalues --   -0.86836  -0.84888  -0.84301  -0.83991  -0.83529
 Alpha  occ. eigenvalues --   -0.82874  -0.82797  -0.81860  -0.81723  -0.81152
 Alpha  occ. eigenvalues --   -0.79823  -0.79676  -0.78959  -0.77657  -0.77334
 Alpha  occ. eigenvalues --   -0.76810  -0.75805  -0.75476  -0.74799  -0.74703
 Alpha  occ. eigenvalues --   -0.74201  -0.72244  -0.72237  -0.71719  -0.70635
 Alpha  occ. eigenvalues --   -0.70005  -0.69501  -0.69480  -0.69286  -0.68110
 Alpha  occ. eigenvalues --   -0.67823  -0.66956  -0.65928  -0.64779  -0.64339
 Alpha  occ. eigenvalues --   -0.62885  -0.62098  -0.61228  -0.61015  -0.59676
 Alpha  occ. eigenvalues --   -0.59534  -0.59316  -0.58920  -0.58591  -0.58335
 Alpha  occ. eigenvalues --   -0.58199  -0.57628  -0.57108  -0.55466  -0.54669
 Alpha  occ. eigenvalues --   -0.54118  -0.53670  -0.53584  -0.52563  -0.51937
 Alpha  occ. eigenvalues --   -0.51602  -0.50929  -0.50660  -0.50543  -0.50094
 Alpha  occ. eigenvalues --   -0.49511  -0.49247  -0.49158  -0.48879  -0.48505
 Alpha  occ. eigenvalues --   -0.48012  -0.47598  -0.47530  -0.47212  -0.47075
 Alpha  occ. eigenvalues --   -0.46926  -0.46814  -0.46700  -0.46468  -0.46340
 Alpha  occ. eigenvalues --   -0.46024  -0.45972  -0.45524  -0.45250  -0.45038
 Alpha  occ. eigenvalues --   -0.44946  -0.44840  -0.44465  -0.44304  -0.44173
 Alpha  occ. eigenvalues --   -0.43984  -0.43776  -0.43671  -0.43498  -0.43424
 Alpha  occ. eigenvalues --   -0.43207  -0.43028  -0.42798  -0.42557  -0.42423
 Alpha  occ. eigenvalues --   -0.42234  -0.42195  -0.41912  -0.41652  -0.41297
 Alpha  occ. eigenvalues --   -0.41094  -0.40980  -0.40733  -0.40495  -0.40216
 Alpha  occ. eigenvalues --   -0.40114  -0.40062  -0.39940  -0.39528  -0.39379
 Alpha  occ. eigenvalues --   -0.39342  -0.39110  -0.38942  -0.38767  -0.38627
 Alpha  occ. eigenvalues --   -0.38523  -0.38390  -0.38248  -0.38057  -0.37689
 Alpha  occ. eigenvalues --   -0.37629  -0.37481  -0.37332  -0.36998  -0.36882
 Alpha  occ. eigenvalues --   -0.36643  -0.36504  -0.36023  -0.35949  -0.35873
 Alpha  occ. eigenvalues --   -0.35376  -0.35326  -0.35307  -0.35112  -0.34782
 Alpha  occ. eigenvalues --   -0.34646  -0.33952  -0.33933  -0.33389  -0.33350
 Alpha  occ. eigenvalues --   -0.33080  -0.32996  -0.32922  -0.32684  -0.32490
 Alpha  occ. eigenvalues --   -0.32487  -0.32150  -0.31530  -0.31358  -0.31270
 Alpha  occ. eigenvalues --   -0.30827  -0.30662  -0.29534  -0.29327  -0.28824
 Alpha  occ. eigenvalues --   -0.28634  -0.28058  -0.27899  -0.26613  -0.26248
 Alpha  occ. eigenvalues --   -0.25628  -0.25512  -0.25205  -0.25123  -0.20795
 Alpha  occ. eigenvalues --   -0.18286
 Alpha virt. eigenvalues --   -0.10801  -0.05452  -0.03662  -0.02059  -0.01180
 Alpha virt. eigenvalues --   -0.00486  -0.00334   0.01550   0.01850   0.03375
 Alpha virt. eigenvalues --    0.04460   0.04719   0.05402   0.05672   0.05864

 Mulliken charges:
               1
     1  Mg   0.998310
     2  C   -0.012627
     3  C   -0.090365
     4  C   -0.062417
     5  C   -0.073677
     6  N   -0.396633
     7  C    0.050477
     8  C   -0.115454
     9  C   -0.114158
    10  C    0.072034
    11  C    0.015123
    12  C   -0.007736
    13  C    0.031247
    14  C    0.232109
    15  O   -0.314000
    16  O   -0.354406
    17  N   -0.573652
    18  C    0.194027
    19  C   -0.175614
    20  C   -0.097366
    21  C    0.212829
    22  C    0.060892
    23  C    0.063984
    24  O   -0.227958
    25  C   -0.051988
    26  N   -0.414895
    27  C    0.055769
    28  C   -0.094595
    29  C   -0.053925
    30  C    0.073953
    31  C    0.010073
    32  C   -0.050493
    33  C   -0.070199
    34  N   -0.419240
    35  C    0.118223
    36  C   -0.163471
    37  C   -0.008031
    38  C    0.114290
    39  C    0.044228
    40  C    0.101416
    41  O   -0.219853
    42  C   -0.104636
    43  C    0.300313
    44  O   -0.225575
    45  O   -0.396590
    46  C    0.137519
    47  C    0.228838
    48  C   -0.123640
    49  C   -0.238813
    50  C    0.044166
    51  C   -0.009372
    52  C   -0.024117
    53  C   -0.011086
    54  C   -0.221301
    55  C   -0.004004
    56  C   -0.000944
    57  C   -0.039547
    58  C    0.009591
    59  C   -0.217165
    60  C   -0.016594
    61  C   -0.034041
    62  C   -0.052265
    63  C    0.023926
    64  C   -0.257396
    65  C   -0.035059
    66  C   -0.007896
    67  H   -0.003782
    68  H    0.027511
    69  H    0.004794
    70  H    0.092190
    71  H    0.051660
    72  H    0.052041
    73  H    0.051669
    74  H    0.034872
    75  H    0.034914
    76  H    0.044257
    77  H    0.044817
    78  H    0.068357
    79  H    0.070260
    80  H    0.059910
    81  H    0.039354
    82  H    0.072733
    83  H    0.049757
    84  H    0.063433
    85  H    0.062468
    86  H    0.037499
    87  H    0.040310
    88  H    0.058452
    89  H    0.028203
    90  H    0.027999
    91  H    0.035606
    92  H    0.032717
    93  H    0.046604
    94  H    0.043512
    95  H    0.048837
    96  H    0.073079
    97  H    0.058880
    98  H    0.076829
    99  H    0.053723
   100  H    0.062465
   101  H    0.050600
   102  H    0.046826
   103  H    0.064067
   104  H    0.027515
   105  H    0.027844
   106  H    0.058528
   107  H    0.054527
   108  H    0.039913
   109  H    0.021719
   110  H    0.040734
   111  H    0.041782
   112  H    0.028013
   113  H    0.031922
   114  H    0.023867
   115  H    0.031056
   116  H    0.032003
   117  H    0.049054
   118  H    0.022017
   119  H    0.021173
   120  H    0.021348
   121  H    0.018788
   122  H    0.025433
   123  H    0.022326
   124  H    0.030387
   125  H    0.020014
   126  H    0.040583
   127  H    0.024582
   128  H    0.029801
   129  H    0.020690
   130  H    0.037090
   131  H    0.044718
   132  H    0.026258
   133  H    0.022377
   134  H    0.043760
   135  H    0.037465
   136  H    0.031928
   137  H    0.036390
   138  H    0.039073
   139  H    0.031982
   140  H    0.025373
 Sum of Mulliken charges =  -0.00000

 Dipole moment (field-independent basis, Debye):
    X=             -5.3542    Y=              2.5490    Z=              3.4187  Tot=              6.8449
 Quadrupole moment (field-independent basis, Debye-Ang):
   XX=           -366.2597   YY=           -421.6970   ZZ=           -409.8130
   XY=             31.3657   XZ=             17.0716   YZ=             -9.5624

 Normal termination of Gaussian 16 at Wed May  4 01:04:28 2022.
