 Gaussian 16, Revision A.03,
 Gaussian 16:  ES64L-G16RevA.03 25-Dec-2016

 --------------------------------
 #p wB97XD/Def2SVP td=(nstates=5)
 --------------------------------

 -----------------------------------------------------
 step_1201_chromophore_18 TDDFT with wB97XD functional
 -----------------------------------------------------
 Symbolic Z-matrix:
 Charge =  0 Multiplicity = 1

                         Standard orientation:
 ---------------------------------------------------------------------
 Center     Atomic      Atomic             Coordinates (Angstroms)
 Number     Number       Type             X           Y           Z
 ---------------------------------------------------------------------
      1         12           0        5.369335    1.180922    0.314646
      2          6           0        4.647659   -2.301290    0.004944
      3          6           0        1.995607    1.758553    0.295502
      4          6           0        6.086872    4.311397   -0.264412
      5          6           0        8.789424    0.265962    0.026064
      6          7           0        3.584589   -0.107103    0.183963
      7          6           0        3.520483   -1.487441    0.171642
      8          6           0        2.074470   -1.990274    0.270392
      9          6           0        1.203977   -0.665504    0.459950
     10          6           0        2.298374    0.406303    0.289326
     11          6           0       -0.008060   -0.540151   -0.417086
     12          6           0        1.825347   -2.973872    1.433623
     13          6           0        1.061951   -4.229454    1.138370
     14          6           0        0.028986   -4.162617   -0.017996
     15          8           0        0.365323   -4.458183   -1.204092
     16          8           0       -1.196381   -3.654183    0.295676
     17          7           0        4.254061    2.811161    0.102019
     18          6           0        2.797721    2.903515    0.193548
     19          6           0        2.383846    4.317715    0.062296
     20          6           0        3.604609    5.081398   -0.114074
     21          6           0        4.741788    4.067173   -0.181962
     22          6           0        0.981215    4.794082    0.114505
     23          6           0        3.853606    6.590224   -0.276893
     24          8           0        4.952506    7.099387   -0.261407
     25          6           0        2.691445    7.511112   -0.669320
     26          7           0        7.207516    2.111679    0.031196
     27          6           0        7.252755    3.474840   -0.219445
     28          6           0        8.704237    4.042963   -0.127729
     29          6           0        9.479446    2.692884    0.009804
     30          6           0        8.455918    1.619013    0.031540
     31          6           0        9.177064    5.092139   -1.127692
     32          6           0       10.520461    2.634781    1.135512
     33          6           0       10.000610    2.326503    2.531161
     34          7           0        6.525416   -0.611187   -0.016188
     35          6           0        7.887657   -0.821292   -0.065931
     36          6           0        8.223601   -2.235035   -0.394014
     37          6           0        6.957756   -2.868975   -0.281106
     38          6           0        5.990808   -1.835193   -0.027326
     39          6           0        9.648659   -2.814578   -0.713680
     40          6           0        6.224438   -4.093980   -0.288990
     41          8           0        6.680923   -5.226770   -0.393011
     42          6           0        4.706439   -3.796320   -0.102023
     43          6           0        3.980124   -4.423968   -1.279973
     44          8           0        3.934703   -4.099334   -2.439834
     45          8           0        3.415969   -5.618326   -0.869194
     46          6           0        2.765806   -6.606110   -1.705462
     47          6           0       -2.192661   -3.590403   -0.806460
     48          6           0       -3.545892   -3.000848   -0.316379
     49          6           0       -4.847435   -3.380338   -0.492362
     50          6           0       -5.353199   -4.726351   -0.933062
     51          6           0       -5.948886   -2.276758   -0.333924
     52          6           0       -7.004326   -2.483608    0.787892
     53          6           0       -7.057916   -1.224048    1.665718
     54          6           0       -8.343799   -0.993176    2.504293
     55          6           0       -8.003072   -0.872961    3.980046
     56          6           0       -9.236883    0.259098    2.050722
     57          6           0      -10.083297   -0.049373    0.874571
     58          6           0      -11.581548   -0.297865    1.189841
     59          6           0      -12.427760    0.990550    1.219894
     60          6           0      -12.756924    1.412183    2.629746
     61          6           0      -13.854149    0.800788    0.491080
     62          6           0      -13.697525    1.235861   -1.003768
     63          6           0      -14.353200    2.657173   -1.279034
     64          6           0      -15.198781    2.685819   -2.569143
     65          6           0      -14.677880    3.851539   -3.488215
     66          6           0      -16.665230    2.898345   -2.255998
     67          1           0        0.931760    1.941288    0.462337
     68          1           0        6.456891    5.307358   -0.516915
     69          1           0        9.845209    0.062849   -0.165786
     70          1           0        1.848863   -2.426606   -0.702899
     71          1           0        0.876806   -0.605292    1.498419
     72          1           0       -0.842656   -0.827117    0.223252
     73          1           0       -0.001926   -1.133052   -1.331444
     74          1           0       -0.077198    0.492445   -0.760493
     75          1           0        1.201566   -2.589516    2.240302
     76          1           0        2.761746   -3.175585    1.953961
     77          1           0        0.624381   -4.558353    2.080996
     78          1           0        1.804577   -4.991094    0.897814
     79          1           0        0.566212    4.660356   -0.884436
     80          1           0        0.975302    5.763994    0.612718
     81          1           0        0.339970    4.144411    0.709448
     82          1           0        2.083261    7.848872    0.169212
     83          1           0        2.059777    6.913853   -1.327984
     84          1           0        3.134084    8.305875   -1.271318
     85          1           0        8.853423    4.548493    0.826294
     86          1           0       10.136967    2.537562   -0.846581
     87          1           0        9.633421    5.969927   -0.668644
     88          1           0        8.425943    5.444452   -1.834872
     89          1           0        9.989663    4.680798   -1.726427
     90          1           0       10.936551    3.640233    1.202590
     91          1           0       11.436786    2.083436    0.922224
     92          1           0       10.320038    1.314097    2.776650
     93          1           0        8.932500    2.180564    2.692088
     94          1           0       10.361003    2.975377    3.328558
     95          1           0       10.338042   -2.594528    0.102196
     96          1           0       10.095966   -2.672553   -1.697694
     97          1           0        9.437501   -3.875234   -0.579885
     98          1           0        4.315478   -4.207044    0.828876
     99          1           0        3.340764   -7.530268   -1.655920
    100          1           0        2.717883   -6.146353   -2.692119
    101          1           0        1.752563   -6.874793   -1.406937
    102          1           0       -2.456842   -4.527732   -1.296893
    103          1           0       -1.765361   -2.975378   -1.597851
    104          1           0       -3.390007   -1.994919    0.073639
    105          1           0       -4.496570   -5.376626   -1.109479
    106          1           0       -6.008635   -4.659795   -1.800518
    107          1           0       -5.820289   -5.235285   -0.090187
    108          1           0       -6.386597   -2.166773   -1.326963
    109          1           0       -5.418951   -1.324532   -0.301274
    110          1           0       -6.567518   -3.308200    1.349850
    111          1           0       -7.969079   -2.776408    0.372890
    112          1           0       -6.938169   -0.380405    0.985694
    113          1           0       -6.185287   -1.229580    2.319471
    114          1           0       -8.978426   -1.867848    2.366050
    115          1           0       -7.392972   -1.752204    4.186552
    116          1           0       -8.902838   -1.078326    4.559721
    117          1           0       -7.552946    0.105247    4.151535
    118          1           0       -8.581962    1.117734    1.901937
    119          1           0       -9.955750    0.554341    2.815169
    120          1           0       -9.687296   -0.919740    0.351909
    121          1           0      -10.133624    0.812228    0.209188
    122          1           0      -11.584934   -0.814224    2.149119
    123          1           0      -11.958088   -0.983082    0.429975
    124          1           0      -11.922531    1.835254    0.752445
    125          1           0      -11.839965    1.716640    3.135527
    126          1           0      -13.301119    0.675563    3.220667
    127          1           0      -13.288680    2.361544    2.677793
    128          1           0      -14.661261    1.290640    1.034362
    129          1           0      -14.023375   -0.272423    0.584849
    130          1           0      -14.216183    0.372267   -1.422158
    131          1           0      -12.642463    1.294886   -1.272698
    132          1           0      -13.610796    3.451688   -1.346891
    133          1           0      -15.026594    2.885271   -0.453835
    134          1           0      -15.084809    1.721600   -3.064566
    135          1           0      -13.737149    4.368925   -3.297484
    136          1           0      -15.430017    4.633645   -3.588477
    137          1           0      -14.565526    3.327216   -4.437148
    138          1           0      -17.151017    1.924224   -2.196531
    139          1           0      -17.199009    3.569905   -2.929158
    140          1           0      -16.786337    3.431391   -1.312750
 ---------------------------------------------------------------------

 SCF Done:  E(RwB97XD) =  -3007.86917064     A.U. after   20 cycles

 Excitation energies and oscillator strengths:

 Excited State   1:      Singlet-A      1.6050 eV  772.47 nm  f=0.3803  <S**2>=0.000
     245 -> 248        0.18870
     246 -> 247        0.68217
     245 <- 248        0.11786
 This state for optimization and/or second-order correction.
 Total Energy, E(TD-HF/TD-DFT) =  -3007.81018697
 Copying the excited state density for this state as the 1-particle RhoCI density.

 Excited State   2:      Singlet-A      2.1661 eV  572.39 nm  f=0.0719  <S**2>=0.000
     245 -> 247        0.61674
     246 -> 248       -0.33202

 Excited State   3:      Singlet-A      3.3900 eV  365.74 nm  f=0.5898  <S**2>=0.000
     242 -> 247       -0.12847
     243 -> 247        0.16398
     244 -> 247        0.12814
     245 -> 247        0.29572
     246 -> 248        0.58754
     245 <- 247       -0.11050

 Excited State   4:      Singlet-A      3.4621 eV  358.12 nm  f=0.0041  <S**2>=0.000
     242 -> 247        0.47873
     242 -> 249        0.28367
     242 -> 250       -0.21361
     244 -> 247        0.33636

 Excited State   5:      Singlet-A      3.4913 eV  355.13 nm  f=0.0458  <S**2>=0.000
     242 -> 247       -0.24671
     242 -> 249       -0.12823
     242 -> 250        0.10771
     243 -> 247       -0.13448
     244 -> 247        0.58696
     246 -> 248       -0.13341

 The electronic state is 1-A.
 Alpha  occ. eigenvalues --  -46.94073 -19.31814 -19.27552 -19.24944 -19.24020
 Alpha  occ. eigenvalues --  -19.23618 -19.23210 -14.46763 -14.46330 -14.44292
 Alpha  occ. eigenvalues --  -14.43586 -10.44332 -10.42489 -10.39216 -10.38274
 Alpha  occ. eigenvalues --  -10.37253 -10.35258 -10.34838 -10.34717 -10.34700
 Alpha  occ. eigenvalues --  -10.34396 -10.33980 -10.33623 -10.33545 -10.33501
 Alpha  occ. eigenvalues --  -10.33033 -10.32809 -10.32501 -10.32236 -10.32142
 Alpha  occ. eigenvalues --  -10.31920 -10.31912 -10.31902 -10.31416 -10.31383
 Alpha  occ. eigenvalues --  -10.31315 -10.31174 -10.31043 -10.30967 -10.30790
 Alpha  occ. eigenvalues --  -10.30558 -10.30399 -10.30283 -10.30211 -10.30187
 Alpha  occ. eigenvalues --  -10.30160 -10.29894 -10.29753 -10.29747 -10.29698
 Alpha  occ. eigenvalues --  -10.29582 -10.29523 -10.29487 -10.29358 -10.29256
 Alpha  occ. eigenvalues --  -10.29117 -10.28810 -10.28693 -10.28662 -10.28661
 Alpha  occ. eigenvalues --  -10.28631 -10.28450 -10.28382 -10.28106 -10.28069
 Alpha  occ. eigenvalues --  -10.27944  -3.20215  -1.93797  -1.93331  -1.93210
 Alpha  occ. eigenvalues --   -1.18421  -1.16779  -1.12966  -1.11235  -1.08543
 Alpha  occ. eigenvalues --   -1.08405  -1.05921  -1.05020  -1.04137  -1.02249
 Alpha  occ. eigenvalues --   -0.94450  -0.92572  -0.91943  -0.91656  -0.91086
 Alpha  occ. eigenvalues --   -0.90541  -0.90434  -0.89520  -0.89346  -0.88811
 Alpha  occ. eigenvalues --   -0.87462  -0.87284  -0.86622  -0.85242  -0.84988
 Alpha  occ. eigenvalues --   -0.84440  -0.83504  -0.83219  -0.82467  -0.82349
 Alpha  occ. eigenvalues --   -0.81815  -0.79958  -0.79872  -0.79309  -0.78305
 Alpha  occ. eigenvalues --   -0.77612  -0.77175  -0.77063  -0.76978  -0.75769
 Alpha  occ. eigenvalues --   -0.75439  -0.74496  -0.73469  -0.72395  -0.71872
 Alpha  occ. eigenvalues --   -0.70437  -0.69724  -0.68796  -0.68627  -0.67219
 Alpha  occ. eigenvalues --   -0.67146  -0.66796  -0.66366  -0.66059  -0.66018
 Alpha  occ. eigenvalues --   -0.65607  -0.65287  -0.64781  -0.62873  -0.62187
 Alpha  occ. eigenvalues --   -0.61583  -0.61090  -0.61011  -0.59901  -0.59473
 Alpha  occ. eigenvalues --   -0.58982  -0.58417  -0.58065  -0.57971  -0.57510
 Alpha  occ. eigenvalues --   -0.56948  -0.56723  -0.56540  -0.56271  -0.55897
 Alpha  occ. eigenvalues --   -0.55407  -0.55004  -0.54930  -0.54739  -0.54478
 Alpha  occ. eigenvalues --   -0.54344  -0.54178  -0.53968  -0.53821  -0.53714
 Alpha  occ. eigenvalues --   -0.53402  -0.53336  -0.52821  -0.52656  -0.52396
 Alpha  occ. eigenvalues --   -0.52389  -0.52160  -0.51790  -0.51634  -0.51484
 Alpha  occ. eigenvalues --   -0.51359  -0.51081  -0.50979  -0.50797  -0.50729
 Alpha  occ. eigenvalues --   -0.50511  -0.50284  -0.50089  -0.49884  -0.49712
 Alpha  occ. eigenvalues --   -0.49504  -0.49392  -0.49192  -0.48935  -0.48531
 Alpha  occ. eigenvalues --   -0.48349  -0.48234  -0.47964  -0.47648  -0.47370
 Alpha  occ. eigenvalues --   -0.47312  -0.47216  -0.47109  -0.46788  -0.46592
 Alpha  occ. eigenvalues --   -0.46527  -0.46216  -0.46046  -0.45938  -0.45777
 Alpha  occ. eigenvalues --   -0.45659  -0.45609  -0.45345  -0.45289  -0.44824
 Alpha  occ. eigenvalues --   -0.44777  -0.44634  -0.44479  -0.44211  -0.43891
 Alpha  occ. eigenvalues --   -0.43767  -0.43521  -0.43123  -0.42990  -0.42858
 Alpha  occ. eigenvalues --   -0.42490  -0.42378  -0.42351  -0.42070  -0.41771
 Alpha  occ. eigenvalues --   -0.41713  -0.41025  -0.40948  -0.40488  -0.40430
 Alpha  occ. eigenvalues --   -0.40158  -0.40051  -0.39874  -0.39626  -0.39534
 Alpha  occ. eigenvalues --   -0.39409  -0.39181  -0.38574  -0.38336  -0.38147
 Alpha  occ. eigenvalues --   -0.37822  -0.37611  -0.36437  -0.36243  -0.35935
 Alpha  occ. eigenvalues --   -0.35488  -0.34908  -0.34808  -0.33251  -0.32957
 Alpha  occ. eigenvalues --   -0.32675  -0.32334  -0.32142  -0.31687  -0.25815
 Alpha  occ. eigenvalues --   -0.22376
 Alpha virt. eigenvalues --   -0.06644  -0.00030   0.02527   0.04430   0.05591
 Alpha virt. eigenvalues --    0.05707   0.06205   0.08266   0.08610   0.10008
 Alpha virt. eigenvalues --    0.10704   0.11553   0.12151   0.12427   0.12646

 Mulliken charges:
               1
     1  Mg   0.984918
     2  C   -0.018908
     3  C   -0.102144
     4  C   -0.069656
     5  C   -0.095948
     6  N   -0.363018
     7  C    0.018551
     8  C   -0.088907
     9  C   -0.086084
    10  C    0.058190
    11  C    0.027024
    12  C   -0.000221
    13  C    0.053621
    14  C    0.217615
    15  O   -0.310018
    16  O   -0.351760
    17  N   -0.546112
    18  C    0.188906
    19  C   -0.163672
    20  C   -0.093122
    21  C    0.204656
    22  C    0.072383
    23  C    0.057959
    24  O   -0.222189
    25  C   -0.039821
    26  N   -0.380693
    27  C    0.042182
    28  C   -0.067612
    29  C   -0.031721
    30  C    0.062882
    31  C    0.018223
    32  C   -0.033551
    33  C   -0.055781
    34  N   -0.382275
    35  C    0.115936
    36  C   -0.171847
    37  C   -0.000832
    38  C    0.098105
    39  C    0.057065
    40  C    0.083076
    41  O   -0.209864
    42  C   -0.058085
    43  C    0.271643
    44  O   -0.217675
    45  O   -0.392102
    46  C    0.150952
    47  C    0.243037
    48  C   -0.127789
    49  C   -0.225140
    50  C    0.056274
    51  C    0.006959
    52  C   -0.006190
    53  C    0.002024
    54  C   -0.190519
    55  C    0.011601
    56  C    0.017353
    57  C   -0.017910
    58  C    0.024316
    59  C   -0.187825
    60  C   -0.002947
    61  C   -0.019695
    62  C   -0.033906
    63  C    0.038782
    64  C   -0.228621
    65  C   -0.022536
    66  C    0.003922
    67  H   -0.013240
    68  H    0.019266
    69  H   -0.000112
    70  H    0.076836
    71  H    0.040794
    72  H    0.044644
    73  H    0.045901
    74  H    0.028435
    75  H    0.027377
    76  H    0.036239
    77  H    0.040984
    78  H    0.055377
    79  H    0.066647
    80  H    0.053791
    81  H    0.035107
    82  H    0.069951
    83  H    0.043107
    84  H    0.062238
    85  H    0.050325
    86  H    0.026303
    87  H    0.035755
    88  H    0.053392
    89  H    0.022174
    90  H    0.017879
    91  H    0.029751
    92  H    0.025907
    93  H    0.037808
    94  H    0.039233
    95  H    0.043657
    96  H    0.069832
    97  H    0.053802
    98  H    0.067194
    99  H    0.050097
   100  H    0.059710
   101  H    0.046159
   102  H    0.040184
   103  H    0.058816
   104  H    0.021656
   105  H    0.021117
   106  H    0.054335
   107  H    0.049033
   108  H    0.032098
   109  H    0.012205
   110  H    0.029857
   111  H    0.034927
   112  H    0.016633
   113  H    0.023753
   114  H    0.009737
   115  H    0.023826
   116  H    0.026161
   117  H    0.042992
   118  H    0.014707
   119  H    0.003092
   120  H    0.009181
   121  H    0.008540
   122  H    0.014182
   123  H    0.014419
   124  H    0.016247
   125  H    0.013070
   126  H    0.034594
   127  H    0.018231
   128  H    0.021424
   129  H    0.011234
   130  H    0.029218
   131  H    0.034737
   132  H    0.018077
   133  H    0.009486
   134  H    0.032845
   135  H    0.032008
   136  H    0.025246
   137  H    0.030292
   138  H    0.033811
   139  H    0.025811
   140  H    0.018443
 Sum of Mulliken charges =  -0.00000

 Dipole moment (field-independent basis, Debye):
    X=             -5.5364    Y=              2.6880    Z=              3.4409  Tot=              7.0510
 Quadrupole moment (field-independent basis, Debye-Ang):
   XX=           -368.1124   YY=           -419.5988   ZZ=           -409.4301
   XY=             30.8790   XZ=             17.1570   YZ=             -9.7394

 Normal termination of Gaussian 16 at Wed May  4 01:31:28 2022.
