 Gaussian 16, Revision A.03,
 Gaussian 16:  ES64L-G16RevA.03 25-Dec-2016

 --------------------
 #p ZINDO=(nstates=5)
 --------------------

 ------------------------------
 step_1201_chromophore_18 ZINDO
 ------------------------------
 Symbolic Z-matrix:
 Charge =  0 Multiplicity = 1

                         Standard orientation:
 ---------------------------------------------------------------------
 Center     Atomic      Atomic             Coordinates (Angstroms)
 Number     Number       Type             X           Y           Z
 ---------------------------------------------------------------------
      1         12           0        5.369335    1.180922    0.314646
      2          6           0        4.647659   -2.301290    0.004944
      3          6           0        1.995607    1.758553    0.295502
      4          6           0        6.086872    4.311397   -0.264412
      5          6           0        8.789424    0.265962    0.026064
      6          7           0        3.584589   -0.107103    0.183963
      7          6           0        3.520483   -1.487441    0.171642
      8          6           0        2.074470   -1.990274    0.270392
      9          6           0        1.203977   -0.665504    0.459950
     10          6           0        2.298374    0.406303    0.289326
     11          6           0       -0.008060   -0.540151   -0.417086
     12          6           0        1.825347   -2.973872    1.433623
     13          6           0        1.061951   -4.229454    1.138370
     14          6           0        0.028986   -4.162617   -0.017996
     15          8           0        0.365323   -4.458183   -1.204092
     16          8           0       -1.196381   -3.654183    0.295676
     17          7           0        4.254061    2.811161    0.102019
     18          6           0        2.797721    2.903515    0.193548
     19          6           0        2.383846    4.317715    0.062296
     20          6           0        3.604609    5.081398   -0.114074
     21          6           0        4.741788    4.067173   -0.181962
     22          6           0        0.981215    4.794082    0.114505
     23          6           0        3.853606    6.590224   -0.276893
     24          8           0        4.952506    7.099387   -0.261407
     25          6           0        2.691445    7.511112   -0.669320
     26          7           0        7.207516    2.111679    0.031196
     27          6           0        7.252755    3.474840   -0.219445
     28          6           0        8.704237    4.042963   -0.127729
     29          6           0        9.479446    2.692884    0.009804
     30          6           0        8.455918    1.619013    0.031540
     31          6           0        9.177064    5.092139   -1.127692
     32          6           0       10.520461    2.634781    1.135512
     33          6           0       10.000610    2.326503    2.531161
     34          7           0        6.525416   -0.611187   -0.016188
     35          6           0        7.887657   -0.821292   -0.065931
     36          6           0        8.223601   -2.235035   -0.394014
     37          6           0        6.957756   -2.868975   -0.281106
     38          6           0        5.990808   -1.835193   -0.027326
     39          6           0        9.648659   -2.814578   -0.713680
     40          6           0        6.224438   -4.093980   -0.288990
     41          8           0        6.680923   -5.226770   -0.393011
     42          6           0        4.706439   -3.796320   -0.102023
     43          6           0        3.980124   -4.423968   -1.279973
     44          8           0        3.934703   -4.099334   -2.439834
     45          8           0        3.415969   -5.618326   -0.869194
     46          6           0        2.765806   -6.606110   -1.705462
     47          6           0       -2.192661   -3.590403   -0.806460
     48          6           0       -3.545892   -3.000848   -0.316379
     49          6           0       -4.847435   -3.380338   -0.492362
     50          6           0       -5.353199   -4.726351   -0.933062
     51          6           0       -5.948886   -2.276758   -0.333924
     52          6           0       -7.004326   -2.483608    0.787892
     53          6           0       -7.057916   -1.224048    1.665718
     54          6           0       -8.343799   -0.993176    2.504293
     55          6           0       -8.003072   -0.872961    3.980046
     56          6           0       -9.236883    0.259098    2.050722
     57          6           0      -10.083297   -0.049373    0.874571
     58          6           0      -11.581548   -0.297865    1.189841
     59          6           0      -12.427760    0.990550    1.219894
     60          6           0      -12.756924    1.412183    2.629746
     61          6           0      -13.854149    0.800788    0.491080
     62          6           0      -13.697525    1.235861   -1.003768
     63          6           0      -14.353200    2.657173   -1.279034
     64          6           0      -15.198781    2.685819   -2.569143
     65          6           0      -14.677880    3.851539   -3.488215
     66          6           0      -16.665230    2.898345   -2.255998
     67          1           0        0.931760    1.941288    0.462337
     68          1           0        6.456891    5.307358   -0.516915
     69          1           0        9.845209    0.062849   -0.165786
     70          1           0        1.848863   -2.426606   -0.702899
     71          1           0        0.876806   -0.605292    1.498419
     72          1           0       -0.842656   -0.827117    0.223252
     73          1           0       -0.001926   -1.133052   -1.331444
     74          1           0       -0.077198    0.492445   -0.760493
     75          1           0        1.201566   -2.589516    2.240302
     76          1           0        2.761746   -3.175585    1.953961
     77          1           0        0.624381   -4.558353    2.080996
     78          1           0        1.804577   -4.991094    0.897814
     79          1           0        0.566212    4.660356   -0.884436
     80          1           0        0.975302    5.763994    0.612718
     81          1           0        0.339970    4.144411    0.709448
     82          1           0        2.083261    7.848872    0.169212
     83          1           0        2.059777    6.913853   -1.327984
     84          1           0        3.134084    8.305875   -1.271318
     85          1           0        8.853423    4.548493    0.826294
     86          1           0       10.136967    2.537562   -0.846581
     87          1           0        9.633421    5.969927   -0.668644
     88          1           0        8.425943    5.444452   -1.834872
     89          1           0        9.989663    4.680798   -1.726427
     90          1           0       10.936551    3.640233    1.202590
     91          1           0       11.436786    2.083436    0.922224
     92          1           0       10.320038    1.314097    2.776650
     93          1           0        8.932500    2.180564    2.692088
     94          1           0       10.361003    2.975377    3.328558
     95          1           0       10.338042   -2.594528    0.102196
     96          1           0       10.095966   -2.672553   -1.697694
     97          1           0        9.437501   -3.875234   -0.579885
     98          1           0        4.315478   -4.207044    0.828876
     99          1           0        3.340764   -7.530268   -1.655920
    100          1           0        2.717883   -6.146353   -2.692119
    101          1           0        1.752563   -6.874793   -1.406937
    102          1           0       -2.456842   -4.527732   -1.296893
    103          1           0       -1.765361   -2.975378   -1.597851
    104          1           0       -3.390007   -1.994919    0.073639
    105          1           0       -4.496570   -5.376626   -1.109479
    106          1           0       -6.008635   -4.659795   -1.800518
    107          1           0       -5.820289   -5.235285   -0.090187
    108          1           0       -6.386597   -2.166773   -1.326963
    109          1           0       -5.418951   -1.324532   -0.301274
    110          1           0       -6.567518   -3.308200    1.349850
    111          1           0       -7.969079   -2.776408    0.372890
    112          1           0       -6.938169   -0.380405    0.985694
    113          1           0       -6.185287   -1.229580    2.319471
    114          1           0       -8.978426   -1.867848    2.366050
    115          1           0       -7.392972   -1.752204    4.186552
    116          1           0       -8.902838   -1.078326    4.559721
    117          1           0       -7.552946    0.105247    4.151535
    118          1           0       -8.581962    1.117734    1.901937
    119          1           0       -9.955750    0.554341    2.815169
    120          1           0       -9.687296   -0.919740    0.351909
    121          1           0      -10.133624    0.812228    0.209188
    122          1           0      -11.584934   -0.814224    2.149119
    123          1           0      -11.958088   -0.983082    0.429975
    124          1           0      -11.922531    1.835254    0.752445
    125          1           0      -11.839965    1.716640    3.135527
    126          1           0      -13.301119    0.675563    3.220667
    127          1           0      -13.288680    2.361544    2.677793
    128          1           0      -14.661261    1.290640    1.034362
    129          1           0      -14.023375   -0.272423    0.584849
    130          1           0      -14.216183    0.372267   -1.422158
    131          1           0      -12.642463    1.294886   -1.272698
    132          1           0      -13.610796    3.451688   -1.346891
    133          1           0      -15.026594    2.885271   -0.453835
    134          1           0      -15.084809    1.721600   -3.064566
    135          1           0      -13.737149    4.368925   -3.297484
    136          1           0      -15.430017    4.633645   -3.588477
    137          1           0      -14.565526    3.327216   -4.437148
    138          1           0      -17.151017    1.924224   -2.196531
    139          1           0      -17.199009    3.569905   -2.929158
    140          1           0      -16.786337    3.431391   -1.312750
 ---------------------------------------------------------------------

 SCF Done:  E(RZINDO/S) =  -474.104818392     A.U. after   19 cycles

 Excitation energies and oscillator strengths:

 Excited State   1:      Singlet-A      1.2178 eV 1018.08 nm  f=0.6083  <S**2>=0.000
     175 ->178        -0.19611
     176 ->177         0.66111
 This state for optimization and/or second-order correction.
 Total Energy, E(CIS/TDA) =  -474.060064190
 Copying the excited state density for this state as the 1-particle RhoCI density.

 Excited State   2:      Singlet-A      1.9000 eV  652.55 nm  f=0.0085  <S**2>=0.000
     175 ->177         0.50158
     176 ->178         0.47759

 Excited State   3:      Singlet-A      2.9032 eV  427.06 nm  f=0.3019  <S**2>=0.000
     169 ->177         0.14807
     169 ->179        -0.16227
     169 ->181         0.10010
     170 ->177         0.11686
     170 ->179        -0.12203
     170 ->181         0.13423
     175 ->177        -0.23526
     176 ->178         0.29520
     176 ->179         0.43726

 Excited State   4:      Singlet-A      2.9181 eV  424.89 nm  f=0.0343  <S**2>=0.000
     169 ->177        -0.24641
     169 ->179         0.27742
     169 ->181        -0.23686
     169 ->186         0.10254
     169 ->187        -0.10737
     170 ->177        -0.18418
     170 ->179         0.19533
     170 ->181        -0.12662
     176 ->178         0.10490
     176 ->179         0.33589

 Excited State   5:      Singlet-A      2.9943 eV  414.07 nm  f=0.6427  <S**2>=0.000
     168 ->177         0.13674
     168 ->179         0.14434
     168 ->181         0.16393
     168 ->186         0.11239
     175 ->177         0.32712
     176 ->178        -0.32999
     176 ->179         0.34996
     176 ->181        -0.13999

 The electronic state is 1-A.
 Alpha  occ. eigenvalues --   -1.82937  -1.80111  -1.76846  -1.71144  -1.70444
 Alpha  occ. eigenvalues --   -1.67695  -1.66266  -1.60425  -1.58974  -1.58202
 Alpha  occ. eigenvalues --   -1.55770  -1.51321  -1.49235  -1.47556  -1.46916
 Alpha  occ. eigenvalues --   -1.43556  -1.42251  -1.40479  -1.39221  -1.39092
 Alpha  occ. eigenvalues --   -1.36925  -1.32628  -1.31829  -1.31009  -1.28840
 Alpha  occ. eigenvalues --   -1.28104  -1.24400  -1.21664  -1.20367  -1.18123
 Alpha  occ. eigenvalues --   -1.17293  -1.15302  -1.14885  -1.14591  -1.13991
 Alpha  occ. eigenvalues --   -1.13309  -1.10224  -1.09682  -1.04561  -1.03880
 Alpha  occ. eigenvalues --   -1.02720  -1.01291  -0.98615  -0.97705  -0.97251
 Alpha  occ. eigenvalues --   -0.94991  -0.94530  -0.93712  -0.92771  -0.92470
 Alpha  occ. eigenvalues --   -0.91224  -0.89842  -0.89513  -0.88766  -0.87456
 Alpha  occ. eigenvalues --   -0.84663  -0.84332  -0.83286  -0.81471  -0.80196
 Alpha  occ. eigenvalues --   -0.79869  -0.78149  -0.77724  -0.76355  -0.76209
 Alpha  occ. eigenvalues --   -0.75352  -0.75154  -0.74421  -0.73955  -0.73634
 Alpha  occ. eigenvalues --   -0.73192  -0.72901  -0.72445  -0.71389  -0.70644
 Alpha  occ. eigenvalues --   -0.69897  -0.69540  -0.68483  -0.68387  -0.67430
 Alpha  occ. eigenvalues --   -0.67243  -0.66658  -0.66296  -0.65928  -0.65635
 Alpha  occ. eigenvalues --   -0.65304  -0.64080  -0.63935  -0.63394  -0.63270
 Alpha  occ. eigenvalues --   -0.63086  -0.62911  -0.62433  -0.62268  -0.62180
 Alpha  occ. eigenvalues --   -0.61770  -0.61367  -0.60916  -0.60633  -0.60225
 Alpha  occ. eigenvalues --   -0.60141  -0.59912  -0.59391  -0.58579  -0.57682
 Alpha  occ. eigenvalues --   -0.57480  -0.57300  -0.56905  -0.56782  -0.56298
 Alpha  occ. eigenvalues --   -0.56169  -0.55575  -0.55021  -0.54800  -0.54622
 Alpha  occ. eigenvalues --   -0.54239  -0.54092  -0.53914  -0.53320  -0.52747
 Alpha  occ. eigenvalues --   -0.52443  -0.51903  -0.51615  -0.51577  -0.51419
 Alpha  occ. eigenvalues --   -0.50847  -0.50435  -0.50124  -0.49988  -0.49706
 Alpha  occ. eigenvalues --   -0.49673  -0.49356  -0.49112  -0.48678  -0.48660
 Alpha  occ. eigenvalues --   -0.48257  -0.47926  -0.47583  -0.47559  -0.47241
 Alpha  occ. eigenvalues --   -0.46719  -0.46609  -0.46466  -0.46260  -0.46242
 Alpha  occ. eigenvalues --   -0.46187  -0.45985  -0.45566  -0.45430  -0.45321
 Alpha  occ. eigenvalues --   -0.45226  -0.44992  -0.44344  -0.44233  -0.44219
 Alpha  occ. eigenvalues --   -0.43708  -0.43642  -0.43577  -0.42664  -0.42046
 Alpha  occ. eigenvalues --   -0.41651  -0.40959  -0.40070  -0.38845  -0.38615
 Alpha  occ. eigenvalues --   -0.37627  -0.37267  -0.35276  -0.34706  -0.34337
 Alpha  occ. eigenvalues --   -0.32936  -0.32836  -0.32396  -0.32095  -0.26589
 Alpha  occ. eigenvalues --   -0.21202
 Alpha virt. eigenvalues --   -0.08122  -0.02234  -0.00380   0.00962   0.01381
 Alpha virt. eigenvalues --    0.02353   0.02954   0.03768   0.03825   0.05089
 Alpha virt. eigenvalues --    0.06471   0.07093   0.07256   0.07984   0.08357

 Mulliken charges:
               1
     1  Mg   0.427480
     2  C   -0.047598
     3  C   -0.064247
     4  C   -0.053950
     5  C   -0.078199
     6  N   -0.284101
     7  C    0.118354
     8  C    0.002985
     9  C    0.003426
    10  C    0.124132
    11  C   -0.048412
    12  C   -0.017698
    13  C    0.012034
    14  C    0.466490
    15  O   -0.533279
    16  O   -0.256198
    17  N   -0.336728
    18  C    0.086559
    19  C    0.017831
    20  C   -0.062030
    21  C    0.143703
    22  C   -0.037902
    23  C    0.326780
    24  O   -0.511573
    25  C   -0.033054
    26  N   -0.260412
    27  C    0.117538
    28  C    0.009772
    29  C    0.013369
    30  C    0.144444
    31  C   -0.046364
    32  C   -0.021378
    33  C   -0.057952
    34  N   -0.316411
    35  C    0.097707
    36  C    0.022587
    37  C   -0.045541
    38  C    0.113451
    39  C   -0.042081
    40  C    0.340501
    41  O   -0.524041
    42  C    0.063888
    43  C    0.494364
    44  O   -0.503248
    45  O   -0.297988
    46  C    0.080465
    47  C    0.106885
    48  C   -0.101415
    49  C    0.001818
    50  C   -0.039905
    51  C   -0.031426
    52  C   -0.026895
    53  C   -0.029391
    54  C   -0.018254
    55  C   -0.057996
    56  C   -0.034152
    57  C   -0.035920
    58  C   -0.030462
    59  C   -0.012853
    60  C   -0.055758
    61  C   -0.050626
    62  C   -0.046021
    63  C   -0.038780
    64  C   -0.007977
    65  C   -0.065264
    66  C   -0.054010
    67  H    0.016718
    68  H    0.037657
    69  H    0.023251
    70  H    0.056361
    71  H    0.030244
    72  H    0.020484
    73  H    0.031663
    74  H    0.020375
    75  H    0.017051
    76  H    0.023209
    77  H    0.028850
    78  H    0.040756
    79  H    0.043288
    80  H    0.034433
    81  H    0.019500
    82  H    0.045157
    83  H    0.021612
    84  H    0.042170
    85  H    0.033964
    86  H    0.021809
    87  H    0.021871
    88  H    0.029727
    89  H    0.012577
    90  H    0.005345
    91  H    0.025182
    92  H    0.008220
    93  H    0.024843
    94  H    0.020113
    95  H    0.028984
    96  H    0.047279
    97  H    0.026718
    98  H    0.054993
    99  H    0.037141
   100  H    0.053366
   101  H    0.038308
   102  H    0.048728
   103  H    0.052611
   104  H    0.017913
   105  H    0.018573
   106  H    0.035952
   107  H    0.030498
   108  H    0.020114
   109  H    0.019408
   110  H    0.021427
   111  H    0.029423
   112  H    0.015516
   113  H    0.020918
   114  H    0.016253
   115  H    0.014681
   116  H    0.014390
   117  H    0.031835
   118  H    0.016459
   119  H    0.019317
   120  H    0.016135
   121  H    0.013061
   122  H    0.020120
   123  H    0.014068
   124  H    0.025614
   125  H    0.004097
   126  H    0.023940
   127  H    0.008674
   128  H    0.027728
   129  H    0.013532
   130  H    0.026345
   131  H    0.027595
   132  H    0.023862
   133  H    0.020374
   134  H    0.024678
   135  H    0.024889
   136  H    0.018985
   137  H    0.010652
   138  H    0.016687
   139  H    0.017373
   140  H    0.015279
 Sum of Mulliken charges =  -0.00000

 Dipole moment (field-independent basis, Debye):
    X=             -6.9461    Y=              3.2950    Z=              5.2251  Tot=              9.2955
 N-N= 4.270427820200D+03 E-N= 0.000000000000D+00  KE=-9.215516603442D+03
 Leave Link  601 at Wed May  4 01:45:04 2022, MaxMem=  6710886400 cpu:               0.8 elap:               0.0
 (Enter /sw/apps/gaussian-16.0/g16/l9999.exe)
 1\1\GINC-BP1-COMPUTE036\SP\RZINDO CIS\STO-3G\C55H74Mg1N4O6\OF15641\04-
 May-2022\0\\#p ZINDO=(nstates=5)\\step_1201_chromophore_18 ZINDO\\0,1\
 Mg,0,35.748,49.595,25.339\C,0,35.397,47.643,28.307\C,0,34.456,52.247,2
 7.075\C,0,35.293,51.039,22.448\C,0,36.791,46.59,23.758\N,0,35.045,49.8
 89,27.408\C,0,35.09,49.,28.465\C,0,34.679,49.665,29.785\C,0,34.458,51.
 2,29.406\C,0,34.64,51.132,27.877\C,0,33.191,51.829,29.909\C,0,35.724,4
 9.53,30.913\C,0,35.242,49.108,32.268\C,0,33.785,49.491,32.641\O,0,32.8

 Normal termination of Gaussian 16 at Wed May  4 01:45:04 2022.
