 Gaussian 16, Revision A.03,
 Gaussian 16:  ES64L-G16RevA.03 25-Dec-2016

 ------------------------------
 #p blyp/Def2SVP td=(nstates=5)
 ------------------------------

 ---------------------------------------------------
 step_1451_chromophore_22 TDDFT with blyp functional
 ---------------------------------------------------
 Symbolic Z-matrix:
 Charge =  0 Multiplicity = 1

                         Standard orientation:
 ---------------------------------------------------------------------
 Center     Atomic      Atomic             Coordinates (Angstroms)
 Number     Number       Type             X           Y           Z
 ---------------------------------------------------------------------
      1         12           0        6.121583    0.522817   -0.085408
      2          6           0        4.092427   -2.398920    0.054244
      3          6           0        3.774755    2.044119   -2.147848
      4          6           0        8.029895    3.164644   -0.263748
      5          6           0        8.786761   -1.378804    1.252930
      6          7           0        4.203469   -0.160149   -0.996768
      7          6           0        3.519308   -1.333370   -0.682039
      8          6           0        2.175794   -1.267451   -1.417197
      9          6           0        2.315741   -0.041668   -2.421765
     10          6           0        3.525292    0.669174   -1.842127
     11          6           0        2.487340   -0.243801   -3.929015
     12          6           0        0.968260   -1.244425   -0.451555
     13          6           0       -0.417957   -1.297465   -1.170270
     14          6           0       -1.650445   -1.944732   -0.519834
     15          8           0       -1.704107   -2.720208    0.460315
     16          8           0       -2.789669   -1.453894   -1.044291
     17          7           0        5.832203    2.462441   -0.843344
     18          6           0        4.792461    2.845114   -1.650613
     19          6           0        4.981752    4.246534   -2.047561
     20          6           0        6.229855    4.640332   -1.403270
     21          6           0        6.814913    3.411739   -0.810247
     22          6           0        3.940658    5.079127   -2.753068
     23          6           0        6.946840    6.042506   -1.431935
     24          8           0        8.024592    6.252360   -0.869566
     25          6           0        6.326394    7.259414   -1.973458
     26          7           0        8.152282    0.818750    0.297600
     27          6           0        8.644187    2.073632    0.324950
     28          6           0        9.945688    2.220490    1.051750
     29          6           0       10.208695    0.763675    1.649554
     30          6           0        9.026549    0.013851    0.987143
     31          6           0       11.154854    2.810910    0.165003
     32          6           0       10.341858    0.647560    3.206481
     33          6           0       11.358954   -0.230246    3.747331
     34          7           0        6.411894   -1.484756    0.533960
     35          6           0        7.569184   -2.125623    1.005701
     36          6           0        7.288569   -3.497984    1.266971
     37          6           0        5.936470   -3.682826    0.940832
     38          6           0        5.474552   -2.391577    0.451675
     39          6           0        8.245082   -4.372902    1.878655
     40          6           0        4.716960   -4.528775    0.986081
     41          8           0        4.606543   -5.675730    1.504541
     42          6           0        3.562465   -3.841476    0.286809
     43          6           0        2.421464   -3.983236    1.205225
     44          8           0        2.238521   -3.289081    2.175432
     45          8           0        1.688680   -5.002173    0.802056
     46          6           0        0.435844   -5.203838    1.478297
     47          6           0       -4.029873   -2.051540   -0.557008
     48          6           0       -5.292614   -1.763530   -1.519209
     49          6           0       -6.492580   -2.410212   -1.592854
     50          6           0       -6.892005   -3.627926   -0.776180
     51          6           0       -7.528001   -2.088856   -2.640025
     52          6           0       -8.732544   -1.244241   -2.136854
     53          6           0      -10.035657   -1.752338   -2.864105
     54          6           0      -11.185746   -1.838233   -1.911665
     55          6           0      -12.315743   -2.563743   -2.628667
     56          6           0      -11.716946   -0.512448   -1.322876
     57          6           0      -11.825165   -0.544377    0.247791
     58          6           0      -13.294173   -0.411673    0.626514
     59          6           0      -13.773723    1.126207    0.577193
     60          6           0      -14.966285    1.302571   -0.458021
     61          6           0      -14.008411    1.640738    2.004613
     62          6           0      -12.838715    2.463114    2.530792
     63          6           0      -13.041613    3.988905    2.634465
     64          6           0      -12.097083    4.476106    3.833110
     65          6           0      -12.589203    5.914609    4.253644
     66          6           0      -10.574332    4.452544    3.311553
     67          1           0        2.983056    2.376048   -2.823038
     68          1           0        8.726163    4.005762   -0.269853
     69          1           0        9.687285   -1.838954    1.664479
     70          1           0        2.229185   -2.196384   -1.985706
     71          1           0        1.374767    0.505067   -2.367217
     72          1           0        1.668251    0.187514   -4.504570
     73          1           0        2.552986   -1.296352   -4.204872
     74          1           0        3.357888    0.368460   -4.164792
     75          1           0        1.038951   -0.281775    0.054410
     76          1           0        0.953332   -2.024008    0.309496
     77          1           0       -0.325957   -1.711085   -2.174812
     78          1           0       -0.802771   -0.282504   -1.278601
     79          1           0        4.473588    5.763624   -3.412209
     80          1           0        3.434339    5.717089   -2.028178
     81          1           0        3.240658    4.451901   -3.305710
     82          1           0        5.791926    7.196957   -2.920762
     83          1           0        7.146517    7.929032   -2.232114
     84          1           0        5.608448    7.619498   -1.236455
     85          1           0        9.700416    2.926033    1.845473
     86          1           0       11.133413    0.366767    1.230890
     87          1           0       11.934369    2.052844    0.086780
     88          1           0       11.453379    3.699009    0.721116
     89          1           0       10.867048    3.075869   -0.851992
     90          1           0        9.365393    0.536582    3.678233
     91          1           0       10.818168    1.581587    3.504863
     92          1           0       10.997403   -0.670548    4.676952
     93          1           0       12.298356    0.279563    3.960683
     94          1           0       11.389239   -1.004550    2.979870
     95          1           0        8.403251   -4.096571    2.920728
     96          1           0        9.092512   -4.312219    1.195789
     97          1           0        7.838947   -5.379271    1.779929
     98          1           0        3.249325   -4.399543   -0.595772
     99          1           0        0.583384   -5.728234    2.421711
    100          1           0       -0.224032   -5.752071    0.805439
    101          1           0        0.007180   -4.273707    1.851610
    102          1           0       -4.290693   -1.612668    0.405626
    103          1           0       -3.940222   -3.129911   -0.424431
    104          1           0       -5.103062   -1.183073   -2.422868
    105          1           0       -7.573508   -3.504596    0.066110
    106          1           0       -6.065459   -4.143742   -0.287026
    107          1           0       -7.221111   -4.349254   -1.523141
    108          1           0       -7.831248   -2.969718   -3.206401
    109          1           0       -7.094966   -1.521973   -3.463975
    110          1           0       -8.392866   -0.216920   -2.273591
    111          1           0       -8.919362   -1.340105   -1.067940
    112          1           0       -9.876822   -2.607336   -3.522141
    113          1           0      -10.132497   -0.933772   -3.576645
    114          1           0      -10.844978   -2.505217   -1.119307
    115          1           0      -12.785699   -3.215369   -1.892696
    116          1           0      -12.041222   -3.145510   -3.508560
    117          1           0      -13.062380   -1.829406   -2.932489
    118          1           0      -12.593066   -0.059595   -1.785876
    119          1           0      -10.917829    0.216402   -1.463844
    120          1           0      -11.322243    0.356683    0.598767
    121          1           0      -11.448728   -1.469110    0.685313
    122          1           0      -13.475040   -0.787652    1.633336
    123          1           0      -13.879207   -1.008497   -0.073923
    124          1           0      -12.989531    1.748910    0.146285
    125          1           0      -14.670634    2.101556   -1.138505
    126          1           0      -15.915668    1.453698    0.054551
    127          1           0      -15.053446    0.530439   -1.221946
    128          1           0      -14.148412    0.855939    2.747817
    129          1           0      -14.916153    2.244438    2.004337
    130          1           0      -11.900986    2.345206    1.988544
    131          1           0      -12.666936    2.042656    3.521727
    132          1           0      -14.036465    4.357328    2.884274
    133          1           0      -12.734244    4.424366    1.683096
    134          1           0      -12.171901    3.752586    4.643709
    135          1           0      -12.835428    6.011129    5.310941
    136          1           0      -13.378921    6.353024    3.644445
    137          1           0      -11.824191    6.677834    4.110904
    138          1           0      -10.577910    4.278165    2.235752
    139          1           0      -10.083004    3.575021    3.731258
    140          1           0       -9.950783    5.322364    3.515822
 ---------------------------------------------------------------------

 SCF Done:  E(RB-LYP) =  -3007.34179896     A.U. after   22 cycles

 Excitation energies and oscillator strengths:

 Excited State   1:      Singlet-A      1.7903 eV  692.53 nm  f=0.2822  <S**2>=0.000
     244 -> 247       -0.15287
     245 -> 248        0.18730
     246 -> 247        0.67001
     246 <- 247       -0.14150
 This state for optimization and/or second-order correction.
 Total Energy, E(TD-HF/TD-DFT) =  -3007.27600616
 Copying the excited state density for this state as the 1-particle RhoCI density.

 Excited State   2:      Singlet-A      1.8199 eV  681.25 nm  f=0.0211  <S**2>=0.000
     244 -> 247        0.67660
     245 -> 247        0.12391
     246 -> 247        0.15543

 Excited State   3:      Singlet-A      2.0187 eV  614.19 nm  f=0.0495  <S**2>=0.000
     243 -> 247        0.14848
     244 -> 247       -0.12722
     245 -> 247        0.61054
     246 -> 248       -0.26540

 Excited State   4:      Singlet-A      2.0634 eV  600.89 nm  f=0.0022  <S**2>=0.000
     243 -> 247        0.69002
     245 -> 247       -0.12575

 Excited State   5:      Singlet-A      2.5221 eV  491.58 nm  f=0.0000  <S**2>=0.000
     240 -> 247        0.70386

 The electronic state is 1-A.
 Alpha  occ. eigenvalues --  -46.27127 -18.83145 -18.81614 -18.76887 -18.75559
 Alpha  occ. eigenvalues --  -18.75143 -18.74612 -14.03192 -14.03124 -14.00950
 Alpha  occ. eigenvalues --  -14.00573 -10.04933 -10.02443 -10.00092  -9.99240
 Alpha  occ. eigenvalues --   -9.99090  -9.96691  -9.96620  -9.96518  -9.96029
 Alpha  occ. eigenvalues --   -9.95971  -9.95878  -9.95715  -9.95155  -9.94416
 Alpha  occ. eigenvalues --   -9.94414  -9.94284  -9.94245  -9.94231  -9.94047
 Alpha  occ. eigenvalues --   -9.94041  -9.93967  -9.93545  -9.93525  -9.93500
 Alpha  occ. eigenvalues --   -9.93407  -9.93354  -9.93200  -9.93171  -9.92894
 Alpha  occ. eigenvalues --   -9.92783  -9.92753  -9.92621  -9.92595  -9.92275
 Alpha  occ. eigenvalues --   -9.92242  -9.92013  -9.91977  -9.91940  -9.91794
 Alpha  occ. eigenvalues --   -9.91780  -9.91668  -9.91367  -9.91325  -9.91265
 Alpha  occ. eigenvalues --   -9.91206  -9.91190  -9.91188  -9.91085  -9.90930
 Alpha  occ. eigenvalues --   -9.90920  -9.90819  -9.90813  -9.90758  -9.90716
 Alpha  occ. eigenvalues --   -9.90496  -2.91696  -1.72129  -1.71575  -1.71410
 Alpha  occ. eigenvalues --   -0.99040  -0.98943  -0.91248  -0.89843  -0.88882
 Alpha  occ. eigenvalues --   -0.88486  -0.86483  -0.85713  -0.85269  -0.84494
 Alpha  occ. eigenvalues --   -0.74497  -0.73909  -0.72863  -0.72787  -0.72459
 Alpha  occ. eigenvalues --   -0.72077  -0.71970  -0.70988  -0.70757  -0.70149
 Alpha  occ. eigenvalues --   -0.69905  -0.69180  -0.68086  -0.67805  -0.67429
 Alpha  occ. eigenvalues --   -0.66590  -0.65895  -0.65525  -0.65004  -0.64390
 Alpha  occ. eigenvalues --   -0.64022  -0.62580  -0.62347  -0.61789  -0.60682
 Alpha  occ. eigenvalues --   -0.60471  -0.60033  -0.60027  -0.59599  -0.58862
 Alpha  occ. eigenvalues --   -0.58429  -0.57540  -0.56838  -0.55767  -0.54148
 Alpha  occ. eigenvalues --   -0.53354  -0.53173  -0.52801  -0.52181  -0.51450
 Alpha  occ. eigenvalues --   -0.50911  -0.50896  -0.50688  -0.50322  -0.49962
 Alpha  occ. eigenvalues --   -0.49772  -0.49703  -0.49115  -0.48415  -0.46510
 Alpha  occ. eigenvalues --   -0.46350  -0.45930  -0.45568  -0.45136  -0.44234
 Alpha  occ. eigenvalues --   -0.43601  -0.43487  -0.43026  -0.42872  -0.42684
 Alpha  occ. eigenvalues --   -0.42032  -0.41852  -0.41692  -0.41314  -0.41048
 Alpha  occ. eigenvalues --   -0.40860  -0.40645  -0.40456  -0.40163  -0.40131
 Alpha  occ. eigenvalues --   -0.40037  -0.39829  -0.39618  -0.39327  -0.39273
 Alpha  occ. eigenvalues --   -0.39200  -0.39147  -0.39000  -0.38392  -0.38164
 Alpha  occ. eigenvalues --   -0.38053  -0.37934  -0.37836  -0.37721  -0.37543
 Alpha  occ. eigenvalues --   -0.37106  -0.36840  -0.36688  -0.36591  -0.36447
 Alpha  occ. eigenvalues --   -0.36262  -0.36147  -0.36085  -0.35715  -0.35635
 Alpha  occ. eigenvalues --   -0.35522  -0.35310  -0.35128  -0.34997  -0.34898
 Alpha  occ. eigenvalues --   -0.34640  -0.34434  -0.33933  -0.33881  -0.33810
 Alpha  occ. eigenvalues --   -0.33659  -0.33581  -0.33523  -0.33142  -0.32575
 Alpha  occ. eigenvalues --   -0.32335  -0.32240  -0.32121  -0.32030  -0.31824
 Alpha  occ. eigenvalues --   -0.31746  -0.31648  -0.31459  -0.31259  -0.31132
 Alpha  occ. eigenvalues --   -0.31114  -0.31025  -0.30871  -0.30637  -0.30517
 Alpha  occ. eigenvalues --   -0.30180  -0.29962  -0.29896  -0.29820  -0.29713
 Alpha  occ. eigenvalues --   -0.29399  -0.29296  -0.29228  -0.29084  -0.28678
 Alpha  occ. eigenvalues --   -0.28582  -0.28436  -0.28208  -0.28100  -0.27771
 Alpha  occ. eigenvalues --   -0.27477  -0.27306  -0.27204  -0.26789  -0.26203
 Alpha  occ. eigenvalues --   -0.26098  -0.25729  -0.25695  -0.25526  -0.25423
 Alpha  occ. eigenvalues --   -0.24877  -0.24788  -0.24281  -0.23564  -0.23328
 Alpha  occ. eigenvalues --   -0.23177  -0.21824  -0.21734  -0.20713  -0.20504
 Alpha  occ. eigenvalues --   -0.20319  -0.20077  -0.18712  -0.17823  -0.17174
 Alpha  occ. eigenvalues --   -0.15520
 Alpha virt. eigenvalues --   -0.11235  -0.07056  -0.06022  -0.04714  -0.03363
 Alpha virt. eigenvalues --   -0.02283  -0.01939  -0.01446  -0.00805  -0.00097
 Alpha virt. eigenvalues --    0.00821   0.01609   0.02411   0.02678   0.02865

 Mulliken charges:
               1
     1  Mg   0.685895
     2  C    0.036192
     3  C   -0.059770
     4  C   -0.042996
     5  C   -0.075634
     6  N   -0.219834
     7  C   -0.076628
     8  C    0.047895
     9  C   -0.046607
    10  C   -0.011348
    11  C    0.141984
    12  C    0.142463
    13  C    0.084887
    14  C    0.090593
    15  O   -0.219439
    16  O   -0.250926
    17  N   -0.295995
    18  C    0.198976
    19  C   -0.170580
    20  C    0.036080
    21  C    0.130218
    22  C    0.175845
    23  C   -0.051211
    24  O   -0.181249
    25  C    0.123640
    26  N   -0.230753
    27  C    0.001099
    28  C   -0.000875
    29  C    0.035718
    30  C   -0.011734
    31  C    0.119979
    32  C    0.109159
    33  C    0.076121
    34  N   -0.222750
    35  C    0.127826
    36  C   -0.218599
    37  C    0.115524
    38  C    0.019211
    39  C    0.199839
    40  C   -0.062963
    41  O   -0.183577
    42  C    0.127652
    43  C    0.048741
    44  O   -0.180249
    45  O   -0.218783
    46  C    0.226771
    47  C    0.289357
    48  C   -0.078069
    49  C   -0.139252
    50  C    0.131447
    51  C    0.107937
    52  C    0.056973
    53  C    0.090812
    54  C   -0.046340
    55  C    0.120969
    56  C    0.102151
    57  C    0.071129
    58  C    0.099622
    59  C   -0.102658
    60  C    0.096186
    61  C    0.177450
    62  C    0.029001
    63  C    0.076066
    64  C   -0.095214
    65  C    0.112616
    66  C    0.082430
    67  H   -0.064416
    68  H   -0.055551
    69  H   -0.065117
    70  H   -0.041774
    71  H   -0.031001
    72  H   -0.016463
    73  H   -0.003234
    74  H   -0.005933
    75  H   -0.022614
    76  H    0.021862
    77  H    0.006398
    78  H    0.007049
    79  H   -0.004342
    80  H    0.013021
    81  H   -0.003388
    82  H   -0.023256
    83  H    0.002393
    84  H    0.024038
    85  H   -0.008018
    86  H   -0.034286
    87  H   -0.008749
    88  H    0.008781
    89  H    0.009952
    90  H   -0.012381
    91  H   -0.033058
    92  H   -0.011050
    93  H   -0.000683
    94  H   -0.011193
    95  H    0.016665
    96  H   -0.003122
    97  H   -0.002786
    98  H   -0.001997
    99  H   -0.002695
   100  H    0.013249
   101  H    0.023339
   102  H    0.010670
   103  H    0.016077
   104  H   -0.033192
   105  H    0.009570
   106  H   -0.031919
   107  H   -0.006703
   108  H   -0.027444
   109  H   -0.047251
   110  H   -0.018067
   111  H   -0.021373
   112  H   -0.026505
   113  H   -0.041186
   114  H   -0.035570
   115  H   -0.022776
   116  H   -0.023292
   117  H   -0.025441
   118  H   -0.022475
   119  H   -0.047351
   120  H   -0.026927
   121  H   -0.026004
   122  H   -0.043823
   123  H   -0.032585
   124  H   -0.030189
   125  H   -0.027859
   126  H   -0.004244
   127  H   -0.022330
   128  H   -0.035152
   129  H   -0.045702
   130  H   -0.024268
   131  H   -0.041907
   132  H   -0.023779
   133  H   -0.024743
   134  H   -0.021400
   135  H   -0.012829
   136  H   -0.019162
   137  H   -0.036005
   138  H   -0.015370
   139  H   -0.015729
   140  H   -0.007832
 Sum of Mulliken charges =  -0.00000

 Dipole moment (field-independent basis, Debye):
    X=             -2.5460    Y=              3.4928    Z=             -3.5972  Tot=              5.6233
 Quadrupole moment (field-independent basis, Debye-Ang):
   XX=           -373.9064   YY=           -432.1111   ZZ=           -397.6358
   XY=             11.0597   XZ=              7.2649   YZ=              8.6533

 Normal termination of Gaussian 16 at Wed May  4 07:37:37 2022.
