 Gaussian 16, Revision A.03,
 Gaussian 16:  ES64L-G16RevA.03 25-Dec-2016

 -----------------------------------
 #p cam-b3lyp/Def2SVP td=(nstates=5)
 -----------------------------------

 --------------------------------------------------------
 step_1451_chromophore_22 TDDFT with cam-b3lyp functional
 --------------------------------------------------------
 Symbolic Z-matrix:
 Charge =  0 Multiplicity = 1

                         Standard orientation:
 ---------------------------------------------------------------------
 Center     Atomic      Atomic             Coordinates (Angstroms)
 Number     Number       Type             X           Y           Z
 ---------------------------------------------------------------------
      1         12           0        6.121583    0.522817   -0.085408
      2          6           0        4.092427   -2.398920    0.054244
      3          6           0        3.774755    2.044119   -2.147848
      4          6           0        8.029895    3.164644   -0.263748
      5          6           0        8.786761   -1.378804    1.252930
      6          7           0        4.203469   -0.160149   -0.996768
      7          6           0        3.519308   -1.333370   -0.682039
      8          6           0        2.175794   -1.267451   -1.417197
      9          6           0        2.315741   -0.041668   -2.421765
     10          6           0        3.525292    0.669174   -1.842127
     11          6           0        2.487340   -0.243801   -3.929015
     12          6           0        0.968260   -1.244425   -0.451555
     13          6           0       -0.417957   -1.297465   -1.170270
     14          6           0       -1.650445   -1.944732   -0.519834
     15          8           0       -1.704107   -2.720208    0.460315
     16          8           0       -2.789669   -1.453894   -1.044291
     17          7           0        5.832203    2.462441   -0.843344
     18          6           0        4.792461    2.845114   -1.650613
     19          6           0        4.981752    4.246534   -2.047561
     20          6           0        6.229855    4.640332   -1.403270
     21          6           0        6.814913    3.411739   -0.810247
     22          6           0        3.940658    5.079127   -2.753068
     23          6           0        6.946840    6.042506   -1.431935
     24          8           0        8.024592    6.252360   -0.869566
     25          6           0        6.326394    7.259414   -1.973458
     26          7           0        8.152282    0.818750    0.297600
     27          6           0        8.644187    2.073632    0.324950
     28          6           0        9.945688    2.220490    1.051750
     29          6           0       10.208695    0.763675    1.649554
     30          6           0        9.026549    0.013851    0.987143
     31          6           0       11.154854    2.810910    0.165003
     32          6           0       10.341858    0.647560    3.206481
     33          6           0       11.358954   -0.230246    3.747331
     34          7           0        6.411894   -1.484756    0.533960
     35          6           0        7.569184   -2.125623    1.005701
     36          6           0        7.288569   -3.497984    1.266971
     37          6           0        5.936470   -3.682826    0.940832
     38          6           0        5.474552   -2.391577    0.451675
     39          6           0        8.245082   -4.372902    1.878655
     40          6           0        4.716960   -4.528775    0.986081
     41          8           0        4.606543   -5.675730    1.504541
     42          6           0        3.562465   -3.841476    0.286809
     43          6           0        2.421464   -3.983236    1.205225
     44          8           0        2.238521   -3.289081    2.175432
     45          8           0        1.688680   -5.002173    0.802056
     46          6           0        0.435844   -5.203838    1.478297
     47          6           0       -4.029873   -2.051540   -0.557008
     48          6           0       -5.292614   -1.763530   -1.519209
     49          6           0       -6.492580   -2.410212   -1.592854
     50          6           0       -6.892005   -3.627926   -0.776180
     51          6           0       -7.528001   -2.088856   -2.640025
     52          6           0       -8.732544   -1.244241   -2.136854
     53          6           0      -10.035657   -1.752338   -2.864105
     54          6           0      -11.185746   -1.838233   -1.911665
     55          6           0      -12.315743   -2.563743   -2.628667
     56          6           0      -11.716946   -0.512448   -1.322876
     57          6           0      -11.825165   -0.544377    0.247791
     58          6           0      -13.294173   -0.411673    0.626514
     59          6           0      -13.773723    1.126207    0.577193
     60          6           0      -14.966285    1.302571   -0.458021
     61          6           0      -14.008411    1.640738    2.004613
     62          6           0      -12.838715    2.463114    2.530792
     63          6           0      -13.041613    3.988905    2.634465
     64          6           0      -12.097083    4.476106    3.833110
     65          6           0      -12.589203    5.914609    4.253644
     66          6           0      -10.574332    4.452544    3.311553
     67          1           0        2.983056    2.376048   -2.823038
     68          1           0        8.726163    4.005762   -0.269853
     69          1           0        9.687285   -1.838954    1.664479
     70          1           0        2.229185   -2.196384   -1.985706
     71          1           0        1.374767    0.505067   -2.367217
     72          1           0        1.668251    0.187514   -4.504570
     73          1           0        2.552986   -1.296352   -4.204872
     74          1           0        3.357888    0.368460   -4.164792
     75          1           0        1.038951   -0.281775    0.054410
     76          1           0        0.953332   -2.024008    0.309496
     77          1           0       -0.325957   -1.711085   -2.174812
     78          1           0       -0.802771   -0.282504   -1.278601
     79          1           0        4.473588    5.763624   -3.412209
     80          1           0        3.434339    5.717089   -2.028178
     81          1           0        3.240658    4.451901   -3.305710
     82          1           0        5.791926    7.196957   -2.920762
     83          1           0        7.146517    7.929032   -2.232114
     84          1           0        5.608448    7.619498   -1.236455
     85          1           0        9.700416    2.926033    1.845473
     86          1           0       11.133413    0.366767    1.230890
     87          1           0       11.934369    2.052844    0.086780
     88          1           0       11.453379    3.699009    0.721116
     89          1           0       10.867048    3.075869   -0.851992
     90          1           0        9.365393    0.536582    3.678233
     91          1           0       10.818168    1.581587    3.504863
     92          1           0       10.997403   -0.670548    4.676952
     93          1           0       12.298356    0.279563    3.960683
     94          1           0       11.389239   -1.004550    2.979870
     95          1           0        8.403251   -4.096571    2.920728
     96          1           0        9.092512   -4.312219    1.195789
     97          1           0        7.838947   -5.379271    1.779929
     98          1           0        3.249325   -4.399543   -0.595772
     99          1           0        0.583384   -5.728234    2.421711
    100          1           0       -0.224032   -5.752071    0.805439
    101          1           0        0.007180   -4.273707    1.851610
    102          1           0       -4.290693   -1.612668    0.405626
    103          1           0       -3.940222   -3.129911   -0.424431
    104          1           0       -5.103062   -1.183073   -2.422868
    105          1           0       -7.573508   -3.504596    0.066110
    106          1           0       -6.065459   -4.143742   -0.287026
    107          1           0       -7.221111   -4.349254   -1.523141
    108          1           0       -7.831248   -2.969718   -3.206401
    109          1           0       -7.094966   -1.521973   -3.463975
    110          1           0       -8.392866   -0.216920   -2.273591
    111          1           0       -8.919362   -1.340105   -1.067940
    112          1           0       -9.876822   -2.607336   -3.522141
    113          1           0      -10.132497   -0.933772   -3.576645
    114          1           0      -10.844978   -2.505217   -1.119307
    115          1           0      -12.785699   -3.215369   -1.892696
    116          1           0      -12.041222   -3.145510   -3.508560
    117          1           0      -13.062380   -1.829406   -2.932489
    118          1           0      -12.593066   -0.059595   -1.785876
    119          1           0      -10.917829    0.216402   -1.463844
    120          1           0      -11.322243    0.356683    0.598767
    121          1           0      -11.448728   -1.469110    0.685313
    122          1           0      -13.475040   -0.787652    1.633336
    123          1           0      -13.879207   -1.008497   -0.073923
    124          1           0      -12.989531    1.748910    0.146285
    125          1           0      -14.670634    2.101556   -1.138505
    126          1           0      -15.915668    1.453698    0.054551
    127          1           0      -15.053446    0.530439   -1.221946
    128          1           0      -14.148412    0.855939    2.747817
    129          1           0      -14.916153    2.244438    2.004337
    130          1           0      -11.900986    2.345206    1.988544
    131          1           0      -12.666936    2.042656    3.521727
    132          1           0      -14.036465    4.357328    2.884274
    133          1           0      -12.734244    4.424366    1.683096
    134          1           0      -12.171901    3.752586    4.643709
    135          1           0      -12.835428    6.011129    5.310941
    136          1           0      -13.378921    6.353024    3.644445
    137          1           0      -11.824191    6.677834    4.110904
    138          1           0      -10.577910    4.278165    2.235752
    139          1           0      -10.083004    3.575021    3.731258
    140          1           0       -9.950783    5.322364    3.515822
 ---------------------------------------------------------------------

 SCF Done:  E(RCAM-B3LYP) =  -3007.13268809     A.U. after   19 cycles

 Excitation energies and oscillator strengths:

 Excited State   1:      Singlet-A      1.7095 eV  725.28 nm  f=0.3721  <S**2>=0.000
     245 -> 248        0.18235
     246 -> 247        0.68462
     245 <- 248        0.10732
 This state for optimization and/or second-order correction.
 Total Energy, E(TD-HF/TD-DFT) =  -3007.06986628
 Copying the excited state density for this state as the 1-particle RhoCI density.

 Excited State   2:      Singlet-A      2.2512 eV  550.74 nm  f=0.0663  <S**2>=0.000
     245 -> 247        0.61396
     246 -> 248       -0.33717

 Excited State   3:      Singlet-A      3.3859 eV  366.18 nm  f=0.4047  <S**2>=0.000
     242 -> 247        0.36698
     243 -> 247        0.17452
     245 -> 247        0.24089
     246 -> 248        0.51133

 Excited State   4:      Singlet-A      3.4587 eV  358.47 nm  f=0.0015  <S**2>=0.000
     242 -> 247       -0.26484
     243 -> 247        0.46112
     243 -> 249        0.25739
     243 -> 250       -0.25951
     244 -> 247        0.23010

 Excited State   5:      Singlet-A      3.4905 eV  355.20 nm  f=0.0929  <S**2>=0.000
     242 -> 247       -0.21299
     243 -> 247       -0.24499
     243 -> 249       -0.10226
     243 -> 250        0.10897
     244 -> 247        0.53964
     245 -> 247        0.11961
     246 -> 248        0.21721

 The electronic state is 1-A.
 Alpha  occ. eigenvalues --  -46.88686 -19.26022 -19.24390 -19.19814 -19.19157
 Alpha  occ. eigenvalues --  -19.18016 -19.17509 -14.42111 -14.42018 -14.39549
 Alpha  occ. eigenvalues --  -14.38807 -10.40239 -10.37569 -10.35698 -10.34344
 Alpha  occ. eigenvalues --  -10.33191 -10.31470 -10.31059 -10.30713 -10.30689
 Alpha  occ. eigenvalues --  -10.30638 -10.30455 -10.29776 -10.29605 -10.28888
 Alpha  occ. eigenvalues --  -10.28515 -10.28457 -10.28286 -10.28271 -10.28241
 Alpha  occ. eigenvalues --  -10.28108 -10.28097 -10.28027 -10.27809 -10.27664
 Alpha  occ. eigenvalues --  -10.27505 -10.27400 -10.27333 -10.27274 -10.26868
 Alpha  occ. eigenvalues --  -10.26701 -10.26557 -10.26514 -10.26455 -10.26287
 Alpha  occ. eigenvalues --  -10.25903 -10.25804 -10.25804 -10.25659 -10.25474
 Alpha  occ. eigenvalues --  -10.25436 -10.25332 -10.25131 -10.24997 -10.24948
 Alpha  occ. eigenvalues --  -10.24850 -10.24839 -10.24728 -10.24715 -10.24667
 Alpha  occ. eigenvalues --  -10.24553 -10.24469 -10.24451 -10.24397 -10.24360
 Alpha  occ. eigenvalues --  -10.24060  -3.17157  -1.92067  -1.91612  -1.91457
 Alpha  occ. eigenvalues --   -1.17466  -1.17384  -1.10016  -1.07704  -1.06674
 Alpha  occ. eigenvalues --   -1.06511  -1.04204  -1.03210  -1.02998  -1.02086
 Alpha  occ. eigenvalues --   -0.91448  -0.90776  -0.89581  -0.89508  -0.89229
 Alpha  occ. eigenvalues --   -0.88900  -0.88672  -0.87487  -0.87231  -0.86744
 Alpha  occ. eigenvalues --   -0.86672  -0.85655  -0.84288  -0.83917  -0.83565
 Alpha  occ. eigenvalues --   -0.82653  -0.82282  -0.81549  -0.80813  -0.80201
 Alpha  occ. eigenvalues --   -0.79820  -0.78296  -0.78145  -0.77302  -0.76023
 Alpha  occ. eigenvalues --   -0.75789  -0.75371  -0.75344  -0.74898  -0.74046
 Alpha  occ. eigenvalues --   -0.73509  -0.72443  -0.71809  -0.70602  -0.68649
 Alpha  occ. eigenvalues --   -0.67872  -0.67676  -0.67184  -0.66792  -0.65469
 Alpha  occ. eigenvalues --   -0.65140  -0.64906  -0.64862  -0.64360  -0.63872
 Alpha  occ. eigenvalues --   -0.63748  -0.63473  -0.63040  -0.62041  -0.60372
 Alpha  occ. eigenvalues --   -0.59895  -0.59472  -0.59074  -0.58447  -0.57573
 Alpha  occ. eigenvalues --   -0.57001  -0.56946  -0.56437  -0.56240  -0.55906
 Alpha  occ. eigenvalues --   -0.55016  -0.54862  -0.54696  -0.54181  -0.53912
 Alpha  occ. eigenvalues --   -0.53622  -0.53567  -0.53336  -0.53111  -0.52905
 Alpha  occ. eigenvalues --   -0.52843  -0.52619  -0.52089  -0.51858  -0.51729
 Alpha  occ. eigenvalues --   -0.51613  -0.51387  -0.51350  -0.50890  -0.50752
 Alpha  occ. eigenvalues --   -0.50455  -0.50315  -0.50226  -0.50066  -0.49686
 Alpha  occ. eigenvalues --   -0.49417  -0.49326  -0.49146  -0.48907  -0.48858
 Alpha  occ. eigenvalues --   -0.48603  -0.48424  -0.48102  -0.48042  -0.47847
 Alpha  occ. eigenvalues --   -0.47673  -0.47535  -0.47262  -0.47160  -0.46886
 Alpha  occ. eigenvalues --   -0.46512  -0.46373  -0.46078  -0.45752  -0.45560
 Alpha  occ. eigenvalues --   -0.45539  -0.45297  -0.45151  -0.44806  -0.44254
 Alpha  occ. eigenvalues --   -0.43977  -0.43750  -0.43727  -0.43524  -0.43463
 Alpha  occ. eigenvalues --   -0.43414  -0.43165  -0.42996  -0.42866  -0.42754
 Alpha  occ. eigenvalues --   -0.42580  -0.42454  -0.42174  -0.42021  -0.41931
 Alpha  occ. eigenvalues --   -0.41749  -0.41484  -0.41313  -0.41115  -0.41028
 Alpha  occ. eigenvalues --   -0.40999  -0.40688  -0.40432  -0.40377  -0.40223
 Alpha  occ. eigenvalues --   -0.39461  -0.39433  -0.39147  -0.39123  -0.38672
 Alpha  occ. eigenvalues --   -0.38486  -0.38327  -0.38051  -0.37531  -0.37141
 Alpha  occ. eigenvalues --   -0.37084  -0.36743  -0.36565  -0.36481  -0.36067
 Alpha  occ. eigenvalues --   -0.35627  -0.35413  -0.35306  -0.34176  -0.33932
 Alpha  occ. eigenvalues --   -0.33662  -0.33215  -0.32641  -0.31520  -0.30813
 Alpha  occ. eigenvalues --   -0.30115  -0.29945  -0.29811  -0.29142  -0.24041
 Alpha  occ. eigenvalues --   -0.20736
 Alpha virt. eigenvalues --   -0.08242  -0.01982   0.00319   0.02269   0.03160
 Alpha virt. eigenvalues --    0.04531   0.05194   0.05581   0.06519   0.07174
 Alpha virt. eigenvalues --    0.07814   0.08267   0.08859   0.08986   0.09110

 Mulliken charges:
               1
     1  Mg   0.818428
     2  C    0.018145
     3  C   -0.080038
     4  C   -0.067232
     5  C   -0.076345
     6  N   -0.291336
     7  C   -0.029567
     8  C   -0.007378
     9  C   -0.098361
    10  C    0.010809
    11  C    0.082902
    12  C    0.090768
    13  C    0.015420
    14  C    0.173651
    15  O   -0.263594
    16  O   -0.315145
    17  N   -0.386846
    18  C    0.211746
    19  C   -0.171481
    20  C   -0.024818
    21  C    0.154276
    22  C    0.120450
    23  C    0.026767
    24  O   -0.218256
    25  C    0.043145
    26  N   -0.301881
    27  C    0.029650
    28  C   -0.057678
    29  C   -0.018809
    30  C    0.005768
    31  C    0.062012
    32  C    0.048415
    33  C    0.016792
    34  N   -0.309930
    35  C    0.121747
    36  C   -0.210577
    37  C    0.035806
    38  C    0.048960
    39  C    0.137714
    40  C    0.039707
    41  O   -0.223712
    42  C    0.042423
    43  C    0.138509
    44  O   -0.217860
    45  O   -0.281709
    46  C    0.183401
    47  C    0.263485
    48  C   -0.100424
    49  C   -0.162436
    50  C    0.071603
    51  C    0.047589
    52  C    0.008876
    53  C    0.036253
    54  C   -0.105105
    55  C    0.063666
    56  C    0.045239
    57  C    0.019286
    58  C    0.050683
    59  C   -0.158737
    60  C    0.041256
    61  C    0.118831
    62  C   -0.021029
    63  C    0.024465
    64  C   -0.154601
    65  C    0.052085
    66  C    0.024352
    67  H   -0.029287
    68  H   -0.015273
    69  H   -0.030032
    70  H   -0.006427
    71  H    0.004470
    72  H    0.009018
    73  H    0.023107
    74  H    0.020897
    75  H    0.008667
    76  H    0.049604
    77  H    0.036803
    78  H    0.038572
    79  H    0.020124
    80  H    0.041223
    81  H    0.024565
    82  H    0.006593
    83  H    0.037180
    84  H    0.051715
    85  H    0.027016
    86  H    0.001067
    87  H    0.016195
    88  H    0.031966
    89  H    0.034071
    90  H    0.017630
    91  H   -0.004379
    92  H    0.015075
    93  H    0.022354
    94  H    0.006421
    95  H    0.041681
    96  H    0.021097
    97  H    0.025453
    98  H    0.042061
    99  H    0.022429
   100  H    0.036419
   101  H    0.048083
   102  H    0.037914
   103  H    0.042346
   104  H   -0.000297
   105  H    0.033337
   106  H   -0.005920
   107  H    0.016994
   108  H    0.001617
   109  H   -0.015392
   110  H    0.009528
   111  H    0.003402
   112  H    0.002513
   113  H   -0.011221
   114  H   -0.004815
   115  H    0.001901
   116  H    0.002508
   117  H   -0.002583
   118  H    0.003314
   119  H   -0.016200
   120  H   -0.001098
   121  H    0.002444
   122  H   -0.014133
   123  H   -0.006266
   124  H   -0.000739
   125  H   -0.003328
   126  H    0.019012
   127  H    0.000259
   128  H   -0.005003
   129  H   -0.015148
   130  H   -0.000639
   131  H   -0.012753
   132  H    0.004360
   133  H    0.001902
   134  H    0.009757
   135  H    0.011471
   136  H    0.004998
   137  H   -0.011067
   138  H    0.006312
   139  H    0.007874
   140  H    0.016484
 Sum of Mulliken charges =  -0.00000

 Dipole moment (field-independent basis, Debye):
    X=             -2.6988    Y=              4.7654    Z=             -4.3714  Tot=              7.0073
 Quadrupole moment (field-independent basis, Debye-Ang):
   XX=           -375.2243   YY=           -427.4678   ZZ=           -396.3528
   XY=             18.4726   XZ=              5.0884   YZ=              7.0048

 Normal termination of Gaussian 16 at Wed May  4 06:38:17 2022.
