 Gaussian 16, Revision A.03,
 Gaussian 16:  ES64L-G16RevA.03 25-Dec-2016

 ---------------------------------
 #p PBE1PBE/Def2SVP td=(nstates=5)
 ---------------------------------

 ------------------------------------------------------
 step_1451_chromophore_22 TDDFT with PBE1PBE functional
 ------------------------------------------------------
 Symbolic Z-matrix:
 Charge =  0 Multiplicity = 1

                         Standard orientation:
 ---------------------------------------------------------------------
 Center     Atomic      Atomic             Coordinates (Angstroms)
 Number     Number       Type             X           Y           Z
 ---------------------------------------------------------------------
      1         12           0        6.121583    0.522817   -0.085408
      2          6           0        4.092427   -2.398920    0.054244
      3          6           0        3.774755    2.044119   -2.147848
      4          6           0        8.029895    3.164644   -0.263748
      5          6           0        8.786761   -1.378804    1.252930
      6          7           0        4.203469   -0.160149   -0.996768
      7          6           0        3.519308   -1.333370   -0.682039
      8          6           0        2.175794   -1.267451   -1.417197
      9          6           0        2.315741   -0.041668   -2.421765
     10          6           0        3.525292    0.669174   -1.842127
     11          6           0        2.487340   -0.243801   -3.929015
     12          6           0        0.968260   -1.244425   -0.451555
     13          6           0       -0.417957   -1.297465   -1.170270
     14          6           0       -1.650445   -1.944732   -0.519834
     15          8           0       -1.704107   -2.720208    0.460315
     16          8           0       -2.789669   -1.453894   -1.044291
     17          7           0        5.832203    2.462441   -0.843344
     18          6           0        4.792461    2.845114   -1.650613
     19          6           0        4.981752    4.246534   -2.047561
     20          6           0        6.229855    4.640332   -1.403270
     21          6           0        6.814913    3.411739   -0.810247
     22          6           0        3.940658    5.079127   -2.753068
     23          6           0        6.946840    6.042506   -1.431935
     24          8           0        8.024592    6.252360   -0.869566
     25          6           0        6.326394    7.259414   -1.973458
     26          7           0        8.152282    0.818750    0.297600
     27          6           0        8.644187    2.073632    0.324950
     28          6           0        9.945688    2.220490    1.051750
     29          6           0       10.208695    0.763675    1.649554
     30          6           0        9.026549    0.013851    0.987143
     31          6           0       11.154854    2.810910    0.165003
     32          6           0       10.341858    0.647560    3.206481
     33          6           0       11.358954   -0.230246    3.747331
     34          7           0        6.411894   -1.484756    0.533960
     35          6           0        7.569184   -2.125623    1.005701
     36          6           0        7.288569   -3.497984    1.266971
     37          6           0        5.936470   -3.682826    0.940832
     38          6           0        5.474552   -2.391577    0.451675
     39          6           0        8.245082   -4.372902    1.878655
     40          6           0        4.716960   -4.528775    0.986081
     41          8           0        4.606543   -5.675730    1.504541
     42          6           0        3.562465   -3.841476    0.286809
     43          6           0        2.421464   -3.983236    1.205225
     44          8           0        2.238521   -3.289081    2.175432
     45          8           0        1.688680   -5.002173    0.802056
     46          6           0        0.435844   -5.203838    1.478297
     47          6           0       -4.029873   -2.051540   -0.557008
     48          6           0       -5.292614   -1.763530   -1.519209
     49          6           0       -6.492580   -2.410212   -1.592854
     50          6           0       -6.892005   -3.627926   -0.776180
     51          6           0       -7.528001   -2.088856   -2.640025
     52          6           0       -8.732544   -1.244241   -2.136854
     53          6           0      -10.035657   -1.752338   -2.864105
     54          6           0      -11.185746   -1.838233   -1.911665
     55          6           0      -12.315743   -2.563743   -2.628667
     56          6           0      -11.716946   -0.512448   -1.322876
     57          6           0      -11.825165   -0.544377    0.247791
     58          6           0      -13.294173   -0.411673    0.626514
     59          6           0      -13.773723    1.126207    0.577193
     60          6           0      -14.966285    1.302571   -0.458021
     61          6           0      -14.008411    1.640738    2.004613
     62          6           0      -12.838715    2.463114    2.530792
     63          6           0      -13.041613    3.988905    2.634465
     64          6           0      -12.097083    4.476106    3.833110
     65          6           0      -12.589203    5.914609    4.253644
     66          6           0      -10.574332    4.452544    3.311553
     67          1           0        2.983056    2.376048   -2.823038
     68          1           0        8.726163    4.005762   -0.269853
     69          1           0        9.687285   -1.838954    1.664479
     70          1           0        2.229185   -2.196384   -1.985706
     71          1           0        1.374767    0.505067   -2.367217
     72          1           0        1.668251    0.187514   -4.504570
     73          1           0        2.552986   -1.296352   -4.204872
     74          1           0        3.357888    0.368460   -4.164792
     75          1           0        1.038951   -0.281775    0.054410
     76          1           0        0.953332   -2.024008    0.309496
     77          1           0       -0.325957   -1.711085   -2.174812
     78          1           0       -0.802771   -0.282504   -1.278601
     79          1           0        4.473588    5.763624   -3.412209
     80          1           0        3.434339    5.717089   -2.028178
     81          1           0        3.240658    4.451901   -3.305710
     82          1           0        5.791926    7.196957   -2.920762
     83          1           0        7.146517    7.929032   -2.232114
     84          1           0        5.608448    7.619498   -1.236455
     85          1           0        9.700416    2.926033    1.845473
     86          1           0       11.133413    0.366767    1.230890
     87          1           0       11.934369    2.052844    0.086780
     88          1           0       11.453379    3.699009    0.721116
     89          1           0       10.867048    3.075869   -0.851992
     90          1           0        9.365393    0.536582    3.678233
     91          1           0       10.818168    1.581587    3.504863
     92          1           0       10.997403   -0.670548    4.676952
     93          1           0       12.298356    0.279563    3.960683
     94          1           0       11.389239   -1.004550    2.979870
     95          1           0        8.403251   -4.096571    2.920728
     96          1           0        9.092512   -4.312219    1.195789
     97          1           0        7.838947   -5.379271    1.779929
     98          1           0        3.249325   -4.399543   -0.595772
     99          1           0        0.583384   -5.728234    2.421711
    100          1           0       -0.224032   -5.752071    0.805439
    101          1           0        0.007180   -4.273707    1.851610
    102          1           0       -4.290693   -1.612668    0.405626
    103          1           0       -3.940222   -3.129911   -0.424431
    104          1           0       -5.103062   -1.183073   -2.422868
    105          1           0       -7.573508   -3.504596    0.066110
    106          1           0       -6.065459   -4.143742   -0.287026
    107          1           0       -7.221111   -4.349254   -1.523141
    108          1           0       -7.831248   -2.969718   -3.206401
    109          1           0       -7.094966   -1.521973   -3.463975
    110          1           0       -8.392866   -0.216920   -2.273591
    111          1           0       -8.919362   -1.340105   -1.067940
    112          1           0       -9.876822   -2.607336   -3.522141
    113          1           0      -10.132497   -0.933772   -3.576645
    114          1           0      -10.844978   -2.505217   -1.119307
    115          1           0      -12.785699   -3.215369   -1.892696
    116          1           0      -12.041222   -3.145510   -3.508560
    117          1           0      -13.062380   -1.829406   -2.932489
    118          1           0      -12.593066   -0.059595   -1.785876
    119          1           0      -10.917829    0.216402   -1.463844
    120          1           0      -11.322243    0.356683    0.598767
    121          1           0      -11.448728   -1.469110    0.685313
    122          1           0      -13.475040   -0.787652    1.633336
    123          1           0      -13.879207   -1.008497   -0.073923
    124          1           0      -12.989531    1.748910    0.146285
    125          1           0      -14.670634    2.101556   -1.138505
    126          1           0      -15.915668    1.453698    0.054551
    127          1           0      -15.053446    0.530439   -1.221946
    128          1           0      -14.148412    0.855939    2.747817
    129          1           0      -14.916153    2.244438    2.004337
    130          1           0      -11.900986    2.345206    1.988544
    131          1           0      -12.666936    2.042656    3.521727
    132          1           0      -14.036465    4.357328    2.884274
    133          1           0      -12.734244    4.424366    1.683096
    134          1           0      -12.171901    3.752586    4.643709
    135          1           0      -12.835428    6.011129    5.310941
    136          1           0      -13.378921    6.353024    3.644445
    137          1           0      -11.824191    6.677834    4.110904
    138          1           0      -10.577910    4.278165    2.235752
    139          1           0      -10.083004    3.575021    3.731258
    140          1           0       -9.950783    5.322364    3.515822
 ---------------------------------------------------------------------

 SCF Done:  E(RPBE1PBE) =  -3005.32133238     A.U. after   15 cycles

 Excitation energies and oscillator strengths:

 Excited State   1:      Singlet-A      1.8459 eV  671.66 nm  f=0.3626  <S**2>=0.000
     245 -> 248        0.17713
     246 -> 247        0.69125
     246 <- 247       -0.10301
 This state for optimization and/or second-order correction.
 Total Energy, E(TD-HF/TD-DFT) =  -3005.25349559
 Copying the excited state density for this state as the 1-particle RhoCI density.

 Excited State   2:      Singlet-A      2.2496 eV  551.14 nm  f=0.0699  <S**2>=0.000
     245 -> 247        0.63035
     246 -> 248       -0.30656

 Excited State   3:      Singlet-A      2.9232 eV  424.14 nm  f=0.0001  <S**2>=0.000
     244 -> 247        0.66879
     244 -> 249        0.16397
     244 -> 250       -0.13552

 Excited State   4:      Singlet-A      3.1073 eV  399.01 nm  f=0.0001  <S**2>=0.000
     242 -> 247       -0.22310
     243 -> 247        0.66366

 Excited State   5:      Singlet-A      3.1462 eV  394.07 nm  f=0.0275  <S**2>=0.000
     240 -> 247       -0.31447
     242 -> 247        0.51190
     243 -> 247        0.15796
     246 -> 248        0.27751

 The electronic state is 1-A.
 Alpha  occ. eigenvalues --  -46.92075 -19.26711 -19.25133 -19.20123 -19.19150
 Alpha  occ. eigenvalues --  -19.18360 -19.17999 -14.41594 -14.41559 -14.39108
 Alpha  occ. eigenvalues --  -14.38584 -10.37295 -10.34667 -10.32613 -10.31733
 Alpha  occ. eigenvalues --  -10.30636 -10.28976 -10.28955 -10.28655 -10.28218
 Alpha  occ. eigenvalues --  -10.28056 -10.27873 -10.27077 -10.27009 -10.26953
 Alpha  occ. eigenvalues --  -10.26210 -10.26173 -10.26123 -10.26050 -10.25972
 Alpha  occ. eigenvalues --  -10.25955 -10.25855 -10.25819 -10.25323 -10.25245
 Alpha  occ. eigenvalues --  -10.25025 -10.25009 -10.24994 -10.24955 -10.24483
 Alpha  occ. eigenvalues --  -10.24460 -10.24430 -10.24006 -10.23850 -10.23543
 Alpha  occ. eigenvalues --  -10.23487 -10.23384 -10.23283 -10.23249 -10.23130
 Alpha  occ. eigenvalues --  -10.23060 -10.22861 -10.22736 -10.22608 -10.22590
 Alpha  occ. eigenvalues --  -10.22523 -10.22433 -10.22391 -10.22324 -10.22126
 Alpha  occ. eigenvalues --  -10.22020 -10.22006 -10.21972 -10.21968 -10.21764
 Alpha  occ. eigenvalues --  -10.21462  -3.14128  -1.86979  -1.86502  -1.86350
 Alpha  occ. eigenvalues --   -1.12318  -1.12291  -1.04523  -1.02621  -1.01536
 Alpha  occ. eigenvalues --   -1.01435  -0.98823  -0.97964  -0.97579  -0.96705
 Alpha  occ. eigenvalues --   -0.85908  -0.84883  -0.83805  -0.83711  -0.83405
 Alpha  occ. eigenvalues --   -0.83159  -0.82792  -0.81890  -0.81626  -0.80847
 Alpha  occ. eigenvalues --   -0.80761  -0.79863  -0.78561  -0.78275  -0.77820
 Alpha  occ. eigenvalues --   -0.76878  -0.76317  -0.75805  -0.75171  -0.74523
 Alpha  occ. eigenvalues --   -0.73977  -0.72506  -0.72430  -0.71657  -0.70357
 Alpha  occ. eigenvalues --   -0.70061  -0.69682  -0.69445  -0.69017  -0.68255
 Alpha  occ. eigenvalues --   -0.67817  -0.66964  -0.66224  -0.64919  -0.63078
 Alpha  occ. eigenvalues --   -0.62343  -0.61952  -0.61442  -0.61126  -0.59903
 Alpha  occ. eigenvalues --   -0.59470  -0.59346  -0.59316  -0.58495  -0.58494
 Alpha  occ. eigenvalues --   -0.58013  -0.57899  -0.57184  -0.56701  -0.54766
 Alpha  occ. eigenvalues --   -0.54306  -0.54068  -0.53544  -0.53074  -0.52288
 Alpha  occ. eigenvalues --   -0.51479  -0.51309  -0.50906  -0.50754  -0.50472
 Alpha  occ. eigenvalues --   -0.49557  -0.49436  -0.49256  -0.48800  -0.48475
 Alpha  occ. eigenvalues --   -0.48150  -0.48057  -0.47943  -0.47525  -0.47383
 Alpha  occ. eigenvalues --   -0.47337  -0.47068  -0.46591  -0.46377  -0.46258
 Alpha  occ. eigenvalues --   -0.46209  -0.46015  -0.45938  -0.45576  -0.45232
 Alpha  occ. eigenvalues --   -0.45036  -0.44972  -0.44818  -0.44623  -0.44253
 Alpha  occ. eigenvalues --   -0.43990  -0.43797  -0.43650  -0.43508  -0.43433
 Alpha  occ. eigenvalues --   -0.43147  -0.43082  -0.42740  -0.42666  -0.42438
 Alpha  occ. eigenvalues --   -0.42361  -0.42213  -0.41863  -0.41746  -0.41469
 Alpha  occ. eigenvalues --   -0.41285  -0.41160  -0.40786  -0.40513  -0.40315
 Alpha  occ. eigenvalues --   -0.40130  -0.40106  -0.39812  -0.39706  -0.39015
 Alpha  occ. eigenvalues --   -0.38681  -0.38605  -0.38435  -0.38415  -0.38238
 Alpha  occ. eigenvalues --   -0.38214  -0.37905  -0.37755  -0.37621  -0.37510
 Alpha  occ. eigenvalues --   -0.37389  -0.37263  -0.37075  -0.36904  -0.36647
 Alpha  occ. eigenvalues --   -0.36478  -0.36301  -0.36172  -0.36033  -0.35794
 Alpha  occ. eigenvalues --   -0.35723  -0.35528  -0.35315  -0.35239  -0.35130
 Alpha  occ. eigenvalues --   -0.34452  -0.34247  -0.34068  -0.33860  -0.33444
 Alpha  occ. eigenvalues --   -0.33419  -0.33144  -0.32807  -0.32345  -0.32155
 Alpha  occ. eigenvalues --   -0.32055  -0.31636  -0.31605  -0.31540  -0.30885
 Alpha  occ. eigenvalues --   -0.30626  -0.30354  -0.30234  -0.29353  -0.28802
 Alpha  occ. eigenvalues --   -0.28657  -0.28646  -0.27734  -0.26653  -0.25874
 Alpha  occ. eigenvalues --   -0.25407  -0.25350  -0.24996  -0.24812  -0.20925
 Alpha  occ. eigenvalues --   -0.18413
 Alpha virt. eigenvalues --   -0.10783  -0.05455  -0.03818  -0.02149  -0.00105
 Alpha virt. eigenvalues --    0.00434   0.00752   0.01282   0.02375   0.02844
 Alpha virt. eigenvalues --    0.03683   0.04404   0.05246   0.05644   0.05851

 Mulliken charges:
               1
     1  Mg   0.965320
     2  C    0.023586
     3  C   -0.065497
     4  C   -0.065737
     5  C   -0.074178
     6  N   -0.395649
     7  C    0.047626
     8  C   -0.084308
     9  C   -0.166423
    10  C    0.040058
    11  C    0.026357
    12  C    0.029368
    13  C   -0.056625
    14  C    0.239093
    15  O   -0.297133
    16  O   -0.347546
    17  N   -0.500350
    18  C    0.229875
    19  C   -0.197232
    20  C   -0.066684
    21  C    0.180345
    22  C    0.055811
    23  C    0.074088
    24  O   -0.254410
    25  C   -0.026531
    26  N   -0.406677
    27  C    0.063180
    28  C   -0.128862
    29  C   -0.094833
    30  C    0.051145
    31  C    0.002692
    32  C   -0.015378
    33  C   -0.056440
    34  N   -0.438527
    35  C    0.147331
    36  C   -0.235737
    37  C   -0.003611
    38  C    0.095503
    39  C    0.078106
    40  C    0.137132
    41  O   -0.263561
    42  C   -0.078309
    43  C    0.236382
    44  O   -0.253568
    45  O   -0.317579
    46  C    0.127725
    47  C    0.226873
    48  C   -0.113475
    49  C   -0.208885
    50  C    0.014472
    51  C   -0.015997
    52  C   -0.049290
    53  C   -0.014556
    54  C   -0.200660
    55  C    0.007195
    56  C   -0.007544
    57  C   -0.050925
    58  C   -0.004758
    59  C   -0.240128
    60  C   -0.017589
    61  C    0.065212
    62  C   -0.083050
    63  C   -0.032551
    64  C   -0.246472
    65  C   -0.006182
    66  C   -0.034233
    67  H    0.002532
    68  H    0.017863
    69  H    0.003896
    70  H    0.033258
    71  H    0.042040
    72  H    0.035865
    73  H    0.049557
    74  H    0.049540
    75  H    0.043407
    76  H    0.090437
    77  H    0.068387
    78  H    0.069867
    79  H    0.048203
    80  H    0.068037
    81  H    0.050583
    82  H    0.032083
    83  H    0.062595
    84  H    0.077549
    85  H    0.063947
    86  H    0.039077
    87  H    0.043034
    88  H    0.058604
    89  H    0.060982
    90  H    0.049532
    91  H    0.031796
    92  H    0.043887
    93  H    0.049779
    94  H    0.034748
    95  H    0.069708
    96  H    0.050003
    97  H    0.055577
    98  H    0.078130
    99  H    0.045710
   100  H    0.058560
   101  H    0.070258
   102  H    0.065158
   103  H    0.067199
   104  H    0.029735
   105  H    0.058949
   106  H    0.021800
   107  H    0.043819
   108  H    0.032645
   109  H    0.017567
   110  H    0.040712
   111  H    0.037823
   112  H    0.032058
   113  H    0.023569
   114  H    0.033503
   115  H    0.030226
   116  H    0.029489
   117  H    0.025083
   118  H    0.036105
   119  H    0.018568
   120  H    0.034944
   121  H    0.033484
   122  H    0.018465
   123  H    0.028240
   124  H    0.037242
   125  H    0.024114
   126  H    0.045578
   127  H    0.025803
   128  H    0.026544
   129  H    0.017996
   130  H    0.031846
   131  H    0.019641
   132  H    0.036553
   133  H    0.035196
   134  H    0.046291
   135  H    0.038950
   136  H    0.031189
   137  H    0.016467
   138  H    0.032907
   139  H    0.035452
   140  H    0.043263
 Sum of Mulliken charges =  -0.00000

 Dipole moment (field-independent basis, Debye):
    X=             -2.5883    Y=              4.2191    Z=             -4.0683  Tot=              6.4071
 Quadrupole moment (field-independent basis, Debye-Ang):
   XX=           -368.2899   YY=           -425.5676   ZZ=           -393.4565
   XY=             15.1196   XZ=              8.2193   YZ=              7.1004

 Normal termination of Gaussian 16 at Wed May  4 06:57:56 2022.
