 Gaussian 16, Revision A.03,
 Gaussian 16:  ES64L-G16RevA.03 25-Dec-2016

 --------------------------------
 #p wB97XD/Def2SVP td=(nstates=5)
 --------------------------------

 -----------------------------------------------------
 step_1451_chromophore_22 TDDFT with wB97XD functional
 -----------------------------------------------------
 Symbolic Z-matrix:
 Charge =  0 Multiplicity = 1

                         Standard orientation:
 ---------------------------------------------------------------------
 Center     Atomic      Atomic             Coordinates (Angstroms)
 Number     Number       Type             X           Y           Z
 ---------------------------------------------------------------------
      1         12           0        6.121583    0.522817   -0.085408
      2          6           0        4.092427   -2.398920    0.054244
      3          6           0        3.774755    2.044119   -2.147848
      4          6           0        8.029895    3.164644   -0.263748
      5          6           0        8.786761   -1.378804    1.252930
      6          7           0        4.203469   -0.160149   -0.996768
      7          6           0        3.519308   -1.333370   -0.682039
      8          6           0        2.175794   -1.267451   -1.417197
      9          6           0        2.315741   -0.041668   -2.421765
     10          6           0        3.525292    0.669174   -1.842127
     11          6           0        2.487340   -0.243801   -3.929015
     12          6           0        0.968260   -1.244425   -0.451555
     13          6           0       -0.417957   -1.297465   -1.170270
     14          6           0       -1.650445   -1.944732   -0.519834
     15          8           0       -1.704107   -2.720208    0.460315
     16          8           0       -2.789669   -1.453894   -1.044291
     17          7           0        5.832203    2.462441   -0.843344
     18          6           0        4.792461    2.845114   -1.650613
     19          6           0        4.981752    4.246534   -2.047561
     20          6           0        6.229855    4.640332   -1.403270
     21          6           0        6.814913    3.411739   -0.810247
     22          6           0        3.940658    5.079127   -2.753068
     23          6           0        6.946840    6.042506   -1.431935
     24          8           0        8.024592    6.252360   -0.869566
     25          6           0        6.326394    7.259414   -1.973458
     26          7           0        8.152282    0.818750    0.297600
     27          6           0        8.644187    2.073632    0.324950
     28          6           0        9.945688    2.220490    1.051750
     29          6           0       10.208695    0.763675    1.649554
     30          6           0        9.026549    0.013851    0.987143
     31          6           0       11.154854    2.810910    0.165003
     32          6           0       10.341858    0.647560    3.206481
     33          6           0       11.358954   -0.230246    3.747331
     34          7           0        6.411894   -1.484756    0.533960
     35          6           0        7.569184   -2.125623    1.005701
     36          6           0        7.288569   -3.497984    1.266971
     37          6           0        5.936470   -3.682826    0.940832
     38          6           0        5.474552   -2.391577    0.451675
     39          6           0        8.245082   -4.372902    1.878655
     40          6           0        4.716960   -4.528775    0.986081
     41          8           0        4.606543   -5.675730    1.504541
     42          6           0        3.562465   -3.841476    0.286809
     43          6           0        2.421464   -3.983236    1.205225
     44          8           0        2.238521   -3.289081    2.175432
     45          8           0        1.688680   -5.002173    0.802056
     46          6           0        0.435844   -5.203838    1.478297
     47          6           0       -4.029873   -2.051540   -0.557008
     48          6           0       -5.292614   -1.763530   -1.519209
     49          6           0       -6.492580   -2.410212   -1.592854
     50          6           0       -6.892005   -3.627926   -0.776180
     51          6           0       -7.528001   -2.088856   -2.640025
     52          6           0       -8.732544   -1.244241   -2.136854
     53          6           0      -10.035657   -1.752338   -2.864105
     54          6           0      -11.185746   -1.838233   -1.911665
     55          6           0      -12.315743   -2.563743   -2.628667
     56          6           0      -11.716946   -0.512448   -1.322876
     57          6           0      -11.825165   -0.544377    0.247791
     58          6           0      -13.294173   -0.411673    0.626514
     59          6           0      -13.773723    1.126207    0.577193
     60          6           0      -14.966285    1.302571   -0.458021
     61          6           0      -14.008411    1.640738    2.004613
     62          6           0      -12.838715    2.463114    2.530792
     63          6           0      -13.041613    3.988905    2.634465
     64          6           0      -12.097083    4.476106    3.833110
     65          6           0      -12.589203    5.914609    4.253644
     66          6           0      -10.574332    4.452544    3.311553
     67          1           0        2.983056    2.376048   -2.823038
     68          1           0        8.726163    4.005762   -0.269853
     69          1           0        9.687285   -1.838954    1.664479
     70          1           0        2.229185   -2.196384   -1.985706
     71          1           0        1.374767    0.505067   -2.367217
     72          1           0        1.668251    0.187514   -4.504570
     73          1           0        2.552986   -1.296352   -4.204872
     74          1           0        3.357888    0.368460   -4.164792
     75          1           0        1.038951   -0.281775    0.054410
     76          1           0        0.953332   -2.024008    0.309496
     77          1           0       -0.325957   -1.711085   -2.174812
     78          1           0       -0.802771   -0.282504   -1.278601
     79          1           0        4.473588    5.763624   -3.412209
     80          1           0        3.434339    5.717089   -2.028178
     81          1           0        3.240658    4.451901   -3.305710
     82          1           0        5.791926    7.196957   -2.920762
     83          1           0        7.146517    7.929032   -2.232114
     84          1           0        5.608448    7.619498   -1.236455
     85          1           0        9.700416    2.926033    1.845473
     86          1           0       11.133413    0.366767    1.230890
     87          1           0       11.934369    2.052844    0.086780
     88          1           0       11.453379    3.699009    0.721116
     89          1           0       10.867048    3.075869   -0.851992
     90          1           0        9.365393    0.536582    3.678233
     91          1           0       10.818168    1.581587    3.504863
     92          1           0       10.997403   -0.670548    4.676952
     93          1           0       12.298356    0.279563    3.960683
     94          1           0       11.389239   -1.004550    2.979870
     95          1           0        8.403251   -4.096571    2.920728
     96          1           0        9.092512   -4.312219    1.195789
     97          1           0        7.838947   -5.379271    1.779929
     98          1           0        3.249325   -4.399543   -0.595772
     99          1           0        0.583384   -5.728234    2.421711
    100          1           0       -0.224032   -5.752071    0.805439
    101          1           0        0.007180   -4.273707    1.851610
    102          1           0       -4.290693   -1.612668    0.405626
    103          1           0       -3.940222   -3.129911   -0.424431
    104          1           0       -5.103062   -1.183073   -2.422868
    105          1           0       -7.573508   -3.504596    0.066110
    106          1           0       -6.065459   -4.143742   -0.287026
    107          1           0       -7.221111   -4.349254   -1.523141
    108          1           0       -7.831248   -2.969718   -3.206401
    109          1           0       -7.094966   -1.521973   -3.463975
    110          1           0       -8.392866   -0.216920   -2.273591
    111          1           0       -8.919362   -1.340105   -1.067940
    112          1           0       -9.876822   -2.607336   -3.522141
    113          1           0      -10.132497   -0.933772   -3.576645
    114          1           0      -10.844978   -2.505217   -1.119307
    115          1           0      -12.785699   -3.215369   -1.892696
    116          1           0      -12.041222   -3.145510   -3.508560
    117          1           0      -13.062380   -1.829406   -2.932489
    118          1           0      -12.593066   -0.059595   -1.785876
    119          1           0      -10.917829    0.216402   -1.463844
    120          1           0      -11.322243    0.356683    0.598767
    121          1           0      -11.448728   -1.469110    0.685313
    122          1           0      -13.475040   -0.787652    1.633336
    123          1           0      -13.879207   -1.008497   -0.073923
    124          1           0      -12.989531    1.748910    0.146285
    125          1           0      -14.670634    2.101556   -1.138505
    126          1           0      -15.915668    1.453698    0.054551
    127          1           0      -15.053446    0.530439   -1.221946
    128          1           0      -14.148412    0.855939    2.747817
    129          1           0      -14.916153    2.244438    2.004337
    130          1           0      -11.900986    2.345206    1.988544
    131          1           0      -12.666936    2.042656    3.521727
    132          1           0      -14.036465    4.357328    2.884274
    133          1           0      -12.734244    4.424366    1.683096
    134          1           0      -12.171901    3.752586    4.643709
    135          1           0      -12.835428    6.011129    5.310941
    136          1           0      -13.378921    6.353024    3.644445
    137          1           0      -11.824191    6.677834    4.110904
    138          1           0      -10.577910    4.278165    2.235752
    139          1           0      -10.083004    3.575021    3.731258
    140          1           0       -9.950783    5.322364    3.515822
 ---------------------------------------------------------------------

 SCF Done:  E(RwB97XD) =  -3007.82832598     A.U. after   19 cycles

 Excitation energies and oscillator strengths:

 Excited State   1:      Singlet-A      1.6632 eV  745.44 nm  f=0.3702  <S**2>=0.000
     245 -> 248        0.18665
     246 -> 247        0.68243
     245 <- 248        0.11578
 This state for optimization and/or second-order correction.
 Total Energy, E(TD-HF/TD-DFT) =  -3007.76720358
 Copying the excited state density for this state as the 1-particle RhoCI density.

 Excited State   2:      Singlet-A      2.1984 eV  563.96 nm  f=0.0657  <S**2>=0.000
     245 -> 247        0.61261
     246 -> 248       -0.33712

 Excited State   3:      Singlet-A      3.3896 eV  365.77 nm  f=0.3878  <S**2>=0.000
     241 -> 247        0.41478
     245 -> 247        0.22868
     246 -> 248        0.50011

 Excited State   4:      Singlet-A      3.4981 eV  354.44 nm  f=0.0100  <S**2>=0.000
     241 -> 247       -0.23728
     243 -> 247        0.42351
     243 -> 249        0.24955
     243 -> 250       -0.26116
     244 -> 247        0.31448

 Excited State   5:      Singlet-A      3.5292 eV  351.31 nm  f=0.1358  <S**2>=0.000
     241 -> 247       -0.23338
     243 -> 247       -0.30226
     243 -> 249       -0.16600
     243 -> 250        0.18003
     244 -> 247        0.44084
     245 -> 247        0.13919
     246 -> 248        0.23949

 The electronic state is 1-A.
 Alpha  occ. eigenvalues --  -46.95027 -19.31265 -19.29598 -19.24749 -19.24248
 Alpha  occ. eigenvalues --  -19.22955 -19.22523 -14.46701 -14.46619 -14.44190
 Alpha  occ. eigenvalues --  -14.43356 -10.44042 -10.41390 -10.39732 -10.38333
 Alpha  occ. eigenvalues --  -10.37115 -10.35561 -10.35077 -10.34837 -10.34728
 Alpha  occ. eigenvalues --  -10.34606 -10.34559 -10.33853 -10.33500 -10.32842
 Alpha  occ. eigenvalues --  -10.32727 -10.32385 -10.32384 -10.32343 -10.32193
 Alpha  occ. eigenvalues --  -10.32156 -10.32155 -10.32085 -10.31796 -10.31682
 Alpha  occ. eigenvalues --  -10.31519 -10.31486 -10.31317 -10.31313 -10.30850
 Alpha  occ. eigenvalues --  -10.30683 -10.30561 -10.30401 -10.30329 -10.30190
 Alpha  occ. eigenvalues --  -10.29808 -10.29736 -10.29688 -10.29619 -10.29425
 Alpha  occ. eigenvalues --  -10.29415 -10.29398 -10.28948 -10.28913 -10.28872
 Alpha  occ. eigenvalues --  -10.28796 -10.28756 -10.28659 -10.28543 -10.28528
 Alpha  occ. eigenvalues --  -10.28394 -10.28393 -10.28375 -10.28322 -10.28177
 Alpha  occ. eigenvalues --  -10.27890  -3.20938  -1.94537  -1.94062  -1.93908
 Alpha  occ. eigenvalues --   -1.19670  -1.19565  -1.12289  -1.09876  -1.08861
 Alpha  occ. eigenvalues --   -1.08685  -1.06208  -1.05211  -1.05047  -1.04115
 Alpha  occ. eigenvalues --   -0.93391  -0.92553  -0.91387  -0.91374  -0.91060
 Alpha  occ. eigenvalues --   -0.90839  -0.90461  -0.89406  -0.89140  -0.88708
 Alpha  occ. eigenvalues --   -0.88444  -0.87572  -0.86180  -0.85799  -0.85443
 Alpha  occ. eigenvalues --   -0.84573  -0.84200  -0.83448  -0.82772  -0.82119
 Alpha  occ. eigenvalues --   -0.81644  -0.80311  -0.80044  -0.79226  -0.77907
 Alpha  occ. eigenvalues --   -0.77686  -0.77291  -0.77149  -0.76709  -0.75904
 Alpha  occ. eigenvalues --   -0.75423  -0.74405  -0.73793  -0.72543  -0.70586
 Alpha  occ. eigenvalues --   -0.69830  -0.69568  -0.69067  -0.68822  -0.67361
 Alpha  occ. eigenvalues --   -0.66994  -0.66909  -0.66856  -0.66172  -0.65864
 Alpha  occ. eigenvalues --   -0.65571  -0.65446  -0.64855  -0.63996  -0.62414
 Alpha  occ. eigenvalues --   -0.61815  -0.61442  -0.61033  -0.60414  -0.59556
 Alpha  occ. eigenvalues --   -0.58914  -0.58850  -0.58415  -0.58201  -0.57824
 Alpha  occ. eigenvalues --   -0.56977  -0.56791  -0.56589  -0.56100  -0.55829
 Alpha  occ. eigenvalues --   -0.55545  -0.55450  -0.55310  -0.55063  -0.54820
 Alpha  occ. eigenvalues --   -0.54760  -0.54540  -0.53970  -0.53766  -0.53613
 Alpha  occ. eigenvalues --   -0.53518  -0.53271  -0.53227  -0.52839  -0.52744
 Alpha  occ. eigenvalues --   -0.52352  -0.52267  -0.52125  -0.51978  -0.51567
 Alpha  occ. eigenvalues --   -0.51367  -0.51270  -0.51120  -0.50809  -0.50747
 Alpha  occ. eigenvalues --   -0.50458  -0.50318  -0.50002  -0.49962  -0.49824
 Alpha  occ. eigenvalues --   -0.49571  -0.49493  -0.49181  -0.49044  -0.48747
 Alpha  occ. eigenvalues --   -0.48444  -0.48305  -0.48024  -0.47674  -0.47487
 Alpha  occ. eigenvalues --   -0.47381  -0.47248  -0.47016  -0.46711  -0.46175
 Alpha  occ. eigenvalues --   -0.45842  -0.45638  -0.45590  -0.45469  -0.45385
 Alpha  occ. eigenvalues --   -0.45371  -0.45033  -0.44937  -0.44805  -0.44636
 Alpha  occ. eigenvalues --   -0.44450  -0.44369  -0.44065  -0.43962  -0.43799
 Alpha  occ. eigenvalues --   -0.43771  -0.43397  -0.43249  -0.43041  -0.42897
 Alpha  occ. eigenvalues --   -0.42865  -0.42577  -0.42333  -0.42291  -0.42171
 Alpha  occ. eigenvalues --   -0.41395  -0.41296  -0.41046  -0.40952  -0.40525
 Alpha  occ. eigenvalues --   -0.40405  -0.40183  -0.39895  -0.39370  -0.39136
 Alpha  occ. eigenvalues --   -0.39088  -0.38693  -0.38592  -0.38375  -0.37923
 Alpha  occ. eigenvalues --   -0.37619  -0.37282  -0.37150  -0.36129  -0.35845
 Alpha  occ. eigenvalues --   -0.35503  -0.35336  -0.34693  -0.33566  -0.32989
 Alpha  occ. eigenvalues --   -0.32176  -0.32146  -0.31716  -0.31254  -0.25979
 Alpha  occ. eigenvalues --   -0.22550
 Alpha virt. eigenvalues --   -0.06583  -0.00074   0.02368   0.04406   0.06293
 Alpha virt. eigenvalues --    0.06808   0.07434   0.08005   0.09220   0.09364
 Alpha virt. eigenvalues --    0.10259   0.11121   0.11951   0.12351   0.12595

 Mulliken charges:
               1
     1  Mg   0.956272
     2  C    0.011422
     3  C   -0.092903
     4  C   -0.080857
     5  C   -0.081452
     6  N   -0.361574
     7  C    0.013499
     8  C   -0.055075
     9  C   -0.145967
    10  C    0.037034
    11  C    0.036035
    12  C    0.051582
    13  C   -0.043011
    14  C    0.229931
    15  O   -0.293936
    16  O   -0.346771
    17  N   -0.469870
    18  C    0.228464
    19  C   -0.187057
    20  C   -0.063001
    21  C    0.177005
    22  C    0.072236
    23  C    0.071978
    24  O   -0.247252
    25  C   -0.017926
    26  N   -0.374430
    27  C    0.055073
    28  C   -0.108335
    29  C   -0.064950
    30  C    0.030293
    31  C    0.013761
    32  C   -0.001422
    33  C   -0.039140
    34  N   -0.398854
    35  C    0.131671
    36  C   -0.223624
    37  C   -0.006547
    38  C    0.080055
    39  C    0.087046
    40  C    0.115063
    41  O   -0.257396
    42  C   -0.032529
    43  C    0.208618
    44  O   -0.246783
    45  O   -0.315127
    46  C    0.143038
    47  C    0.241852
    48  C   -0.122794
    49  C   -0.193672
    50  C    0.025385
    51  C    0.005183
    52  C   -0.035419
    53  C   -0.000562
    54  C   -0.164004
    55  C    0.017969
    56  C    0.006006
    57  C   -0.027573
    58  C    0.014348
    59  C   -0.212660
    60  C   -0.004842
    61  C    0.078346
    62  C   -0.061342
    63  C   -0.015974
    64  C   -0.217740
    65  C    0.005206
    66  C   -0.023035
    67  H   -0.004239
    68  H    0.010514
    69  H   -0.004922
    70  H    0.020255
    71  H    0.030598
    72  H    0.031439
    73  H    0.045810
    74  H    0.041482
    75  H    0.034969
    76  H    0.072515
    77  H    0.061800
    78  H    0.063077
    79  H    0.040998
    80  H    0.064833
    81  H    0.047991
    82  H    0.027827
    83  H    0.062191
    84  H    0.074556
    85  H    0.053580
    86  H    0.025837
    87  H    0.038181
    88  H    0.053626
    89  H    0.054958
    90  H    0.042998
    91  H    0.020728
    92  H    0.038812
    93  H    0.044890
    94  H    0.024238
    95  H    0.064688
    96  H    0.042912
    97  H    0.051114
    98  H    0.072499
    99  H    0.042086
   100  H    0.055947
   101  H    0.064114
   102  H    0.060455
   103  H    0.060303
   104  H    0.026169
   105  H    0.054785
   106  H    0.015981
   107  H    0.037728
   108  H    0.023011
   109  H    0.010230
   110  H    0.034019
   111  H    0.023908
   112  H    0.023418
   113  H    0.013824
   114  H    0.018666
   115  H    0.024551
   116  H    0.024505
   117  H    0.017543
   118  H    0.023313
   119  H    0.008254
   120  H    0.022078
   121  H    0.026279
   122  H    0.010231
   123  H    0.014986
   124  H    0.021006
   125  H    0.018593
   126  H    0.040638
   127  H    0.018992
   128  H    0.018774
   129  H    0.008837
   130  H    0.017387
   131  H    0.010205
   132  H    0.027178
   133  H    0.025317
   134  H    0.035297
   135  H    0.033871
   136  H    0.025095
   137  H    0.009750
   138  H    0.024921
   139  H    0.029560
   140  H    0.038472
 Sum of Mulliken charges =  -0.00000

 Dipole moment (field-independent basis, Debye):
    X=             -2.7599    Y=              5.0025    Z=             -4.4579  Tot=              7.2467
 Quadrupole moment (field-independent basis, Debye-Ang):
   XX=           -370.7243   YY=           -422.9020   ZZ=           -392.9324
   XY=             20.0157   XZ=              5.8543   YZ=              6.3997

 Normal termination of Gaussian 16 at Wed May  4 07:24:21 2022.
