 Gaussian 16, Revision A.03,
 Gaussian 16:  ES64L-G16RevA.03 25-Dec-2016

 --------------------
 #p ZINDO=(nstates=5)
 --------------------

 ------------------------------
 step_1451_chromophore_22 ZINDO
 ------------------------------
 Symbolic Z-matrix:
 Charge =  0 Multiplicity = 1

                         Standard orientation:
 ---------------------------------------------------------------------
 Center     Atomic      Atomic             Coordinates (Angstroms)
 Number     Number       Type             X           Y           Z
 ---------------------------------------------------------------------
      1         12           0        6.121583    0.522817   -0.085408
      2          6           0        4.092427   -2.398920    0.054244
      3          6           0        3.774755    2.044119   -2.147848
      4          6           0        8.029895    3.164644   -0.263748
      5          6           0        8.786761   -1.378804    1.252930
      6          7           0        4.203469   -0.160149   -0.996768
      7          6           0        3.519308   -1.333370   -0.682039
      8          6           0        2.175794   -1.267451   -1.417197
      9          6           0        2.315741   -0.041668   -2.421765
     10          6           0        3.525292    0.669174   -1.842127
     11          6           0        2.487340   -0.243801   -3.929015
     12          6           0        0.968260   -1.244425   -0.451555
     13          6           0       -0.417957   -1.297465   -1.170270
     14          6           0       -1.650445   -1.944732   -0.519834
     15          8           0       -1.704107   -2.720208    0.460315
     16          8           0       -2.789669   -1.453894   -1.044291
     17          7           0        5.832203    2.462441   -0.843344
     18          6           0        4.792461    2.845114   -1.650613
     19          6           0        4.981752    4.246534   -2.047561
     20          6           0        6.229855    4.640332   -1.403270
     21          6           0        6.814913    3.411739   -0.810247
     22          6           0        3.940658    5.079127   -2.753068
     23          6           0        6.946840    6.042506   -1.431935
     24          8           0        8.024592    6.252360   -0.869566
     25          6           0        6.326394    7.259414   -1.973458
     26          7           0        8.152282    0.818750    0.297600
     27          6           0        8.644187    2.073632    0.324950
     28          6           0        9.945688    2.220490    1.051750
     29          6           0       10.208695    0.763675    1.649554
     30          6           0        9.026549    0.013851    0.987143
     31          6           0       11.154854    2.810910    0.165003
     32          6           0       10.341858    0.647560    3.206481
     33          6           0       11.358954   -0.230246    3.747331
     34          7           0        6.411894   -1.484756    0.533960
     35          6           0        7.569184   -2.125623    1.005701
     36          6           0        7.288569   -3.497984    1.266971
     37          6           0        5.936470   -3.682826    0.940832
     38          6           0        5.474552   -2.391577    0.451675
     39          6           0        8.245082   -4.372902    1.878655
     40          6           0        4.716960   -4.528775    0.986081
     41          8           0        4.606543   -5.675730    1.504541
     42          6           0        3.562465   -3.841476    0.286809
     43          6           0        2.421464   -3.983236    1.205225
     44          8           0        2.238521   -3.289081    2.175432
     45          8           0        1.688680   -5.002173    0.802056
     46          6           0        0.435844   -5.203838    1.478297
     47          6           0       -4.029873   -2.051540   -0.557008
     48          6           0       -5.292614   -1.763530   -1.519209
     49          6           0       -6.492580   -2.410212   -1.592854
     50          6           0       -6.892005   -3.627926   -0.776180
     51          6           0       -7.528001   -2.088856   -2.640025
     52          6           0       -8.732544   -1.244241   -2.136854
     53          6           0      -10.035657   -1.752338   -2.864105
     54          6           0      -11.185746   -1.838233   -1.911665
     55          6           0      -12.315743   -2.563743   -2.628667
     56          6           0      -11.716946   -0.512448   -1.322876
     57          6           0      -11.825165   -0.544377    0.247791
     58          6           0      -13.294173   -0.411673    0.626514
     59          6           0      -13.773723    1.126207    0.577193
     60          6           0      -14.966285    1.302571   -0.458021
     61          6           0      -14.008411    1.640738    2.004613
     62          6           0      -12.838715    2.463114    2.530792
     63          6           0      -13.041613    3.988905    2.634465
     64          6           0      -12.097083    4.476106    3.833110
     65          6           0      -12.589203    5.914609    4.253644
     66          6           0      -10.574332    4.452544    3.311553
     67          1           0        2.983056    2.376048   -2.823038
     68          1           0        8.726163    4.005762   -0.269853
     69          1           0        9.687285   -1.838954    1.664479
     70          1           0        2.229185   -2.196384   -1.985706
     71          1           0        1.374767    0.505067   -2.367217
     72          1           0        1.668251    0.187514   -4.504570
     73          1           0        2.552986   -1.296352   -4.204872
     74          1           0        3.357888    0.368460   -4.164792
     75          1           0        1.038951   -0.281775    0.054410
     76          1           0        0.953332   -2.024008    0.309496
     77          1           0       -0.325957   -1.711085   -2.174812
     78          1           0       -0.802771   -0.282504   -1.278601
     79          1           0        4.473588    5.763624   -3.412209
     80          1           0        3.434339    5.717089   -2.028178
     81          1           0        3.240658    4.451901   -3.305710
     82          1           0        5.791926    7.196957   -2.920762
     83          1           0        7.146517    7.929032   -2.232114
     84          1           0        5.608448    7.619498   -1.236455
     85          1           0        9.700416    2.926033    1.845473
     86          1           0       11.133413    0.366767    1.230890
     87          1           0       11.934369    2.052844    0.086780
     88          1           0       11.453379    3.699009    0.721116
     89          1           0       10.867048    3.075869   -0.851992
     90          1           0        9.365393    0.536582    3.678233
     91          1           0       10.818168    1.581587    3.504863
     92          1           0       10.997403   -0.670548    4.676952
     93          1           0       12.298356    0.279563    3.960683
     94          1           0       11.389239   -1.004550    2.979870
     95          1           0        8.403251   -4.096571    2.920728
     96          1           0        9.092512   -4.312219    1.195789
     97          1           0        7.838947   -5.379271    1.779929
     98          1           0        3.249325   -4.399543   -0.595772
     99          1           0        0.583384   -5.728234    2.421711
    100          1           0       -0.224032   -5.752071    0.805439
    101          1           0        0.007180   -4.273707    1.851610
    102          1           0       -4.290693   -1.612668    0.405626
    103          1           0       -3.940222   -3.129911   -0.424431
    104          1           0       -5.103062   -1.183073   -2.422868
    105          1           0       -7.573508   -3.504596    0.066110
    106          1           0       -6.065459   -4.143742   -0.287026
    107          1           0       -7.221111   -4.349254   -1.523141
    108          1           0       -7.831248   -2.969718   -3.206401
    109          1           0       -7.094966   -1.521973   -3.463975
    110          1           0       -8.392866   -0.216920   -2.273591
    111          1           0       -8.919362   -1.340105   -1.067940
    112          1           0       -9.876822   -2.607336   -3.522141
    113          1           0      -10.132497   -0.933772   -3.576645
    114          1           0      -10.844978   -2.505217   -1.119307
    115          1           0      -12.785699   -3.215369   -1.892696
    116          1           0      -12.041222   -3.145510   -3.508560
    117          1           0      -13.062380   -1.829406   -2.932489
    118          1           0      -12.593066   -0.059595   -1.785876
    119          1           0      -10.917829    0.216402   -1.463844
    120          1           0      -11.322243    0.356683    0.598767
    121          1           0      -11.448728   -1.469110    0.685313
    122          1           0      -13.475040   -0.787652    1.633336
    123          1           0      -13.879207   -1.008497   -0.073923
    124          1           0      -12.989531    1.748910    0.146285
    125          1           0      -14.670634    2.101556   -1.138505
    126          1           0      -15.915668    1.453698    0.054551
    127          1           0      -15.053446    0.530439   -1.221946
    128          1           0      -14.148412    0.855939    2.747817
    129          1           0      -14.916153    2.244438    2.004337
    130          1           0      -11.900986    2.345206    1.988544
    131          1           0      -12.666936    2.042656    3.521727
    132          1           0      -14.036465    4.357328    2.884274
    133          1           0      -12.734244    4.424366    1.683096
    134          1           0      -12.171901    3.752586    4.643709
    135          1           0      -12.835428    6.011129    5.310941
    136          1           0      -13.378921    6.353024    3.644445
    137          1           0      -11.824191    6.677834    4.110904
    138          1           0      -10.577910    4.278165    2.235752
    139          1           0      -10.083004    3.575021    3.731258
    140          1           0       -9.950783    5.322364    3.515822
 ---------------------------------------------------------------------

 SCF Done:  E(RZINDO/S) =  -474.222823142     A.U. after   19 cycles

 Excitation energies and oscillator strengths:

 Excited State   1:      Singlet-A      1.2679 eV  977.86 nm  f=0.5616  <S**2>=0.000
     175 ->178         0.17463
     176 ->177         0.66767
 This state for optimization and/or second-order correction.
 Total Energy, E(CIS/TDA) =  -474.176228230
 Copying the excited state density for this state as the 1-particle RhoCI density.

 Excited State   2:      Singlet-A      1.9243 eV  644.32 nm  f=0.0141  <S**2>=0.000
     175 ->177         0.51103
     176 ->178        -0.46052

 Excited State   3:      Singlet-A      2.9193 eV  424.71 nm  f=0.0952  <S**2>=0.000
     166 ->179         0.10383
     168 ->177        -0.27862
     168 ->179         0.38750
     168 ->180        -0.21037
     168 ->184        -0.17915
     168 ->186         0.16762
     171 ->177         0.16941
     175 ->177         0.13964
     176 ->178         0.16860

 Excited State   4:      Singlet-A      2.9431 eV  421.28 nm  f=0.8339  <S**2>=0.000
     168 ->177         0.10652
     168 ->179        -0.14731
     171 ->177         0.12693
     175 ->177         0.37702
     176 ->178         0.44748
     176 ->179        -0.14689
     176 ->180        -0.13585

 Excited State   5:      Singlet-A      2.9744 eV  416.84 nm  f=0.2086  <S**2>=0.000
     175 ->177         0.10879
     176 ->178         0.12690
     176 ->179         0.59677
     176 ->180         0.20756

 The electronic state is 1-A.
 Alpha  occ. eigenvalues --   -1.82604  -1.81133  -1.79372  -1.75634  -1.73356
 Alpha  occ. eigenvalues --   -1.70297  -1.66502  -1.60865  -1.59952  -1.56476
 Alpha  occ. eigenvalues --   -1.53983  -1.50341  -1.49604  -1.47001  -1.46334
 Alpha  occ. eigenvalues --   -1.43442  -1.41532  -1.40632  -1.38947  -1.37460
 Alpha  occ. eigenvalues --   -1.36824  -1.34971  -1.32298  -1.31202  -1.28759
 Alpha  occ. eigenvalues --   -1.27320  -1.24354  -1.22111  -1.21023  -1.17982
 Alpha  occ. eigenvalues --   -1.17323  -1.16305  -1.15557  -1.14823  -1.13612
 Alpha  occ. eigenvalues --   -1.12055  -1.10664  -1.09328  -1.05150  -1.02928
 Alpha  occ. eigenvalues --   -1.02526  -1.00700  -0.97467  -0.97079  -0.95180
 Alpha  occ. eigenvalues --   -0.95017  -0.94478  -0.94210  -0.92499  -0.92475
 Alpha  occ. eigenvalues --   -0.91971  -0.90247  -0.89509  -0.89206  -0.88368
 Alpha  occ. eigenvalues --   -0.84946  -0.83402  -0.83228  -0.81576  -0.80180
 Alpha  occ. eigenvalues --   -0.79992  -0.79365  -0.76819  -0.76756  -0.75807
 Alpha  occ. eigenvalues --   -0.74830  -0.74238  -0.74035  -0.73230  -0.72525
 Alpha  occ. eigenvalues --   -0.72289  -0.71788  -0.71383  -0.71175  -0.70658
 Alpha  occ. eigenvalues --   -0.70330  -0.69686  -0.68799  -0.67729  -0.67517
 Alpha  occ. eigenvalues --   -0.67401  -0.66933  -0.66848  -0.66765  -0.66113
 Alpha  occ. eigenvalues --   -0.65537  -0.64853  -0.64727  -0.64462  -0.63972
 Alpha  occ. eigenvalues --   -0.63844  -0.63450  -0.62956  -0.62802  -0.62413
 Alpha  occ. eigenvalues --   -0.62273  -0.61790  -0.61123  -0.60890  -0.60503
 Alpha  occ. eigenvalues --   -0.60249  -0.59454  -0.59101  -0.58838  -0.58751
 Alpha  occ. eigenvalues --   -0.58008  -0.57385  -0.57317  -0.56780  -0.56599
 Alpha  occ. eigenvalues --   -0.55966  -0.55437  -0.55130  -0.55065  -0.54586
 Alpha  occ. eigenvalues --   -0.54079  -0.54007  -0.53593  -0.53078  -0.52608
 Alpha  occ. eigenvalues --   -0.52238  -0.51696  -0.51562  -0.51409  -0.51286
 Alpha  occ. eigenvalues --   -0.50643  -0.50483  -0.50052  -0.49928  -0.49801
 Alpha  occ. eigenvalues --   -0.49513  -0.49354  -0.48759  -0.48577  -0.48396
 Alpha  occ. eigenvalues --   -0.48144  -0.47991  -0.47623  -0.47503  -0.47343
 Alpha  occ. eigenvalues --   -0.47228  -0.47045  -0.46931  -0.46588  -0.46380
 Alpha  occ. eigenvalues --   -0.46185  -0.45625  -0.45610  -0.45041  -0.44972
 Alpha  occ. eigenvalues --   -0.44921  -0.44508  -0.44370  -0.44016  -0.43758
 Alpha  occ. eigenvalues --   -0.43033  -0.42759  -0.42419  -0.42061  -0.41771
 Alpha  occ. eigenvalues --   -0.41637  -0.41392  -0.39846  -0.38837  -0.38443
 Alpha  occ. eigenvalues --   -0.37028  -0.36478  -0.36042  -0.34333  -0.33894
 Alpha  occ. eigenvalues --   -0.33383  -0.32281  -0.32183  -0.31340  -0.26699
 Alpha  occ. eigenvalues --   -0.21390
 Alpha virt. eigenvalues --   -0.08059  -0.02099  -0.00635   0.01462   0.01740
 Alpha virt. eigenvalues --    0.02601   0.02939   0.04010   0.04097   0.04924
 Alpha virt. eigenvalues --    0.05927   0.06336   0.07149   0.07573   0.07950

 Mulliken charges:
               1
     1  Mg   0.425890
     2  C   -0.045384
     3  C   -0.100528
     4  C   -0.060700
     5  C   -0.062704
     6  N   -0.297030
     7  C    0.098741
     8  C    0.006411
     9  C    0.000295
    10  C    0.170046
    11  C   -0.048269
    12  C   -0.016393
    13  C    0.002803
    14  C    0.465429
    15  O   -0.532728
    16  O   -0.259134
    17  N   -0.341733
    18  C    0.149100
    19  C    0.012313
    20  C   -0.046725
    21  C    0.155977
    22  C   -0.036986
    23  C    0.328235
    24  O   -0.520566
    25  C   -0.025332
    26  N   -0.254297
    27  C    0.177052
    28  C   -0.002269
    29  C   -0.002801
    30  C    0.066833
    31  C   -0.052355
    32  C   -0.025391
    33  C   -0.051035
    34  N   -0.304788
    35  C    0.042989
    36  C    0.044303
    37  C   -0.086490
    38  C    0.117024
    39  C   -0.038358
    40  C    0.338249
    41  O   -0.550910
    42  C    0.060622
    43  C    0.507747
    44  O   -0.539234
    45  O   -0.252375
    46  C    0.071005
    47  C    0.106142
    48  C   -0.112792
    49  C    0.008064
    50  C   -0.047927
    51  C   -0.022659
    52  C   -0.039449
    53  C   -0.033469
    54  C    0.002473
    55  C   -0.061807
    56  C   -0.035796
    57  C   -0.039001
    58  C   -0.039382
    59  C   -0.019370
    60  C   -0.068619
    61  C   -0.028867
    62  C   -0.037177
    63  C   -0.036937
    64  C   -0.018660
    65  C   -0.064538
    66  C   -0.063345
    67  H    0.029629
    68  H    0.029367
    69  H    0.029340
    70  H    0.021838
    71  H    0.023103
    72  H    0.016687
    73  H    0.029358
    74  H    0.028073
    75  H    0.026466
    76  H    0.053847
    77  H    0.042361
    78  H    0.034216
    79  H    0.028747
    80  H    0.037696
    81  H    0.032627
    82  H    0.020479
    83  H    0.041500
    84  H    0.049666
    85  H    0.037135
    86  H    0.028158
    87  H    0.025557
    88  H    0.028128
    89  H    0.030579
    90  H    0.031549
    91  H    0.009368
    92  H    0.016483
    93  H    0.025267
    94  H    0.021303
    95  H    0.044343
    96  H    0.028862
    97  H    0.026030
    98  H    0.057057
    99  H    0.040101
   100  H    0.035218
   101  H    0.052263
   102  H    0.049083
   103  H    0.056063
   104  H    0.030383
   105  H    0.035652
   106  H    0.013493
   107  H    0.025951
   108  H    0.024307
   109  H    0.007850
   110  H    0.026814
   111  H    0.018741
   112  H    0.030337
   113  H    0.009066
   114  H    0.021180
   115  H    0.011933
   116  H    0.020051
   117  H    0.015527
   118  H    0.036057
   119  H    0.004096
   120  H    0.022451
   121  H    0.024973
   122  H    0.014520
   123  H    0.018917
   124  H    0.021398
   125  H    0.013896
   126  H    0.027606
   127  H    0.018420
   128  H    0.020431
   129  H    0.015510
   130  H    0.023194
   131  H    0.011512
   132  H    0.022643
   133  H    0.022511
   134  H    0.032211
   135  H    0.018904
   136  H    0.021571
   137  H    0.009710
   138  H    0.017640
   139  H    0.013883
   140  H    0.025682
 Sum of Mulliken charges =  -0.00000

 Dipole moment (field-independent basis, Debye):
    X=             -3.5190    Y=              8.1338    Z=             -9.2607  Tot=             12.8180
 N-N= 4.168438733620D+03 E-N= 0.000000000000D+00  KE=-9.011689385746D+03
 Leave Link  601 at Wed May  4 07:37:45 2022, MaxMem=  6710886400 cpu:               1.5 elap:               0.1
 (Enter /sw/apps/gaussian-16.0/g16/l9999.exe)
 1\1\GINC-BP1-COMPUTE031\SP\RZINDO CIS\STO-3G\C55H74Mg1N4O6\OF15641\04-
 May-2022\0\\#p ZINDO=(nstates=5)\\step_1451_chromophore_22 ZINDO\\0,1\
 Mg,0,8.438,48.021,25.235\C,0,6.196,47.82,27.993\C,0,10.887,49.319,27.3
 31\C,0,10.455,48.269,22.681\C,0,5.677,47.541,23.077\N,0,8.476,48.577,2
 7.395\C,0,7.493,48.274,28.336\C,0,8.052,48.688,29.702\C,0,9.358,49.535
 ,29.373\C,0,9.598,49.144,27.926\C,0,9.398,51.057,29.528\C,0,8.221,47.4
 9,30.665\C,0,8.676,47.894,32.104\C,0,8.276,47.081,33.345\O,0,7.377,46.

 Normal termination of Gaussian 16 at Wed May  4 07:37:45 2022.
