 Gaussian 16, Revision A.03,
 Gaussian 16:  ES64L-G16RevA.03 25-Dec-2016

 ------------------------------
 #p blyp/Def2SVP td=(nstates=5)
 ------------------------------

 ---------------------------------------------------
 step_1051_chromophore_11 TDDFT with blyp functional
 ---------------------------------------------------
 Symbolic Z-matrix:
 Charge =  0 Multiplicity = 1

                         Standard orientation:
 ---------------------------------------------------------------------
 Center     Atomic      Atomic             Coordinates (Angstroms)
 Number     Number       Type             X           Y           Z
 ---------------------------------------------------------------------
      1         12           0       -4.953640    1.298441    0.741878
      2          6           0       -5.335640   -2.114552    0.315398
      3          6           0       -2.434302    0.485704    3.017839
      4          6           0       -3.921242    4.510208    0.476089
      5          6           0       -7.128551    1.788649   -2.043771
      6          7           0       -3.949547   -0.704658    1.517254
      7          6           0       -4.350205   -1.954804    1.203648
      8          6           0       -3.492300   -2.947379    1.963926
      9          6           0       -2.927741   -2.081168    3.210160
     10          6           0       -3.132036   -0.618448    2.610316
     11          6           0       -3.688380   -2.143818    4.557634
     12          6           0       -2.460041   -3.957509    1.309092
     13          6           0       -1.449918   -3.203572    0.479341
     14          6           0       -0.390869   -4.139853   -0.242557
     15          8           0       -0.431017   -4.599060   -1.381221
     16          8           0        0.665443   -4.397308    0.633852
     17          7           0       -3.401262    2.342271    1.598715
     18          6           0       -2.466602    1.883731    2.525896
     19          6           0       -1.582360    2.909333    2.892799
     20          6           0       -2.006632    4.087508    2.228857
     21          6           0       -3.240121    3.717607    1.417725
     22          6           0       -0.456327    2.649813    3.845127
     23          6           0       -1.290457    5.533999    2.383345
     24          8           0       -0.440022    5.752356    3.197509
     25          6           0       -1.893519    6.796525    1.815553
     26          7           0       -5.332400    2.857118   -0.601220
     27          6           0       -4.898797    4.147136   -0.505895
     28          6           0       -5.599933    5.168227   -1.446094
     29          6           0       -6.443257    4.166174   -2.345437
     30          6           0       -6.281103    2.842588   -1.628885
     31          6           0       -6.395325    6.243589   -0.550055
     32          6           0       -5.865762    4.129593   -3.794689
     33          6           0       -6.777564    4.742923   -4.826286
     34          7           0       -6.232337    0.157471   -0.469522
     35          6           0       -7.115255    0.481634   -1.488934
     36          6           0       -7.934181   -0.666562   -1.809590
     37          6           0       -7.228825   -1.747993   -1.261032
     38          6           0       -6.176801   -1.212507   -0.427971
     39          6           0       -9.090460   -0.781561   -2.783973
     40          6           0       -7.099155   -3.193712   -1.211210
     41          8           0       -7.765609   -4.064182   -1.742358
     42          6           0       -5.919028   -3.419802   -0.196151
     43          6           0       -4.916125   -4.224586   -0.936409
     44          8           0       -4.096138   -3.832291   -1.715371
     45          8           0       -5.029380   -5.568836   -0.667450
     46          6           0       -4.060509   -6.504021   -1.278932
     47          6           0        1.897768   -4.927077    0.099276
     48          6           0        3.011197   -3.915580    0.089442
     49          6           0        4.054059   -3.705515    0.907064
     50          6           0        4.352183   -4.537196    2.068151
     51          6           0        4.957092   -2.432988    0.713125
     52          6           0        5.577793   -2.040031   -0.656721
     53          6           0        6.785931   -1.164397   -0.536768
     54          6           0        6.451770    0.312663   -0.945261
     55          6           0        6.498367    0.426341   -2.467022
     56          6           0        7.351721    1.336499   -0.290523
     57          6           0        8.788015    1.414393   -0.832797
     58          6           0        9.838893    1.905454    0.209937
     59          6           0       10.668753    0.795210    0.790014
     60          6           0       10.425525    0.682958    2.296184
     61          6           0       12.185189    1.061306    0.506306
     62          6           0       12.616371    0.297059   -0.821542
     63          6           0       13.541187    1.112226   -1.776229
     64          6           0       15.097771    0.623301   -1.784735
     65          6           0       16.080591    1.680921   -1.091614
     66          6           0       15.604139    0.284362   -3.240180
     67          1           0       -1.755942    0.326185    3.858190
     68          1           0       -3.696305    5.561890    0.287668
     69          1           0       -7.884475    1.999069   -2.802470
     70          1           0       -4.190511   -3.685735    2.358781
     71          1           0       -1.847754   -2.211828    3.282592
     72          1           0       -3.333741   -1.401084    5.272577
     73          1           0       -3.574535   -3.138025    4.990294
     74          1           0       -4.751133   -1.909426    4.495867
     75          1           0       -2.814460   -4.872683    0.834745
     76          1           0       -1.959172   -4.316343    2.207682
     77          1           0       -0.878856   -2.414642    0.969345
     78          1           0       -1.938782   -2.659923   -0.329515
     79          1           0        0.448586    3.003144    3.351725
     80          1           0       -0.330645    1.649739    4.260025
     81          1           0       -0.717897    3.298464    4.680945
     82          1           0       -1.481615    7.707802    2.249436
     83          1           0       -2.932348    6.672774    2.122082
     84          1           0       -1.740665    6.685270    0.741985
     85          1           0       -4.961692    5.829536   -2.032086
     86          1           0       -7.479416    4.502471   -2.357044
     87          1           0       -7.440424    6.192149   -0.855953
     88          1           0       -6.119405    7.285866   -0.711751
     89          1           0       -6.425604    6.019079    0.516580
     90          1           0       -5.766140    3.107748   -4.159282
     91          1           0       -4.872075    4.573366   -3.863448
     92          1           0       -7.292761    4.016971   -5.455031
     93          1           0       -6.140295    5.392724   -5.426860
     94          1           0       -7.524428    5.334851   -4.296792
     95          1           0       -9.200500   -1.849379   -2.975553
     96          1           0       -8.872042   -0.348323   -3.759938
     97          1           0       -9.988333   -0.329222   -2.363511
     98          1           0       -6.175169   -4.049896    0.655690
     99          1           0       -4.552272   -7.474822   -1.224003
    100          1           0       -3.116834   -6.617898   -0.744934
    101          1           0       -3.877805   -6.208716   -2.311678
    102          1           0        1.764316   -5.279500   -0.923570
    103          1           0        2.080527   -5.804686    0.719516
    104          1           0        2.808141   -3.188360   -0.696323
    105          1           0        5.260192   -5.095245    1.836536
    106          1           0        3.503484   -5.194226    2.259278
    107          1           0        4.450468   -4.026511    3.026317
    108          1           0        5.736811   -2.379357    1.472246
    109          1           0        4.392349   -1.538691    0.979226
    110          1           0        4.864730   -1.452296   -1.233809
    111          1           0        5.752194   -3.034018   -1.069750
    112          1           0        7.603988   -1.571637   -1.130495
    113          1           0        7.172403   -1.037322    0.474655
    114          1           0        5.492378    0.656128   -0.560069
    115          1           0        5.512544    0.151694   -2.842384
    116          1           0        7.131973   -0.313993   -2.956539
    117          1           0        6.833972    1.405907   -2.807116
    118          1           0        7.282134    0.996326    0.743417
    119          1           0        6.984235    2.357976   -0.190132
    120          1           0        8.777075    2.116227   -1.666811
    121          1           0        9.059678    0.433207   -1.223801
    122          1           0        9.336437    2.420457    1.028961
    123          1           0       10.422196    2.684174   -0.281194
    124          1           0       10.323211   -0.155693    0.384903
    125          1           0       10.478640    1.633576    2.826691
    126          1           0       11.202238    0.046331    2.719638
    127          1           0        9.453019    0.225562    2.479555
    128          1           0       12.833242    0.713922    1.310819
    129          1           0       12.408282    2.124565    0.407421
    130          1           0       11.713845    0.035174   -1.374926
    131          1           0       13.124089   -0.626390   -0.541340
    132          1           0       13.517392    2.122586   -1.367778
    133          1           0       13.148504    1.083945   -2.792446
    134          1           0       15.087213   -0.351501   -1.297035
    135          1           0       17.092837    1.365918   -1.344234
    136          1           0       16.009284    1.552807   -0.010746
    137          1           0       15.915097    2.733245   -1.321661
    138          1           0       14.738799   -0.028173   -3.826089
    139          1           0       16.324649   -0.525746   -3.129174
    140          1           0       16.209220    1.102309   -3.632803
 ---------------------------------------------------------------------

 SCF Done:  E(RB-LYP) =  -3007.37052126     A.U. after   21 cycles

 Excitation energies and oscillator strengths:

 Excited State   1:      Singlet-A      1.7504 eV  708.33 nm  f=0.0082  <S**2>=0.000
     244 -> 247        0.69689
 This state for optimization and/or second-order correction.
 Total Energy, E(TD-HF/TD-DFT) =  -3007.30619613
 Copying the excited state density for this state as the 1-particle RhoCI density.

 Excited State   2:      Singlet-A      1.7971 eV  689.91 nm  f=0.2641  <S**2>=0.000
     245 -> 247        0.11953
     245 -> 248        0.19293
     246 -> 247        0.67055
     246 <- 247       -0.14341

 Excited State   3:      Singlet-A      1.9845 eV  624.76 nm  f=0.0802  <S**2>=0.000
     240 -> 247       -0.10464
     243 -> 247       -0.28202
     245 -> 247        0.58230
     246 -> 247       -0.12338
     246 -> 248       -0.20823

 Excited State   4:      Singlet-A      2.0195 eV  613.93 nm  f=0.0157  <S**2>=0.000
     243 -> 247        0.64520
     245 -> 247        0.25598
     246 -> 248       -0.10544

 Excited State   5:      Singlet-A      2.2809 eV  543.57 nm  f=0.0009  <S**2>=0.000
     241 -> 247        0.17680
     242 -> 247        0.68235

 The electronic state is 1-A.
 Alpha  occ. eigenvalues --  -46.27690 -18.80884 -18.80489 -18.76568 -18.76081
 Alpha  occ. eigenvalues --  -18.75795 -18.75541 -14.04047 -14.02629 -14.01533
 Alpha  occ. eigenvalues --  -14.00957 -10.03718 -10.02575 -10.00149  -9.99918
 Alpha  occ. eigenvalues --   -9.97380  -9.96972  -9.96908  -9.96885  -9.96758
 Alpha  occ. eigenvalues --   -9.96347  -9.96296  -9.95885  -9.95682  -9.95421
 Alpha  occ. eigenvalues --   -9.95255  -9.95122  -9.94836  -9.94392  -9.93988
 Alpha  occ. eigenvalues --   -9.93815  -9.93580  -9.93449  -9.93441  -9.93361
 Alpha  occ. eigenvalues --   -9.93317  -9.93301  -9.93298  -9.93285  -9.93245
 Alpha  occ. eigenvalues --   -9.93189  -9.92994  -9.92620  -9.92459  -9.92449
 Alpha  occ. eigenvalues --   -9.92034  -9.92013  -9.91994  -9.91944  -9.91891
 Alpha  occ. eigenvalues --   -9.91595  -9.91453  -9.91443  -9.91306  -9.91238
 Alpha  occ. eigenvalues --   -9.91213  -9.91203  -9.91012  -9.90952  -9.90926
 Alpha  occ. eigenvalues --   -9.90773  -9.90678  -9.90443  -9.90394  -9.90337
 Alpha  occ. eigenvalues --   -9.90327  -2.92279  -1.72676  -1.72197  -1.71974
 Alpha  occ. eigenvalues --   -0.97045  -0.96386  -0.93100  -0.91677  -0.88945
 Alpha  occ. eigenvalues --   -0.88848  -0.86231  -0.85755  -0.85020  -0.84129
 Alpha  occ. eigenvalues --   -0.75577  -0.73851  -0.72904  -0.72856  -0.72324
 Alpha  occ. eigenvalues --   -0.71861  -0.71554  -0.70916  -0.70016  -0.69719
 Alpha  occ. eigenvalues --   -0.69470  -0.68566  -0.68054  -0.67871  -0.67179
 Alpha  occ. eigenvalues --   -0.65887  -0.65737  -0.65254  -0.64820  -0.64656
 Alpha  occ. eigenvalues --   -0.63936  -0.62459  -0.62271  -0.61449  -0.60442
 Alpha  occ. eigenvalues --   -0.60203  -0.59998  -0.59641  -0.59534  -0.58485
 Alpha  occ. eigenvalues --   -0.58391  -0.57804  -0.56746  -0.55857  -0.54425
 Alpha  occ. eigenvalues --   -0.54352  -0.54050  -0.52249  -0.51987  -0.51731
 Alpha  occ. eigenvalues --   -0.51353  -0.51240  -0.50430  -0.50234  -0.49578
 Alpha  occ. eigenvalues --   -0.49469  -0.48509  -0.47727  -0.47546  -0.46721
 Alpha  occ. eigenvalues --   -0.45878  -0.45750  -0.45496  -0.44925  -0.44268
 Alpha  occ. eigenvalues --   -0.43848  -0.43561  -0.43257  -0.42523  -0.42306
 Alpha  occ. eigenvalues --   -0.41958  -0.41262  -0.41163  -0.40906  -0.40837
 Alpha  occ. eigenvalues --   -0.40449  -0.40242  -0.40117  -0.39933  -0.39819
 Alpha  occ. eigenvalues --   -0.39715  -0.39442  -0.39232  -0.39179  -0.38895
 Alpha  occ. eigenvalues --   -0.38767  -0.38473  -0.38375  -0.38283  -0.38111
 Alpha  occ. eigenvalues --   -0.37832  -0.37804  -0.37579  -0.37528  -0.37188
 Alpha  occ. eigenvalues --   -0.37007  -0.36990  -0.36898  -0.36535  -0.36515
 Alpha  occ. eigenvalues --   -0.36367  -0.36298  -0.36065  -0.36030  -0.35558
 Alpha  occ. eigenvalues --   -0.35336  -0.34893  -0.34814  -0.34796  -0.34605
 Alpha  occ. eigenvalues --   -0.34412  -0.34300  -0.34218  -0.34078  -0.33645
 Alpha  occ. eigenvalues --   -0.33580  -0.33477  -0.33388  -0.33130  -0.33060
 Alpha  occ. eigenvalues --   -0.32914  -0.32825  -0.32668  -0.32645  -0.32427
 Alpha  occ. eigenvalues --   -0.32179  -0.32095  -0.31800  -0.31683  -0.31562
 Alpha  occ. eigenvalues --   -0.31233  -0.31105  -0.30982  -0.30878  -0.30754
 Alpha  occ. eigenvalues --   -0.30616  -0.30292  -0.29889  -0.29819  -0.29483
 Alpha  occ. eigenvalues --   -0.29337  -0.29157  -0.29049  -0.28700  -0.28630
 Alpha  occ. eigenvalues --   -0.28477  -0.28404  -0.28304  -0.27985  -0.27936
 Alpha  occ. eigenvalues --   -0.27677  -0.27471  -0.26675  -0.26557  -0.26475
 Alpha  occ. eigenvalues --   -0.26342  -0.26189  -0.25725  -0.25603  -0.25554
 Alpha  occ. eigenvalues --   -0.24374  -0.24108  -0.23746  -0.23595  -0.23399
 Alpha  occ. eigenvalues --   -0.23385  -0.22519  -0.21593  -0.20909  -0.20675
 Alpha  occ. eigenvalues --   -0.20394  -0.20247  -0.19166  -0.18261  -0.17414
 Alpha  occ. eigenvalues --   -0.16164
 Alpha virt. eigenvalues --   -0.11887  -0.07203  -0.06008  -0.04408  -0.03626
 Alpha virt. eigenvalues --   -0.03164  -0.01926  -0.01509  -0.01139   0.00071
 Alpha virt. eigenvalues --    0.01501   0.01884   0.02462   0.02981   0.03280

 Mulliken charges:
               1
     1  Mg   0.694639
     2  C    0.153239
     3  C   -0.034717
     4  C   -0.041783
     5  C   -0.086704
     6  N   -0.194292
     7  C   -0.125448
     8  C    0.064217
     9  C   -0.008873
    10  C   -0.004878
    11  C    0.143404
    12  C    0.132018
    13  C    0.121698
    14  C    0.070401
    15  O   -0.177661
    16  O   -0.288578
    17  N   -0.325168
    18  C    0.116723
    19  C   -0.135264
    20  C   -0.041748
    21  C    0.188836
    22  C    0.195995
    23  C   -0.072827
    24  O   -0.144285
    25  C    0.137392
    26  N   -0.237966
    27  C   -0.032559
    28  C    0.009315
    29  C    0.029893
    30  C    0.079716
    31  C    0.094235
    32  C    0.085715
    33  C    0.062762
    34  N   -0.283173
    35  C    0.122847
    36  C   -0.191716
    37  C    0.102741
    38  C    0.028420
    39  C    0.164026
    40  C   -0.007995
    41  O   -0.118021
    42  C    0.018075
    43  C    0.067874
    44  O   -0.157733
    45  O   -0.284555
    46  C    0.210156
    47  C    0.327356
    48  C   -0.105111
    49  C   -0.104701
    50  C    0.153579
    51  C    0.091003
    52  C    0.103509
    53  C    0.111422
    54  C   -0.082707
    55  C    0.131251
    56  C    0.060173
    57  C    0.052639
    58  C    0.156217
    59  C   -0.066997
    60  C    0.095903
    61  C    0.099078
    62  C    0.046074
    63  C    0.095907
    64  C   -0.097992
    65  C    0.090440
    66  C    0.086442
    67  H   -0.064327
    68  H   -0.074382
    69  H   -0.057915
    70  H   -0.047209
    71  H   -0.020859
    72  H   -0.008967
    73  H   -0.003567
    74  H   -0.010665
    75  H   -0.005811
    76  H   -0.024647
    77  H   -0.010649
    78  H    0.011976
    79  H    0.012294
    80  H   -0.016001
    81  H    0.007239
    82  H    0.001584
    83  H    0.014759
    84  H    0.012609
    85  H   -0.015575
    86  H   -0.020228
    87  H   -0.021783
    88  H   -0.000856
    89  H    0.003304
    90  H   -0.016841
    91  H   -0.016321
    92  H    0.002559
    93  H   -0.008498
    94  H   -0.018140
    95  H    0.008081
    96  H    0.000098
    97  H    0.003220
    98  H   -0.012543
    99  H    0.008497
   100  H    0.017532
   101  H    0.030429
   102  H   -0.010305
   103  H   -0.025337
   104  H   -0.038521
   105  H    0.005678
   106  H   -0.020654
   107  H   -0.003149
   108  H   -0.049725
   109  H   -0.025017
   110  H   -0.013993
   111  H   -0.030515
   112  H   -0.025290
   113  H   -0.038993
   114  H   -0.040872
   115  H   -0.020158
   116  H   -0.027805
   117  H   -0.015205
   118  H   -0.046436
   119  H   -0.037384
   120  H   -0.035551
   121  H   -0.024071
   122  H   -0.043217
   123  H   -0.043623
   124  H   -0.030565
   125  H   -0.017426
   126  H   -0.026482
   127  H   -0.019363
   128  H   -0.041719
   129  H   -0.029878
   130  H   -0.026637
   131  H   -0.025726
   132  H   -0.034922
   133  H   -0.032806
   134  H   -0.031157
   135  H   -0.018447
   136  H   -0.017688
   137  H    0.002770
   138  H   -0.007657
   139  H   -0.019598
   140  H   -0.012829
 Sum of Mulliken charges =  -0.00000

 Dipole moment (field-independent basis, Debye):
    X=             -0.4797    Y=              3.2866    Z=              2.4698  Tot=              4.1390
 Quadrupole moment (field-independent basis, Debye-Ang):
   XX=           -393.9037   YY=           -399.9365   ZZ=           -405.1861
   XY=            -50.7389   XZ=             -7.2217   YZ=            -37.0712

 Normal termination of Gaussian 16 at Wed Apr 27 02:47:50 2022.
