 Gaussian 16, Revision A.03,
 Gaussian 16:  ES64L-G16RevA.03 25-Dec-2016

 -----------------------------------
 #p cam-b3lyp/Def2SVP td=(nstates=5)
 -----------------------------------

 --------------------------------------------------------
 step_1051_chromophore_11 TDDFT with cam-b3lyp functional
 --------------------------------------------------------
 Symbolic Z-matrix:
 Charge =  0 Multiplicity = 1

                         Standard orientation:
 ---------------------------------------------------------------------
 Center     Atomic      Atomic             Coordinates (Angstroms)
 Number     Number       Type             X           Y           Z
 ---------------------------------------------------------------------
      1         12           0       -4.953640    1.298441    0.741878
      2          6           0       -5.335640   -2.114552    0.315398
      3          6           0       -2.434302    0.485704    3.017839
      4          6           0       -3.921242    4.510208    0.476089
      5          6           0       -7.128551    1.788649   -2.043771
      6          7           0       -3.949547   -0.704658    1.517254
      7          6           0       -4.350205   -1.954804    1.203648
      8          6           0       -3.492300   -2.947379    1.963926
      9          6           0       -2.927741   -2.081168    3.210160
     10          6           0       -3.132036   -0.618448    2.610316
     11          6           0       -3.688380   -2.143818    4.557634
     12          6           0       -2.460041   -3.957509    1.309092
     13          6           0       -1.449918   -3.203572    0.479341
     14          6           0       -0.390869   -4.139853   -0.242557
     15          8           0       -0.431017   -4.599060   -1.381221
     16          8           0        0.665443   -4.397308    0.633852
     17          7           0       -3.401262    2.342271    1.598715
     18          6           0       -2.466602    1.883731    2.525896
     19          6           0       -1.582360    2.909333    2.892799
     20          6           0       -2.006632    4.087508    2.228857
     21          6           0       -3.240121    3.717607    1.417725
     22          6           0       -0.456327    2.649813    3.845127
     23          6           0       -1.290457    5.533999    2.383345
     24          8           0       -0.440022    5.752356    3.197509
     25          6           0       -1.893519    6.796525    1.815553
     26          7           0       -5.332400    2.857118   -0.601220
     27          6           0       -4.898797    4.147136   -0.505895
     28          6           0       -5.599933    5.168227   -1.446094
     29          6           0       -6.443257    4.166174   -2.345437
     30          6           0       -6.281103    2.842588   -1.628885
     31          6           0       -6.395325    6.243589   -0.550055
     32          6           0       -5.865762    4.129593   -3.794689
     33          6           0       -6.777564    4.742923   -4.826286
     34          7           0       -6.232337    0.157471   -0.469522
     35          6           0       -7.115255    0.481634   -1.488934
     36          6           0       -7.934181   -0.666562   -1.809590
     37          6           0       -7.228825   -1.747993   -1.261032
     38          6           0       -6.176801   -1.212507   -0.427971
     39          6           0       -9.090460   -0.781561   -2.783973
     40          6           0       -7.099155   -3.193712   -1.211210
     41          8           0       -7.765609   -4.064182   -1.742358
     42          6           0       -5.919028   -3.419802   -0.196151
     43          6           0       -4.916125   -4.224586   -0.936409
     44          8           0       -4.096138   -3.832291   -1.715371
     45          8           0       -5.029380   -5.568836   -0.667450
     46          6           0       -4.060509   -6.504021   -1.278932
     47          6           0        1.897768   -4.927077    0.099276
     48          6           0        3.011197   -3.915580    0.089442
     49          6           0        4.054059   -3.705515    0.907064
     50          6           0        4.352183   -4.537196    2.068151
     51          6           0        4.957092   -2.432988    0.713125
     52          6           0        5.577793   -2.040031   -0.656721
     53          6           0        6.785931   -1.164397   -0.536768
     54          6           0        6.451770    0.312663   -0.945261
     55          6           0        6.498367    0.426341   -2.467022
     56          6           0        7.351721    1.336499   -0.290523
     57          6           0        8.788015    1.414393   -0.832797
     58          6           0        9.838893    1.905454    0.209937
     59          6           0       10.668753    0.795210    0.790014
     60          6           0       10.425525    0.682958    2.296184
     61          6           0       12.185189    1.061306    0.506306
     62          6           0       12.616371    0.297059   -0.821542
     63          6           0       13.541187    1.112226   -1.776229
     64          6           0       15.097771    0.623301   -1.784735
     65          6           0       16.080591    1.680921   -1.091614
     66          6           0       15.604139    0.284362   -3.240180
     67          1           0       -1.755942    0.326185    3.858190
     68          1           0       -3.696305    5.561890    0.287668
     69          1           0       -7.884475    1.999069   -2.802470
     70          1           0       -4.190511   -3.685735    2.358781
     71          1           0       -1.847754   -2.211828    3.282592
     72          1           0       -3.333741   -1.401084    5.272577
     73          1           0       -3.574535   -3.138025    4.990294
     74          1           0       -4.751133   -1.909426    4.495867
     75          1           0       -2.814460   -4.872683    0.834745
     76          1           0       -1.959172   -4.316343    2.207682
     77          1           0       -0.878856   -2.414642    0.969345
     78          1           0       -1.938782   -2.659923   -0.329515
     79          1           0        0.448586    3.003144    3.351725
     80          1           0       -0.330645    1.649739    4.260025
     81          1           0       -0.717897    3.298464    4.680945
     82          1           0       -1.481615    7.707802    2.249436
     83          1           0       -2.932348    6.672774    2.122082
     84          1           0       -1.740665    6.685270    0.741985
     85          1           0       -4.961692    5.829536   -2.032086
     86          1           0       -7.479416    4.502471   -2.357044
     87          1           0       -7.440424    6.192149   -0.855953
     88          1           0       -6.119405    7.285866   -0.711751
     89          1           0       -6.425604    6.019079    0.516580
     90          1           0       -5.766140    3.107748   -4.159282
     91          1           0       -4.872075    4.573366   -3.863448
     92          1           0       -7.292761    4.016971   -5.455031
     93          1           0       -6.140295    5.392724   -5.426860
     94          1           0       -7.524428    5.334851   -4.296792
     95          1           0       -9.200500   -1.849379   -2.975553
     96          1           0       -8.872042   -0.348323   -3.759938
     97          1           0       -9.988333   -0.329222   -2.363511
     98          1           0       -6.175169   -4.049896    0.655690
     99          1           0       -4.552272   -7.474822   -1.224003
    100          1           0       -3.116834   -6.617898   -0.744934
    101          1           0       -3.877805   -6.208716   -2.311678
    102          1           0        1.764316   -5.279500   -0.923570
    103          1           0        2.080527   -5.804686    0.719516
    104          1           0        2.808141   -3.188360   -0.696323
    105          1           0        5.260192   -5.095245    1.836536
    106          1           0        3.503484   -5.194226    2.259278
    107          1           0        4.450468   -4.026511    3.026317
    108          1           0        5.736811   -2.379357    1.472246
    109          1           0        4.392349   -1.538691    0.979226
    110          1           0        4.864730   -1.452296   -1.233809
    111          1           0        5.752194   -3.034018   -1.069750
    112          1           0        7.603988   -1.571637   -1.130495
    113          1           0        7.172403   -1.037322    0.474655
    114          1           0        5.492378    0.656128   -0.560069
    115          1           0        5.512544    0.151694   -2.842384
    116          1           0        7.131973   -0.313993   -2.956539
    117          1           0        6.833972    1.405907   -2.807116
    118          1           0        7.282134    0.996326    0.743417
    119          1           0        6.984235    2.357976   -0.190132
    120          1           0        8.777075    2.116227   -1.666811
    121          1           0        9.059678    0.433207   -1.223801
    122          1           0        9.336437    2.420457    1.028961
    123          1           0       10.422196    2.684174   -0.281194
    124          1           0       10.323211   -0.155693    0.384903
    125          1           0       10.478640    1.633576    2.826691
    126          1           0       11.202238    0.046331    2.719638
    127          1           0        9.453019    0.225562    2.479555
    128          1           0       12.833242    0.713922    1.310819
    129          1           0       12.408282    2.124565    0.407421
    130          1           0       11.713845    0.035174   -1.374926
    131          1           0       13.124089   -0.626390   -0.541340
    132          1           0       13.517392    2.122586   -1.367778
    133          1           0       13.148504    1.083945   -2.792446
    134          1           0       15.087213   -0.351501   -1.297035
    135          1           0       17.092837    1.365918   -1.344234
    136          1           0       16.009284    1.552807   -0.010746
    137          1           0       15.915097    2.733245   -1.321661
    138          1           0       14.738799   -0.028173   -3.826089
    139          1           0       16.324649   -0.525746   -3.129174
    140          1           0       16.209220    1.102309   -3.632803
 ---------------------------------------------------------------------

 SCF Done:  E(RCAM-B3LYP) =  -3007.15455114     A.U. after   18 cycles

 Excitation energies and oscillator strengths:

 Excited State   1:      Singlet-A      1.6894 eV  733.91 nm  f=0.3648  <S**2>=0.000
     245 -> 248        0.17931
     246 -> 247        0.68416
     245 <- 248        0.10821
 This state for optimization and/or second-order correction.
 Total Energy, E(TD-HF/TD-DFT) =  -3007.09246790
 Copying the excited state density for this state as the 1-particle RhoCI density.

 Excited State   2:      Singlet-A      2.1802 eV  568.68 nm  f=0.1199  <S**2>=0.000
     245 -> 247        0.64344
     246 -> 248       -0.27768

 Excited State   3:      Singlet-A      3.2793 eV  378.08 nm  f=0.0019  <S**2>=0.000
     241 -> 247       -0.13673
     242 -> 247        0.29641
     244 -> 247        0.61155

 Excited State   4:      Singlet-A      3.4013 eV  364.52 nm  f=0.0460  <S**2>=0.000
     241 -> 247       -0.14142
     242 -> 247        0.52976
     244 -> 247       -0.26758
     246 -> 248        0.31783

 Excited State   5:      Singlet-A      3.5399 eV  350.25 nm  f=0.0485  <S**2>=0.000
     240 -> 247       -0.13459
     241 -> 247        0.50733
     241 -> 248        0.14456
     241 -> 249       -0.15307
     241 -> 251       -0.23189
     242 -> 247        0.21156
     246 -> 248       -0.16157

 The electronic state is 1-A.
 Alpha  occ. eigenvalues --  -46.89334 -19.23635 -19.23357 -19.19503 -19.19224
 Alpha  occ. eigenvalues --  -19.19050 -19.18611 -14.43081 -14.41417 -14.40161
 Alpha  occ. eigenvalues --  -14.39343 -10.39050 -10.37900 -10.35389 -10.35227
 Alpha  occ. eigenvalues --  -10.32128 -10.31721 -10.31264 -10.30908 -10.30889
 Alpha  occ. eigenvalues --  -10.30722 -10.30627 -10.30479 -10.29758 -10.29547
 Alpha  occ. eigenvalues --  -10.29529 -10.29255 -10.28919 -10.28348 -10.28309
 Alpha  occ. eigenvalues --  -10.28141 -10.27942 -10.27922 -10.27732 -10.27651
 Alpha  occ. eigenvalues --  -10.27601 -10.27484 -10.27423 -10.27375 -10.27109
 Alpha  occ. eigenvalues --  -10.26970 -10.26915 -10.26291 -10.26282 -10.26121
 Alpha  occ. eigenvalues --  -10.26078 -10.25890 -10.25615 -10.25552 -10.25536
 Alpha  occ. eigenvalues --  -10.25456 -10.25274 -10.25106 -10.25076 -10.24981
 Alpha  occ. eigenvalues --  -10.24867 -10.24837 -10.24701 -10.24668 -10.24655
 Alpha  occ. eigenvalues --  -10.24447 -10.24288 -10.24089 -10.24026 -10.23940
 Alpha  occ. eigenvalues --  -10.23892  -3.17819  -1.92694  -1.92296  -1.92106
 Alpha  occ. eigenvalues --   -1.15608  -1.14743  -1.11631  -1.10037  -1.06731
 Alpha  occ. eigenvalues --   -1.06701  -1.03960  -1.03442  -1.02533  -1.01750
 Alpha  occ. eigenvalues --   -0.92674  -0.90727  -0.89652  -0.89618  -0.89052
 Alpha  occ. eigenvalues --   -0.88550  -0.88300  -0.87516  -0.86577  -0.86255
 Alpha  occ. eigenvalues --   -0.85957  -0.84922  -0.84341  -0.84038  -0.83395
 Alpha  occ. eigenvalues --   -0.82021  -0.81808  -0.81192  -0.80689  -0.80435
 Alpha  occ. eigenvalues --   -0.79747  -0.78059  -0.77797  -0.77125  -0.75819
 Alpha  occ. eigenvalues --   -0.75509  -0.75316  -0.74962  -0.74845  -0.73699
 Alpha  occ. eigenvalues --   -0.73479  -0.72766  -0.71650  -0.70676  -0.69094
 Alpha  occ. eigenvalues --   -0.68985  -0.68568  -0.66639  -0.66314  -0.65826
 Alpha  occ. eigenvalues --   -0.65561  -0.65465  -0.64512  -0.64251  -0.63600
 Alpha  occ. eigenvalues --   -0.63201  -0.62435  -0.61487  -0.61205  -0.60295
 Alpha  occ. eigenvalues --   -0.59396  -0.59195  -0.58980  -0.58241  -0.57848
 Alpha  occ. eigenvalues --   -0.57296  -0.57025  -0.56418  -0.55807  -0.55270
 Alpha  occ. eigenvalues --   -0.55037  -0.54141  -0.53955  -0.53581  -0.53466
 Alpha  occ. eigenvalues --   -0.53402  -0.52900  -0.52843  -0.52757  -0.52650
 Alpha  occ. eigenvalues --   -0.52474  -0.52258  -0.52060  -0.51776  -0.51474
 Alpha  occ. eigenvalues --   -0.51410  -0.51259  -0.51001  -0.50798  -0.50533
 Alpha  occ. eigenvalues --   -0.50304  -0.50086  -0.50016  -0.49789  -0.49521
 Alpha  occ. eigenvalues --   -0.49431  -0.49365  -0.49169  -0.49086  -0.48921
 Alpha  occ. eigenvalues --   -0.48890  -0.48603  -0.48316  -0.48044  -0.47697
 Alpha  occ. eigenvalues --   -0.47368  -0.47212  -0.46848  -0.46705  -0.46618
 Alpha  occ. eigenvalues --   -0.46276  -0.46188  -0.46077  -0.45921  -0.45579
 Alpha  occ. eigenvalues --   -0.45351  -0.45228  -0.45208  -0.44937  -0.44840
 Alpha  occ. eigenvalues --   -0.44632  -0.44420  -0.44324  -0.44233  -0.44111
 Alpha  occ. eigenvalues --   -0.43789  -0.43558  -0.43430  -0.43346  -0.42966
 Alpha  occ. eigenvalues --   -0.42840  -0.42646  -0.42544  -0.42387  -0.42195
 Alpha  occ. eigenvalues --   -0.41877  -0.41622  -0.41144  -0.41069  -0.40818
 Alpha  occ. eigenvalues --   -0.40587  -0.40428  -0.40401  -0.40121  -0.39848
 Alpha  occ. eigenvalues --   -0.39702  -0.39553  -0.39421  -0.38998  -0.38860
 Alpha  occ. eigenvalues --   -0.38530  -0.38368  -0.37778  -0.37457  -0.37277
 Alpha  occ. eigenvalues --   -0.36997  -0.36937  -0.36742  -0.36261  -0.36212
 Alpha  occ. eigenvalues --   -0.35665  -0.34947  -0.34735  -0.34294  -0.33760
 Alpha  occ. eigenvalues --   -0.33540  -0.33380  -0.32772  -0.31678  -0.31084
 Alpha  occ. eigenvalues --   -0.30360  -0.30079  -0.30052  -0.29762  -0.24182
 Alpha  occ. eigenvalues --   -0.21523
 Alpha virt. eigenvalues --   -0.09094  -0.02100   0.00549   0.01327   0.02677
 Alpha virt. eigenvalues --    0.04404   0.05282   0.06364   0.06695   0.07079
 Alpha virt. eigenvalues --    0.08178   0.08388   0.09007   0.09115   0.09465

 Mulliken charges:
               1
     1  Mg   0.824594
     2  C    0.113052
     3  C   -0.050357
     4  C   -0.067206
     5  C   -0.086236
     6  N   -0.260199
     7  C   -0.084972
     8  C    0.017891
     9  C   -0.059309
    10  C    0.009583
    11  C    0.086171
    12  C    0.076956
    13  C    0.056452
    14  C    0.152375
    15  O   -0.219466
    16  O   -0.353186
    17  N   -0.412141
    18  C    0.132316
    19  C   -0.149657
    20  C   -0.099268
    21  C    0.215156
    22  C    0.139622
    23  C    0.006090
    24  O   -0.181580
    25  C    0.055170
    26  N   -0.307101
    27  C   -0.009790
    28  C   -0.039637
    29  C   -0.030219
    30  C    0.089283
    31  C    0.036643
    32  C    0.030703
    33  C    0.002549
    34  N   -0.369020
    35  C    0.119479
    36  C   -0.176831
    37  C    0.020186
    38  C    0.072926
    39  C    0.109380
    40  C    0.083999
    41  O   -0.156928
    42  C   -0.058426
    43  C    0.155073
    44  O   -0.192593
    45  O   -0.348712
    46  C    0.175263
    47  C    0.286516
    48  C   -0.124430
    49  C   -0.131183
    50  C    0.086845
    51  C    0.046665
    52  C    0.047872
    53  C    0.052839
    54  C   -0.138059
    55  C    0.066054
    56  C    0.015552
    57  C   -0.003715
    58  C    0.099938
    59  C   -0.128357
    60  C    0.042981
    61  C    0.046363
    62  C   -0.003141
    63  C    0.041869
    64  C   -0.152570
    65  C    0.031273
    66  C    0.027886
    67  H   -0.030564
    68  H   -0.036812
    69  H   -0.021718
    70  H   -0.009101
    71  H    0.013543
    72  H    0.015850
    73  H    0.021171
    74  H    0.014839
    75  H    0.020959
    76  H    0.007467
    77  H    0.021827
    78  H    0.044891
    79  H    0.039340
    80  H    0.011743
    81  H    0.034902
    82  H    0.036478
    83  H    0.038192
    84  H    0.037176
    85  H    0.019067
    86  H    0.013858
    87  H    0.003269
    88  H    0.023485
    89  H    0.028704
    90  H    0.014657
    91  H    0.011912
    92  H    0.025271
    93  H    0.015474
    94  H    0.003597
    95  H    0.035810
    96  H    0.024406
    97  H    0.028432
    98  H    0.032034
    99  H    0.032042
   100  H    0.034502
   101  H    0.055515
   102  H    0.025719
   103  H    0.003990
   104  H   -0.007633
   105  H    0.029554
   106  H    0.004726
   107  H    0.021998
   108  H   -0.018932
   109  H    0.003180
   110  H    0.010585
   111  H    0.000271
   112  H    0.004030
   113  H   -0.012332
   114  H   -0.007582
   115  H    0.005043
   116  H   -0.002579
   117  H    0.009940
   118  H   -0.019697
   119  H   -0.006835
   120  H   -0.005928
   121  H   -0.000922
   122  H   -0.012972
   123  H   -0.012656
   124  H    0.000102
   125  H    0.006031
   126  H   -0.001442
   127  H    0.003409
   128  H   -0.012281
   129  H   -0.002995
   130  H   -0.000348
   131  H    0.001319
   132  H   -0.008460
   133  H   -0.003263
   134  H   -0.000881
   135  H    0.005242
   136  H    0.005762
   137  H    0.025189
   138  H    0.015296
   139  H    0.004123
   140  H    0.010732
 Sum of Mulliken charges =  -0.00000

 Dipole moment (field-independent basis, Debye):
    X=             -0.3842    Y=              3.7958    Z=              2.7716  Tot=              4.7157
 Quadrupole moment (field-independent basis, Debye-Ang):
   XX=           -394.2892   YY=           -395.7863   ZZ=           -404.2746
   XY=            -53.1443   XZ=             -7.1272   YZ=            -38.1342

 Normal termination of Gaussian 16 at Wed Apr 27 01:50:20 2022.
