 Gaussian 16, Revision A.03,
 Gaussian 16:  ES64L-G16RevA.03 25-Dec-2016

 ---------------------------------
 #p PBE1PBE/Def2SVP td=(nstates=5)
 ---------------------------------

 ------------------------------------------------------
 step_1051_chromophore_11 TDDFT with PBE1PBE functional
 ------------------------------------------------------
 Symbolic Z-matrix:
 Charge =  0 Multiplicity = 1

                         Standard orientation:
 ---------------------------------------------------------------------
 Center     Atomic      Atomic             Coordinates (Angstroms)
 Number     Number       Type             X           Y           Z
 ---------------------------------------------------------------------
      1         12           0       -4.953640    1.298441    0.741878
      2          6           0       -5.335640   -2.114552    0.315398
      3          6           0       -2.434302    0.485704    3.017839
      4          6           0       -3.921242    4.510208    0.476089
      5          6           0       -7.128551    1.788649   -2.043771
      6          7           0       -3.949547   -0.704658    1.517254
      7          6           0       -4.350205   -1.954804    1.203648
      8          6           0       -3.492300   -2.947379    1.963926
      9          6           0       -2.927741   -2.081168    3.210160
     10          6           0       -3.132036   -0.618448    2.610316
     11          6           0       -3.688380   -2.143818    4.557634
     12          6           0       -2.460041   -3.957509    1.309092
     13          6           0       -1.449918   -3.203572    0.479341
     14          6           0       -0.390869   -4.139853   -0.242557
     15          8           0       -0.431017   -4.599060   -1.381221
     16          8           0        0.665443   -4.397308    0.633852
     17          7           0       -3.401262    2.342271    1.598715
     18          6           0       -2.466602    1.883731    2.525896
     19          6           0       -1.582360    2.909333    2.892799
     20          6           0       -2.006632    4.087508    2.228857
     21          6           0       -3.240121    3.717607    1.417725
     22          6           0       -0.456327    2.649813    3.845127
     23          6           0       -1.290457    5.533999    2.383345
     24          8           0       -0.440022    5.752356    3.197509
     25          6           0       -1.893519    6.796525    1.815553
     26          7           0       -5.332400    2.857118   -0.601220
     27          6           0       -4.898797    4.147136   -0.505895
     28          6           0       -5.599933    5.168227   -1.446094
     29          6           0       -6.443257    4.166174   -2.345437
     30          6           0       -6.281103    2.842588   -1.628885
     31          6           0       -6.395325    6.243589   -0.550055
     32          6           0       -5.865762    4.129593   -3.794689
     33          6           0       -6.777564    4.742923   -4.826286
     34          7           0       -6.232337    0.157471   -0.469522
     35          6           0       -7.115255    0.481634   -1.488934
     36          6           0       -7.934181   -0.666562   -1.809590
     37          6           0       -7.228825   -1.747993   -1.261032
     38          6           0       -6.176801   -1.212507   -0.427971
     39          6           0       -9.090460   -0.781561   -2.783973
     40          6           0       -7.099155   -3.193712   -1.211210
     41          8           0       -7.765609   -4.064182   -1.742358
     42          6           0       -5.919028   -3.419802   -0.196151
     43          6           0       -4.916125   -4.224586   -0.936409
     44          8           0       -4.096138   -3.832291   -1.715371
     45          8           0       -5.029380   -5.568836   -0.667450
     46          6           0       -4.060509   -6.504021   -1.278932
     47          6           0        1.897768   -4.927077    0.099276
     48          6           0        3.011197   -3.915580    0.089442
     49          6           0        4.054059   -3.705515    0.907064
     50          6           0        4.352183   -4.537196    2.068151
     51          6           0        4.957092   -2.432988    0.713125
     52          6           0        5.577793   -2.040031   -0.656721
     53          6           0        6.785931   -1.164397   -0.536768
     54          6           0        6.451770    0.312663   -0.945261
     55          6           0        6.498367    0.426341   -2.467022
     56          6           0        7.351721    1.336499   -0.290523
     57          6           0        8.788015    1.414393   -0.832797
     58          6           0        9.838893    1.905454    0.209937
     59          6           0       10.668753    0.795210    0.790014
     60          6           0       10.425525    0.682958    2.296184
     61          6           0       12.185189    1.061306    0.506306
     62          6           0       12.616371    0.297059   -0.821542
     63          6           0       13.541187    1.112226   -1.776229
     64          6           0       15.097771    0.623301   -1.784735
     65          6           0       16.080591    1.680921   -1.091614
     66          6           0       15.604139    0.284362   -3.240180
     67          1           0       -1.755942    0.326185    3.858190
     68          1           0       -3.696305    5.561890    0.287668
     69          1           0       -7.884475    1.999069   -2.802470
     70          1           0       -4.190511   -3.685735    2.358781
     71          1           0       -1.847754   -2.211828    3.282592
     72          1           0       -3.333741   -1.401084    5.272577
     73          1           0       -3.574535   -3.138025    4.990294
     74          1           0       -4.751133   -1.909426    4.495867
     75          1           0       -2.814460   -4.872683    0.834745
     76          1           0       -1.959172   -4.316343    2.207682
     77          1           0       -0.878856   -2.414642    0.969345
     78          1           0       -1.938782   -2.659923   -0.329515
     79          1           0        0.448586    3.003144    3.351725
     80          1           0       -0.330645    1.649739    4.260025
     81          1           0       -0.717897    3.298464    4.680945
     82          1           0       -1.481615    7.707802    2.249436
     83          1           0       -2.932348    6.672774    2.122082
     84          1           0       -1.740665    6.685270    0.741985
     85          1           0       -4.961692    5.829536   -2.032086
     86          1           0       -7.479416    4.502471   -2.357044
     87          1           0       -7.440424    6.192149   -0.855953
     88          1           0       -6.119405    7.285866   -0.711751
     89          1           0       -6.425604    6.019079    0.516580
     90          1           0       -5.766140    3.107748   -4.159282
     91          1           0       -4.872075    4.573366   -3.863448
     92          1           0       -7.292761    4.016971   -5.455031
     93          1           0       -6.140295    5.392724   -5.426860
     94          1           0       -7.524428    5.334851   -4.296792
     95          1           0       -9.200500   -1.849379   -2.975553
     96          1           0       -8.872042   -0.348323   -3.759938
     97          1           0       -9.988333   -0.329222   -2.363511
     98          1           0       -6.175169   -4.049896    0.655690
     99          1           0       -4.552272   -7.474822   -1.224003
    100          1           0       -3.116834   -6.617898   -0.744934
    101          1           0       -3.877805   -6.208716   -2.311678
    102          1           0        1.764316   -5.279500   -0.923570
    103          1           0        2.080527   -5.804686    0.719516
    104          1           0        2.808141   -3.188360   -0.696323
    105          1           0        5.260192   -5.095245    1.836536
    106          1           0        3.503484   -5.194226    2.259278
    107          1           0        4.450468   -4.026511    3.026317
    108          1           0        5.736811   -2.379357    1.472246
    109          1           0        4.392349   -1.538691    0.979226
    110          1           0        4.864730   -1.452296   -1.233809
    111          1           0        5.752194   -3.034018   -1.069750
    112          1           0        7.603988   -1.571637   -1.130495
    113          1           0        7.172403   -1.037322    0.474655
    114          1           0        5.492378    0.656128   -0.560069
    115          1           0        5.512544    0.151694   -2.842384
    116          1           0        7.131973   -0.313993   -2.956539
    117          1           0        6.833972    1.405907   -2.807116
    118          1           0        7.282134    0.996326    0.743417
    119          1           0        6.984235    2.357976   -0.190132
    120          1           0        8.777075    2.116227   -1.666811
    121          1           0        9.059678    0.433207   -1.223801
    122          1           0        9.336437    2.420457    1.028961
    123          1           0       10.422196    2.684174   -0.281194
    124          1           0       10.323211   -0.155693    0.384903
    125          1           0       10.478640    1.633576    2.826691
    126          1           0       11.202238    0.046331    2.719638
    127          1           0        9.453019    0.225562    2.479555
    128          1           0       12.833242    0.713922    1.310819
    129          1           0       12.408282    2.124565    0.407421
    130          1           0       11.713845    0.035174   -1.374926
    131          1           0       13.124089   -0.626390   -0.541340
    132          1           0       13.517392    2.122586   -1.367778
    133          1           0       13.148504    1.083945   -2.792446
    134          1           0       15.087213   -0.351501   -1.297035
    135          1           0       17.092837    1.365918   -1.344234
    136          1           0       16.009284    1.552807   -0.010746
    137          1           0       15.915097    2.733245   -1.321661
    138          1           0       14.738799   -0.028173   -3.826089
    139          1           0       16.324649   -0.525746   -3.129174
    140          1           0       16.209220    1.102309   -3.632803
 ---------------------------------------------------------------------

 SCF Done:  E(RPBE1PBE) =  -3005.34271818     A.U. after   15 cycles

 Excitation energies and oscillator strengths:

 Excited State   1:      Singlet-A      1.8471 eV  671.22 nm  f=0.3486  <S**2>=0.000
     245 -> 248       -0.17452
     246 -> 247        0.68959
     246 <- 247       -0.10594
 This state for optimization and/or second-order correction.
 Total Energy, E(TD-HF/TD-DFT) =  -3005.27483718
 Copying the excited state density for this state as the 1-particle RhoCI density.

 Excited State   2:      Singlet-A      2.1950 eV  564.85 nm  f=0.1168  <S**2>=0.000
     245 -> 247        0.65218
     246 -> 248        0.25210

 Excited State   3:      Singlet-A      2.8925 eV  428.65 nm  f=0.0006  <S**2>=0.000
     244 -> 247        0.68583

 Excited State   4:      Singlet-A      2.9516 eV  420.06 nm  f=0.0012  <S**2>=0.000
     240 -> 247        0.12492
     242 -> 247        0.62134
     243 -> 247        0.27810

 Excited State   5:      Singlet-A      3.0279 eV  409.47 nm  f=0.0032  <S**2>=0.000
     240 -> 247       -0.47578
     240 -> 249        0.13975
     241 -> 247        0.48504

 The electronic state is 1-A.
 Alpha  occ. eigenvalues --  -46.92715 -19.24363 -19.24009 -19.19790 -19.19498
 Alpha  occ. eigenvalues --  -19.19181 -19.18783 -14.42553 -14.40941 -14.39754
 Alpha  occ. eigenvalues --  -14.39058 -10.36122 -10.34895 -10.32505 -10.32414
 Alpha  occ. eigenvalues --  -10.29762 -10.29284 -10.29119 -10.28554 -10.28349
 Alpha  occ. eigenvalues --  -10.28267 -10.28025 -10.27953 -10.27626 -10.27374
 Alpha  occ. eigenvalues --  -10.27355 -10.27051 -10.26756 -10.26223 -10.25963
 Alpha  occ. eigenvalues --  -10.25934 -10.25526 -10.25465 -10.25433 -10.25389
 Alpha  occ. eigenvalues --  -10.25223 -10.25129 -10.25060 -10.25003 -10.24607
 Alpha  occ. eigenvalues --  -10.24418 -10.24355 -10.23998 -10.23942 -10.23608
 Alpha  occ. eigenvalues --  -10.23342 -10.23304 -10.23254 -10.23175 -10.22974
 Alpha  occ. eigenvalues --  -10.22967 -10.22917 -10.22665 -10.22636 -10.22600
 Alpha  occ. eigenvalues --  -10.22441 -10.22253 -10.22248 -10.22228 -10.22224
 Alpha  occ. eigenvalues --  -10.21985 -10.21676 -10.21632 -10.21569 -10.21328
 Alpha  occ. eigenvalues --  -10.21277  -3.14780  -1.87593  -1.87176  -1.86989
 Alpha  occ. eigenvalues --   -1.10346  -1.09561  -1.06339  -1.04834  -1.01607
 Alpha  occ. eigenvalues --   -1.01522  -0.98552  -0.98020  -0.97232  -0.96317
 Alpha  occ. eigenvalues --   -0.87062  -0.84817  -0.83904  -0.83771  -0.83220
 Alpha  occ. eigenvalues --   -0.82674  -0.82565  -0.81848  -0.80889  -0.80320
 Alpha  occ. eigenvalues --   -0.80280  -0.79119  -0.78501  -0.78316  -0.77649
 Alpha  occ. eigenvalues --   -0.76218  -0.75947  -0.75397  -0.74971  -0.74784
 Alpha  occ. eigenvalues --   -0.73880  -0.72358  -0.72096  -0.71373  -0.70145
 Alpha  occ. eigenvalues --   -0.69722  -0.69606  -0.69071  -0.68918  -0.67927
 Alpha  occ. eigenvalues --   -0.67827  -0.67112  -0.66055  -0.64954  -0.63460
 Alpha  occ. eigenvalues --   -0.63249  -0.62972  -0.61045  -0.60526  -0.60232
 Alpha  occ. eigenvalues --   -0.59981  -0.59731  -0.59016  -0.58816  -0.57750
 Alpha  occ. eigenvalues --   -0.57688  -0.56599  -0.55764  -0.55706  -0.54867
 Alpha  occ. eigenvalues --   -0.53943  -0.53663  -0.53501  -0.52818  -0.52310
 Alpha  occ. eigenvalues --   -0.51812  -0.51408  -0.51038  -0.50320  -0.49789
 Alpha  occ. eigenvalues --   -0.49579  -0.48619  -0.48428  -0.48111  -0.48009
 Alpha  occ. eigenvalues --   -0.47900  -0.47484  -0.47396  -0.47248  -0.47054
 Alpha  occ. eigenvalues --   -0.46953  -0.46801  -0.46572  -0.46231  -0.46057
 Alpha  occ. eigenvalues --   -0.45990  -0.45728  -0.45588  -0.45356  -0.45008
 Alpha  occ. eigenvalues --   -0.44762  -0.44625  -0.44602  -0.44363  -0.44123
 Alpha  occ. eigenvalues --   -0.44101  -0.43942  -0.43698  -0.43604  -0.43497
 Alpha  occ. eigenvalues --   -0.43486  -0.43177  -0.42985  -0.42588  -0.42360
 Alpha  occ. eigenvalues --   -0.42011  -0.41864  -0.41561  -0.41357  -0.41227
 Alpha  occ. eigenvalues --   -0.41012  -0.40884  -0.40767  -0.40542  -0.40239
 Alpha  occ. eigenvalues --   -0.40062  -0.39934  -0.39788  -0.39653  -0.39549
 Alpha  occ. eigenvalues --   -0.39379  -0.39117  -0.39035  -0.38933  -0.38839
 Alpha  occ. eigenvalues --   -0.38636  -0.38294  -0.38258  -0.38128  -0.37668
 Alpha  occ. eigenvalues --   -0.37633  -0.37399  -0.37289  -0.37169  -0.37056
 Alpha  occ. eigenvalues --   -0.36731  -0.36382  -0.36025  -0.35910  -0.35612
 Alpha  occ. eigenvalues --   -0.35386  -0.35268  -0.35233  -0.35076  -0.34785
 Alpha  occ. eigenvalues --   -0.34458  -0.34387  -0.34248  -0.33906  -0.33675
 Alpha  occ. eigenvalues --   -0.33356  -0.33124  -0.32762  -0.32228  -0.32093
 Alpha  occ. eigenvalues --   -0.32064  -0.31813  -0.31752  -0.31164  -0.31056
 Alpha  occ. eigenvalues --   -0.30555  -0.29915  -0.29688  -0.29468  -0.28709
 Alpha  occ. eigenvalues --   -0.28700  -0.28361  -0.27987  -0.27194  -0.26056
 Alpha  occ. eigenvalues --   -0.25660  -0.25405  -0.25333  -0.25037  -0.21110
 Alpha  occ. eigenvalues --   -0.19139
 Alpha virt. eigenvalues --   -0.11526  -0.05584  -0.03697  -0.01768  -0.01396
 Alpha virt. eigenvalues --   -0.00101   0.00904   0.01758   0.02040   0.03112
 Alpha virt. eigenvalues --    0.04441   0.04727   0.05203   0.05875   0.06194

 Mulliken charges:
               1
     1  Mg   0.967381
     2  C    0.066504
     3  C   -0.044380
     4  C   -0.071713
     5  C   -0.069760
     6  N   -0.354149
     7  C   -0.008386
     8  C   -0.034373
     9  C   -0.139507
    10  C    0.041402
    11  C    0.028931
    12  C    0.005941
    13  C   -0.011909
    14  C    0.217349
    15  O   -0.252791
    16  O   -0.380239
    17  N   -0.524488
    18  C    0.164480
    19  C   -0.188042
    20  C   -0.136754
    21  C    0.239660
    22  C    0.080996
    23  C    0.061948
    24  O   -0.215630
    25  C   -0.027376
    26  N   -0.408617
    27  C    0.027866
    28  C   -0.108322
    29  C   -0.110971
    30  C    0.117677
    31  C   -0.019028
    32  C   -0.021675
    33  C   -0.069021
    34  N   -0.483289
    35  C    0.130358
    36  C   -0.178886
    37  C   -0.036425
    38  C    0.141164
    39  C    0.053152
    40  C    0.170134
    41  O   -0.203552
    42  C   -0.157642
    43  C    0.253483
    44  O   -0.228445
    45  O   -0.383083
    46  C    0.120566
    47  C    0.239500
    48  C   -0.133155
    49  C   -0.181495
    50  C    0.022467
    51  C   -0.002235
    52  C   -0.022165
    53  C   -0.001767
    54  C   -0.228917
    55  C    0.008862
    56  C   -0.035017
    57  C   -0.072952
    58  C    0.055543
    59  C   -0.221623
    60  C   -0.018617
    61  C   -0.006259
    62  C   -0.064993
    63  C   -0.012269
    64  C   -0.237387
    65  C   -0.034530
    66  C   -0.036265
    67  H    0.001978
    68  H   -0.003066
    69  H    0.009326
    70  H    0.031823
    71  H    0.048518
    72  H    0.044014
    73  H    0.049343
    74  H    0.042452
    75  H    0.056652
    76  H    0.042366
    77  H    0.053223
    78  H    0.078299
    79  H    0.066546
    80  H    0.037271
    81  H    0.062819
    82  H    0.063816
    83  H    0.065272
    84  H    0.063743
    85  H    0.053630
    86  H    0.048772
    87  H    0.031140
    88  H    0.050024
    89  H    0.056197
    90  H    0.048186
    91  H    0.043482
    92  H    0.052001
    93  H    0.043548
    94  H    0.031618
    95  H    0.063990
    96  H    0.051663
    97  H    0.056686
    98  H    0.069192
    99  H    0.054057
   100  H    0.055130
   101  H    0.076193
   102  H    0.053243
   103  H    0.031140
   104  H    0.022808
   105  H    0.058050
   106  H    0.032567
   107  H    0.049145
   108  H    0.012321
   109  H    0.037604
   110  H    0.043689
   111  H    0.034638
   112  H    0.034977
   113  H    0.019978
   114  H    0.030881
   115  H    0.033139
   116  H    0.024590
   117  H    0.038047
   118  H    0.014621
   119  H    0.026037
   120  H    0.027171
   121  H    0.031907
   122  H    0.019227
   123  H    0.019265
   124  H    0.037565
   125  H    0.033576
   126  H    0.027226
   127  H    0.032364
   128  H    0.019846
   129  H    0.027394
   130  H    0.033855
   131  H    0.033486
   132  H    0.025172
   133  H    0.028044
   134  H    0.036138
   135  H    0.033509
   136  H    0.034810
   137  H    0.051274
   138  H    0.042498
   139  H    0.032427
   140  H    0.038605
 Sum of Mulliken charges =  -0.00000

 Dipole moment (field-independent basis, Debye):
    X=             -0.5186    Y=              3.7610    Z=              2.6846  Tot=              4.6498
 Quadrupole moment (field-independent basis, Debye-Ang):
   XX=           -389.2146   YY=           -392.4765   ZZ=           -400.6434
   XY=            -53.6463   XZ=             -5.5533   YZ=            -39.2133

 Normal termination of Gaussian 16 at Wed Apr 27 02:07:40 2022.
