 Gaussian 16, Revision A.03,
 Gaussian 16:  ES64L-G16RevA.03 25-Dec-2016

 --------------------------------
 #p wB97XD/Def2SVP td=(nstates=5)
 --------------------------------

 -----------------------------------------------------
 step_1051_chromophore_11 TDDFT with wB97XD functional
 -----------------------------------------------------
 Symbolic Z-matrix:
 Charge =  0 Multiplicity = 1

                         Standard orientation:
 ---------------------------------------------------------------------
 Center     Atomic      Atomic             Coordinates (Angstroms)
 Number     Number       Type             X           Y           Z
 ---------------------------------------------------------------------
      1         12           0       -4.953640    1.298441    0.741878
      2          6           0       -5.335640   -2.114552    0.315398
      3          6           0       -2.434302    0.485704    3.017839
      4          6           0       -3.921242    4.510208    0.476089
      5          6           0       -7.128551    1.788649   -2.043771
      6          7           0       -3.949547   -0.704658    1.517254
      7          6           0       -4.350205   -1.954804    1.203648
      8          6           0       -3.492300   -2.947379    1.963926
      9          6           0       -2.927741   -2.081168    3.210160
     10          6           0       -3.132036   -0.618448    2.610316
     11          6           0       -3.688380   -2.143818    4.557634
     12          6           0       -2.460041   -3.957509    1.309092
     13          6           0       -1.449918   -3.203572    0.479341
     14          6           0       -0.390869   -4.139853   -0.242557
     15          8           0       -0.431017   -4.599060   -1.381221
     16          8           0        0.665443   -4.397308    0.633852
     17          7           0       -3.401262    2.342271    1.598715
     18          6           0       -2.466602    1.883731    2.525896
     19          6           0       -1.582360    2.909333    2.892799
     20          6           0       -2.006632    4.087508    2.228857
     21          6           0       -3.240121    3.717607    1.417725
     22          6           0       -0.456327    2.649813    3.845127
     23          6           0       -1.290457    5.533999    2.383345
     24          8           0       -0.440022    5.752356    3.197509
     25          6           0       -1.893519    6.796525    1.815553
     26          7           0       -5.332400    2.857118   -0.601220
     27          6           0       -4.898797    4.147136   -0.505895
     28          6           0       -5.599933    5.168227   -1.446094
     29          6           0       -6.443257    4.166174   -2.345437
     30          6           0       -6.281103    2.842588   -1.628885
     31          6           0       -6.395325    6.243589   -0.550055
     32          6           0       -5.865762    4.129593   -3.794689
     33          6           0       -6.777564    4.742923   -4.826286
     34          7           0       -6.232337    0.157471   -0.469522
     35          6           0       -7.115255    0.481634   -1.488934
     36          6           0       -7.934181   -0.666562   -1.809590
     37          6           0       -7.228825   -1.747993   -1.261032
     38          6           0       -6.176801   -1.212507   -0.427971
     39          6           0       -9.090460   -0.781561   -2.783973
     40          6           0       -7.099155   -3.193712   -1.211210
     41          8           0       -7.765609   -4.064182   -1.742358
     42          6           0       -5.919028   -3.419802   -0.196151
     43          6           0       -4.916125   -4.224586   -0.936409
     44          8           0       -4.096138   -3.832291   -1.715371
     45          8           0       -5.029380   -5.568836   -0.667450
     46          6           0       -4.060509   -6.504021   -1.278932
     47          6           0        1.897768   -4.927077    0.099276
     48          6           0        3.011197   -3.915580    0.089442
     49          6           0        4.054059   -3.705515    0.907064
     50          6           0        4.352183   -4.537196    2.068151
     51          6           0        4.957092   -2.432988    0.713125
     52          6           0        5.577793   -2.040031   -0.656721
     53          6           0        6.785931   -1.164397   -0.536768
     54          6           0        6.451770    0.312663   -0.945261
     55          6           0        6.498367    0.426341   -2.467022
     56          6           0        7.351721    1.336499   -0.290523
     57          6           0        8.788015    1.414393   -0.832797
     58          6           0        9.838893    1.905454    0.209937
     59          6           0       10.668753    0.795210    0.790014
     60          6           0       10.425525    0.682958    2.296184
     61          6           0       12.185189    1.061306    0.506306
     62          6           0       12.616371    0.297059   -0.821542
     63          6           0       13.541187    1.112226   -1.776229
     64          6           0       15.097771    0.623301   -1.784735
     65          6           0       16.080591    1.680921   -1.091614
     66          6           0       15.604139    0.284362   -3.240180
     67          1           0       -1.755942    0.326185    3.858190
     68          1           0       -3.696305    5.561890    0.287668
     69          1           0       -7.884475    1.999069   -2.802470
     70          1           0       -4.190511   -3.685735    2.358781
     71          1           0       -1.847754   -2.211828    3.282592
     72          1           0       -3.333741   -1.401084    5.272577
     73          1           0       -3.574535   -3.138025    4.990294
     74          1           0       -4.751133   -1.909426    4.495867
     75          1           0       -2.814460   -4.872683    0.834745
     76          1           0       -1.959172   -4.316343    2.207682
     77          1           0       -0.878856   -2.414642    0.969345
     78          1           0       -1.938782   -2.659923   -0.329515
     79          1           0        0.448586    3.003144    3.351725
     80          1           0       -0.330645    1.649739    4.260025
     81          1           0       -0.717897    3.298464    4.680945
     82          1           0       -1.481615    7.707802    2.249436
     83          1           0       -2.932348    6.672774    2.122082
     84          1           0       -1.740665    6.685270    0.741985
     85          1           0       -4.961692    5.829536   -2.032086
     86          1           0       -7.479416    4.502471   -2.357044
     87          1           0       -7.440424    6.192149   -0.855953
     88          1           0       -6.119405    7.285866   -0.711751
     89          1           0       -6.425604    6.019079    0.516580
     90          1           0       -5.766140    3.107748   -4.159282
     91          1           0       -4.872075    4.573366   -3.863448
     92          1           0       -7.292761    4.016971   -5.455031
     93          1           0       -6.140295    5.392724   -5.426860
     94          1           0       -7.524428    5.334851   -4.296792
     95          1           0       -9.200500   -1.849379   -2.975553
     96          1           0       -8.872042   -0.348323   -3.759938
     97          1           0       -9.988333   -0.329222   -2.363511
     98          1           0       -6.175169   -4.049896    0.655690
     99          1           0       -4.552272   -7.474822   -1.224003
    100          1           0       -3.116834   -6.617898   -0.744934
    101          1           0       -3.877805   -6.208716   -2.311678
    102          1           0        1.764316   -5.279500   -0.923570
    103          1           0        2.080527   -5.804686    0.719516
    104          1           0        2.808141   -3.188360   -0.696323
    105          1           0        5.260192   -5.095245    1.836536
    106          1           0        3.503484   -5.194226    2.259278
    107          1           0        4.450468   -4.026511    3.026317
    108          1           0        5.736811   -2.379357    1.472246
    109          1           0        4.392349   -1.538691    0.979226
    110          1           0        4.864730   -1.452296   -1.233809
    111          1           0        5.752194   -3.034018   -1.069750
    112          1           0        7.603988   -1.571637   -1.130495
    113          1           0        7.172403   -1.037322    0.474655
    114          1           0        5.492378    0.656128   -0.560069
    115          1           0        5.512544    0.151694   -2.842384
    116          1           0        7.131973   -0.313993   -2.956539
    117          1           0        6.833972    1.405907   -2.807116
    118          1           0        7.282134    0.996326    0.743417
    119          1           0        6.984235    2.357976   -0.190132
    120          1           0        8.777075    2.116227   -1.666811
    121          1           0        9.059678    0.433207   -1.223801
    122          1           0        9.336437    2.420457    1.028961
    123          1           0       10.422196    2.684174   -0.281194
    124          1           0       10.323211   -0.155693    0.384903
    125          1           0       10.478640    1.633576    2.826691
    126          1           0       11.202238    0.046331    2.719638
    127          1           0        9.453019    0.225562    2.479555
    128          1           0       12.833242    0.713922    1.310819
    129          1           0       12.408282    2.124565    0.407421
    130          1           0       11.713845    0.035174   -1.374926
    131          1           0       13.124089   -0.626390   -0.541340
    132          1           0       13.517392    2.122586   -1.367778
    133          1           0       13.148504    1.083945   -2.792446
    134          1           0       15.087213   -0.351501   -1.297035
    135          1           0       17.092837    1.365918   -1.344234
    136          1           0       16.009284    1.552807   -0.010746
    137          1           0       15.915097    2.733245   -1.321661
    138          1           0       14.738799   -0.028173   -3.826089
    139          1           0       16.324649   -0.525746   -3.129174
    140          1           0       16.209220    1.102309   -3.632803
 ---------------------------------------------------------------------

 SCF Done:  E(RwB97XD) =  -3007.85354301     A.U. after   20 cycles

 Excitation energies and oscillator strengths:

 Excited State   1:      Singlet-A      1.6327 eV  759.40 nm  f=0.3644  <S**2>=0.000
     245 -> 248       -0.18443
     246 -> 247        0.68208
     245 <- 248       -0.11757
 This state for optimization and/or second-order correction.
 Total Energy, E(TD-HF/TD-DFT) =  -3007.79354364
 Copying the excited state density for this state as the 1-particle RhoCI density.

 Excited State   2:      Singlet-A      2.1238 eV  583.79 nm  f=0.1169  <S**2>=0.000
     245 -> 247        0.64126
     246 -> 248        0.28045

 Excited State   3:      Singlet-A      3.2961 eV  376.16 nm  f=0.0015  <S**2>=0.000
     241 -> 247       -0.30174
     242 -> 247        0.22839
     244 -> 247        0.57108

 Excited State   4:      Singlet-A      3.4184 eV  362.70 nm  f=0.0730  <S**2>=0.000
     241 -> 247       -0.32164
     242 -> 247        0.38111
     244 -> 247       -0.29954
     246 -> 248       -0.35898

 Excited State   5:      Singlet-A      3.5708 eV  347.22 nm  f=0.0381  <S**2>=0.000
     240 -> 247       -0.11202
     241 -> 247        0.34760
     241 -> 248       -0.11074
     241 -> 249        0.13172
     241 -> 251        0.18327
     242 -> 247        0.41284
     242 -> 248       -0.12031
     242 -> 249        0.13537
     242 -> 251        0.19582
     246 -> 248        0.13454

 The electronic state is 1-A.
 Alpha  occ. eigenvalues --  -46.95686 -19.28892 -19.28559 -19.24437 -19.24236
 Alpha  occ. eigenvalues --  -19.24070 -19.23485 -14.47695 -14.46006 -14.44787
 Alpha  occ. eigenvalues --  -14.43920 -10.42883 -10.41701 -10.39379 -10.39219
 Alpha  occ. eigenvalues --  -10.36187 -10.35836 -10.35256 -10.34975 -10.34770
 Alpha  occ. eigenvalues --  -10.34604 -10.34577 -10.34451 -10.33730 -10.33619
 Alpha  occ. eigenvalues --  -10.33521 -10.33337 -10.32996 -10.32474 -10.32397
 Alpha  occ. eigenvalues --  -10.32223 -10.32083 -10.31901 -10.31748 -10.31735
 Alpha  occ. eigenvalues --  -10.31692 -10.31561 -10.31440 -10.31368 -10.30995
 Alpha  occ. eigenvalues --  -10.30868 -10.30793 -10.30263 -10.30189 -10.29972
 Alpha  occ. eigenvalues --  -10.29971 -10.29823 -10.29559 -10.29475 -10.29367
 Alpha  occ. eigenvalues --  -10.29326 -10.29239 -10.29025 -10.28989 -10.28949
 Alpha  occ. eigenvalues --  -10.28805 -10.28656 -10.28607 -10.28606 -10.28573
 Alpha  occ. eigenvalues --  -10.28372 -10.28099 -10.28006 -10.27942 -10.27773
 Alpha  occ. eigenvalues --  -10.27719  -3.21629  -1.95186  -1.94770  -1.94581
 Alpha  occ. eigenvalues --   -1.17722  -1.16923  -1.13870  -1.12244  -1.08932
 Alpha  occ. eigenvalues --   -1.08865  -1.05945  -1.05436  -1.04551  -1.03811
 Alpha  occ. eigenvalues --   -0.94626  -0.92488  -0.91474  -0.91445  -0.90875
 Alpha  occ. eigenvalues --   -0.90337  -0.90246  -0.89445  -0.88530  -0.88007
 Alpha  occ. eigenvalues --   -0.87893  -0.86803  -0.86176  -0.85906  -0.85318
 Alpha  occ. eigenvalues --   -0.83947  -0.83634  -0.83085  -0.82606  -0.82391
 Alpha  occ. eigenvalues --   -0.81556  -0.79966  -0.79699  -0.79093  -0.77756
 Alpha  occ. eigenvalues --   -0.77366  -0.77242  -0.76762  -0.76629  -0.75538
 Alpha  occ. eigenvalues --   -0.75433  -0.74702  -0.73621  -0.72586  -0.70998
 Alpha  occ. eigenvalues --   -0.70898  -0.70483  -0.68629  -0.68177  -0.67738
 Alpha  occ. eigenvalues --   -0.67468  -0.67379  -0.66535  -0.66259  -0.65406
 Alpha  occ. eigenvalues --   -0.65173  -0.64256  -0.63329  -0.63173  -0.62271
 Alpha  occ. eigenvalues --   -0.61371  -0.61116  -0.60963  -0.60229  -0.59790
 Alpha  occ. eigenvalues --   -0.59288  -0.58914  -0.58404  -0.57755  -0.57199
 Alpha  occ. eigenvalues --   -0.56980  -0.56042  -0.55846  -0.55454  -0.55395
 Alpha  occ. eigenvalues --   -0.55325  -0.54786  -0.54751  -0.54688  -0.54563
 Alpha  occ. eigenvalues --   -0.54388  -0.54176  -0.53963  -0.53638  -0.53401
 Alpha  occ. eigenvalues --   -0.53339  -0.53108  -0.52906  -0.52717  -0.52394
 Alpha  occ. eigenvalues --   -0.52275  -0.51967  -0.51949  -0.51688  -0.51444
 Alpha  occ. eigenvalues --   -0.51380  -0.51263  -0.51036  -0.50944  -0.50814
 Alpha  occ. eigenvalues --   -0.50778  -0.50479  -0.50208  -0.49900  -0.49620
 Alpha  occ. eigenvalues --   -0.49281  -0.49160  -0.48780  -0.48659  -0.48474
 Alpha  occ. eigenvalues --   -0.48178  -0.48088  -0.47965  -0.47800  -0.47535
 Alpha  occ. eigenvalues --   -0.47269  -0.47118  -0.47052  -0.46856  -0.46730
 Alpha  occ. eigenvalues --   -0.46544  -0.46283  -0.46259  -0.46067  -0.46055
 Alpha  occ. eigenvalues --   -0.45720  -0.45416  -0.45304  -0.45264  -0.44847
 Alpha  occ. eigenvalues --   -0.44825  -0.44639  -0.44428  -0.44269  -0.44102
 Alpha  occ. eigenvalues --   -0.43776  -0.43512  -0.43051  -0.42960  -0.42737
 Alpha  occ. eigenvalues --   -0.42460  -0.42352  -0.42282  -0.42021  -0.41777
 Alpha  occ. eigenvalues --   -0.41564  -0.41431  -0.41291  -0.40889  -0.40714
 Alpha  occ. eigenvalues --   -0.40372  -0.40208  -0.39704  -0.39294  -0.39122
 Alpha  occ. eigenvalues --   -0.39106  -0.38784  -0.38696  -0.38131  -0.38053
 Alpha  occ. eigenvalues --   -0.37632  -0.36863  -0.36606  -0.36281  -0.35591
 Alpha  occ. eigenvalues --   -0.35536  -0.35355  -0.34916  -0.33848  -0.33043
 Alpha  occ. eigenvalues --   -0.32396  -0.32192  -0.32072  -0.31901  -0.26099
 Alpha  occ. eigenvalues --   -0.23325
 Alpha virt. eigenvalues --   -0.07441  -0.00181   0.02635   0.04470   0.04787
 Alpha virt. eigenvalues --    0.06604   0.07620   0.08624   0.08871   0.09760
 Alpha virt. eigenvalues --    0.10870   0.11536   0.11797   0.12514   0.12875

 Mulliken charges:
               1
     1  Mg   0.958266
     2  C    0.085344
     3  C   -0.062165
     4  C   -0.082421
     5  C   -0.089591
     6  N   -0.321305
     7  C   -0.051494
     8  C   -0.015708
     9  C   -0.111537
    10  C    0.030633
    11  C    0.037269
    12  C    0.030737
    13  C    0.002010
    14  C    0.208156
    15  O   -0.250475
    16  O   -0.380814
    17  N   -0.494907
    18  C    0.155200
    19  C   -0.172860
    20  C   -0.135625
    21  C    0.237917
    22  C    0.090530
    23  C    0.056580
    24  O   -0.211336
    25  C   -0.010305
    26  N   -0.377846
    27  C    0.016755
    28  C   -0.088610
    29  C   -0.080892
    30  C    0.107809
    31  C   -0.008270
    32  C   -0.012361
    33  C   -0.052377
    34  N   -0.451741
    35  C    0.123862
    36  C   -0.180168
    37  C   -0.029377
    38  C    0.116291
    39  C    0.064174
    40  C    0.153538
    41  O   -0.193851
    42  C   -0.121148
    43  C    0.222150
    44  O   -0.220714
    45  O   -0.379984
    46  C    0.135880
    47  C    0.253939
    48  C   -0.143570
    49  C   -0.164970
    50  C    0.035208
    51  C    0.012013
    52  C   -0.000704
    53  C    0.013106
    54  C   -0.194603
    55  C    0.016402
    56  C   -0.020013
    57  C   -0.048246
    58  C    0.063088
    59  C   -0.188244
    60  C   -0.003474
    61  C    0.008204
    62  C   -0.047440
    63  C    0.002910
    64  C   -0.212044
    65  C   -0.020100
    66  C   -0.022089
    67  H   -0.006177
    68  H   -0.013610
    69  H    0.005622
    70  H    0.019657
    71  H    0.039648
    72  H    0.037946
    73  H    0.044349
    74  H    0.036895
    75  H    0.041841
    76  H    0.033623
    77  H    0.046933
    78  H    0.071162
    79  H    0.063161
    80  H    0.034633
    81  H    0.058521
    82  H    0.063494
    83  H    0.057331
    84  H    0.058472
    85  H    0.045268
    86  H    0.036154
    87  H    0.024885
    88  H    0.045465
    89  H    0.049383
    90  H    0.039587
    91  H    0.035713
    92  H    0.046834
    93  H    0.037959
    94  H    0.023482
    95  H    0.059550
    96  H    0.046140
    97  H    0.051549
    98  H    0.062675
    99  H    0.050661
   100  H    0.051752
   101  H    0.072706
   102  H    0.049623
   103  H    0.026767
   104  H    0.018936
   105  H    0.052556
   106  H    0.025846
   107  H    0.044566
   108  H    0.003766
   109  H    0.027887
   110  H    0.031643
   111  H    0.025926
   112  H    0.027621
   113  H    0.006666
   114  H    0.019850
   115  H    0.027437
   116  H    0.018184
   117  H    0.031629
   118  H    0.000496
   119  H    0.019407
   120  H    0.019123
   121  H    0.015651
   122  H    0.009637
   123  H    0.011611
   124  H    0.023354
   125  H    0.027067
   126  H    0.020545
   127  H    0.025595
   128  H    0.012071
   129  H    0.016968
   130  H    0.023247
   131  H    0.024499
   132  H    0.012737
   133  H    0.021031
   134  H    0.024340
   135  H    0.026957
   136  H    0.028032
   137  H    0.046047
   138  H    0.036377
   139  H    0.026180
   140  H    0.032270
 Sum of Mulliken charges =  -0.00000

 Dipole moment (field-independent basis, Debye):
    X=             -0.3444    Y=              3.9316    Z=              2.8963  Tot=              4.8953
 Quadrupole moment (field-independent basis, Debye-Ang):
   XX=           -390.3764   YY=           -391.1962   ZZ=           -400.3548
   XY=            -53.7863   XZ=             -6.5896   YZ=            -38.5912

 Normal termination of Gaussian 16 at Wed Apr 27 02:35:03 2022.
