 Gaussian 16, Revision A.03,
 Gaussian 16:  ES64L-G16RevA.03 25-Dec-2016

 --------------------
 #p ZINDO=(nstates=5)
 --------------------

 ------------------------------
 step_1051_chromophore_11 ZINDO
 ------------------------------
 Symbolic Z-matrix:
 Charge =  0 Multiplicity = 1

                         Standard orientation:
 ---------------------------------------------------------------------
 Center     Atomic      Atomic             Coordinates (Angstroms)
 Number     Number       Type             X           Y           Z
 ---------------------------------------------------------------------
      1         12           0       -4.953640    1.298441    0.741878
      2          6           0       -5.335640   -2.114552    0.315398
      3          6           0       -2.434302    0.485704    3.017839
      4          6           0       -3.921242    4.510208    0.476089
      5          6           0       -7.128551    1.788649   -2.043771
      6          7           0       -3.949547   -0.704658    1.517254
      7          6           0       -4.350205   -1.954804    1.203648
      8          6           0       -3.492300   -2.947379    1.963926
      9          6           0       -2.927741   -2.081168    3.210160
     10          6           0       -3.132036   -0.618448    2.610316
     11          6           0       -3.688380   -2.143818    4.557634
     12          6           0       -2.460041   -3.957509    1.309092
     13          6           0       -1.449918   -3.203572    0.479341
     14          6           0       -0.390869   -4.139853   -0.242557
     15          8           0       -0.431017   -4.599060   -1.381221
     16          8           0        0.665443   -4.397308    0.633852
     17          7           0       -3.401262    2.342271    1.598715
     18          6           0       -2.466602    1.883731    2.525896
     19          6           0       -1.582360    2.909333    2.892799
     20          6           0       -2.006632    4.087508    2.228857
     21          6           0       -3.240121    3.717607    1.417725
     22          6           0       -0.456327    2.649813    3.845127
     23          6           0       -1.290457    5.533999    2.383345
     24          8           0       -0.440022    5.752356    3.197509
     25          6           0       -1.893519    6.796525    1.815553
     26          7           0       -5.332400    2.857118   -0.601220
     27          6           0       -4.898797    4.147136   -0.505895
     28          6           0       -5.599933    5.168227   -1.446094
     29          6           0       -6.443257    4.166174   -2.345437
     30          6           0       -6.281103    2.842588   -1.628885
     31          6           0       -6.395325    6.243589   -0.550055
     32          6           0       -5.865762    4.129593   -3.794689
     33          6           0       -6.777564    4.742923   -4.826286
     34          7           0       -6.232337    0.157471   -0.469522
     35          6           0       -7.115255    0.481634   -1.488934
     36          6           0       -7.934181   -0.666562   -1.809590
     37          6           0       -7.228825   -1.747993   -1.261032
     38          6           0       -6.176801   -1.212507   -0.427971
     39          6           0       -9.090460   -0.781561   -2.783973
     40          6           0       -7.099155   -3.193712   -1.211210
     41          8           0       -7.765609   -4.064182   -1.742358
     42          6           0       -5.919028   -3.419802   -0.196151
     43          6           0       -4.916125   -4.224586   -0.936409
     44          8           0       -4.096138   -3.832291   -1.715371
     45          8           0       -5.029380   -5.568836   -0.667450
     46          6           0       -4.060509   -6.504021   -1.278932
     47          6           0        1.897768   -4.927077    0.099276
     48          6           0        3.011197   -3.915580    0.089442
     49          6           0        4.054059   -3.705515    0.907064
     50          6           0        4.352183   -4.537196    2.068151
     51          6           0        4.957092   -2.432988    0.713125
     52          6           0        5.577793   -2.040031   -0.656721
     53          6           0        6.785931   -1.164397   -0.536768
     54          6           0        6.451770    0.312663   -0.945261
     55          6           0        6.498367    0.426341   -2.467022
     56          6           0        7.351721    1.336499   -0.290523
     57          6           0        8.788015    1.414393   -0.832797
     58          6           0        9.838893    1.905454    0.209937
     59          6           0       10.668753    0.795210    0.790014
     60          6           0       10.425525    0.682958    2.296184
     61          6           0       12.185189    1.061306    0.506306
     62          6           0       12.616371    0.297059   -0.821542
     63          6           0       13.541187    1.112226   -1.776229
     64          6           0       15.097771    0.623301   -1.784735
     65          6           0       16.080591    1.680921   -1.091614
     66          6           0       15.604139    0.284362   -3.240180
     67          1           0       -1.755942    0.326185    3.858190
     68          1           0       -3.696305    5.561890    0.287668
     69          1           0       -7.884475    1.999069   -2.802470
     70          1           0       -4.190511   -3.685735    2.358781
     71          1           0       -1.847754   -2.211828    3.282592
     72          1           0       -3.333741   -1.401084    5.272577
     73          1           0       -3.574535   -3.138025    4.990294
     74          1           0       -4.751133   -1.909426    4.495867
     75          1           0       -2.814460   -4.872683    0.834745
     76          1           0       -1.959172   -4.316343    2.207682
     77          1           0       -0.878856   -2.414642    0.969345
     78          1           0       -1.938782   -2.659923   -0.329515
     79          1           0        0.448586    3.003144    3.351725
     80          1           0       -0.330645    1.649739    4.260025
     81          1           0       -0.717897    3.298464    4.680945
     82          1           0       -1.481615    7.707802    2.249436
     83          1           0       -2.932348    6.672774    2.122082
     84          1           0       -1.740665    6.685270    0.741985
     85          1           0       -4.961692    5.829536   -2.032086
     86          1           0       -7.479416    4.502471   -2.357044
     87          1           0       -7.440424    6.192149   -0.855953
     88          1           0       -6.119405    7.285866   -0.711751
     89          1           0       -6.425604    6.019079    0.516580
     90          1           0       -5.766140    3.107748   -4.159282
     91          1           0       -4.872075    4.573366   -3.863448
     92          1           0       -7.292761    4.016971   -5.455031
     93          1           0       -6.140295    5.392724   -5.426860
     94          1           0       -7.524428    5.334851   -4.296792
     95          1           0       -9.200500   -1.849379   -2.975553
     96          1           0       -8.872042   -0.348323   -3.759938
     97          1           0       -9.988333   -0.329222   -2.363511
     98          1           0       -6.175169   -4.049896    0.655690
     99          1           0       -4.552272   -7.474822   -1.224003
    100          1           0       -3.116834   -6.617898   -0.744934
    101          1           0       -3.877805   -6.208716   -2.311678
    102          1           0        1.764316   -5.279500   -0.923570
    103          1           0        2.080527   -5.804686    0.719516
    104          1           0        2.808141   -3.188360   -0.696323
    105          1           0        5.260192   -5.095245    1.836536
    106          1           0        3.503484   -5.194226    2.259278
    107          1           0        4.450468   -4.026511    3.026317
    108          1           0        5.736811   -2.379357    1.472246
    109          1           0        4.392349   -1.538691    0.979226
    110          1           0        4.864730   -1.452296   -1.233809
    111          1           0        5.752194   -3.034018   -1.069750
    112          1           0        7.603988   -1.571637   -1.130495
    113          1           0        7.172403   -1.037322    0.474655
    114          1           0        5.492378    0.656128   -0.560069
    115          1           0        5.512544    0.151694   -2.842384
    116          1           0        7.131973   -0.313993   -2.956539
    117          1           0        6.833972    1.405907   -2.807116
    118          1           0        7.282134    0.996326    0.743417
    119          1           0        6.984235    2.357976   -0.190132
    120          1           0        8.777075    2.116227   -1.666811
    121          1           0        9.059678    0.433207   -1.223801
    122          1           0        9.336437    2.420457    1.028961
    123          1           0       10.422196    2.684174   -0.281194
    124          1           0       10.323211   -0.155693    0.384903
    125          1           0       10.478640    1.633576    2.826691
    126          1           0       11.202238    0.046331    2.719638
    127          1           0        9.453019    0.225562    2.479555
    128          1           0       12.833242    0.713922    1.310819
    129          1           0       12.408282    2.124565    0.407421
    130          1           0       11.713845    0.035174   -1.374926
    131          1           0       13.124089   -0.626390   -0.541340
    132          1           0       13.517392    2.122586   -1.367778
    133          1           0       13.148504    1.083945   -2.792446
    134          1           0       15.087213   -0.351501   -1.297035
    135          1           0       17.092837    1.365918   -1.344234
    136          1           0       16.009284    1.552807   -0.010746
    137          1           0       15.915097    2.733245   -1.321661
    138          1           0       14.738799   -0.028173   -3.826089
    139          1           0       16.324649   -0.525746   -3.129174
    140          1           0       16.209220    1.102309   -3.632803
 ---------------------------------------------------------------------

 SCF Done:  E(RZINDO/S) =  -474.027135870     A.U. after   20 cycles

 Excitation energies and oscillator strengths:

 Excited State   1:      Singlet-A      1.2255 eV 1011.72 nm  f=0.5937  <S**2>=0.000
     175 ->178         0.18792
     176 ->177         0.66231
 This state for optimization and/or second-order correction.
 Total Energy, E(CIS/TDA) =  -473.982100283
 Copying the excited state density for this state as the 1-particle RhoCI density.

 Excited State   2:      Singlet-A      1.8850 eV  657.73 nm  f=0.0509  <S**2>=0.000
     175 ->177         0.55162
     176 ->178        -0.41532

 Excited State   3:      Singlet-A      2.8907 eV  428.90 nm  f=0.0006  <S**2>=0.000
     168 ->181        -0.14669
     169 ->177         0.23842
     169 ->178         0.18615
     169 ->179        -0.22505
     169 ->181        -0.37092
     169 ->182         0.12935
     169 ->183        -0.18044
     169 ->184        -0.15091
     169 ->185         0.12898
     169 ->188         0.14019

 Excited State   4:      Singlet-A      2.9651 eV  418.15 nm  f=0.8674  <S**2>=0.000
     168 ->179        -0.10813
     173 ->177         0.16471
     175 ->177         0.35008
     176 ->178         0.47888
     176 ->179         0.17665

 Excited State   5:      Singlet-A      2.9991 eV  413.40 nm  f=0.3319  <S**2>=0.000
     168 ->177        -0.20066
     168 ->179        -0.27732
     168 ->181         0.11215
     168 ->187         0.10772
     169 ->179         0.10310
     170 ->179        -0.14784
     175 ->177        -0.17419
     176 ->178        -0.25745
     176 ->179         0.34204

 The electronic state is 1-A.
 Alpha  occ. eigenvalues --   -1.82775  -1.79037  -1.78310  -1.72227  -1.71066
 Alpha  occ. eigenvalues --   -1.69354  -1.67031  -1.60950  -1.60180  -1.57719
 Alpha  occ. eigenvalues --   -1.52638  -1.50312  -1.48837  -1.48733  -1.46138
 Alpha  occ. eigenvalues --   -1.43526  -1.42285  -1.39362  -1.38448  -1.38064
 Alpha  occ. eigenvalues --   -1.35359  -1.32818  -1.32584  -1.30780  -1.29020
 Alpha  occ. eigenvalues --   -1.26761  -1.26204  -1.22595  -1.20200  -1.18098
 Alpha  occ. eigenvalues --   -1.16957  -1.14897  -1.14364  -1.14164  -1.13095
 Alpha  occ. eigenvalues --   -1.12633  -1.10135  -1.08578  -1.05050  -1.03230
 Alpha  occ. eigenvalues --   -1.02308  -1.01123  -1.00312  -0.98533  -0.97229
 Alpha  occ. eigenvalues --   -0.95167  -0.94863  -0.93918  -0.92977  -0.92289
 Alpha  occ. eigenvalues --   -0.90407  -0.89686  -0.88060  -0.87976  -0.86135
 Alpha  occ. eigenvalues --   -0.84991  -0.84734  -0.83841  -0.81703  -0.79764
 Alpha  occ. eigenvalues --   -0.78973  -0.78177  -0.78099  -0.76816  -0.76521
 Alpha  occ. eigenvalues --   -0.76061  -0.75594  -0.74545  -0.73578  -0.73116
 Alpha  occ. eigenvalues --   -0.72892  -0.72555  -0.71269  -0.70606  -0.70292
 Alpha  occ. eigenvalues --   -0.70001  -0.69380  -0.69201  -0.68387  -0.67461
 Alpha  occ. eigenvalues --   -0.67121  -0.66419  -0.66326  -0.66158  -0.65458
 Alpha  occ. eigenvalues --   -0.65175  -0.64810  -0.64272  -0.63946  -0.63375
 Alpha  occ. eigenvalues --   -0.63227  -0.63062  -0.62881  -0.62604  -0.62256
 Alpha  occ. eigenvalues --   -0.61787  -0.61697  -0.60874  -0.60364  -0.59741
 Alpha  occ. eigenvalues --   -0.59452  -0.58646  -0.58513  -0.58232  -0.58080
 Alpha  occ. eigenvalues --   -0.57323  -0.57104  -0.56821  -0.56629  -0.56337
 Alpha  occ. eigenvalues --   -0.56029  -0.55982  -0.55594  -0.54914  -0.54577
 Alpha  occ. eigenvalues --   -0.54177  -0.54009  -0.53806  -0.53207  -0.52831
 Alpha  occ. eigenvalues --   -0.52299  -0.52014  -0.51862  -0.51504  -0.51420
 Alpha  occ. eigenvalues --   -0.51260  -0.50950  -0.50633  -0.50450  -0.49678
 Alpha  occ. eigenvalues --   -0.49239  -0.49064  -0.48875  -0.48804  -0.48615
 Alpha  occ. eigenvalues --   -0.48465  -0.48325  -0.48170  -0.48019  -0.47688
 Alpha  occ. eigenvalues --   -0.47469  -0.47243  -0.46687  -0.46533  -0.46332
 Alpha  occ. eigenvalues --   -0.45994  -0.45794  -0.45697  -0.45505  -0.45235
 Alpha  occ. eigenvalues --   -0.45011  -0.44919  -0.44842  -0.44628  -0.44176
 Alpha  occ. eigenvalues --   -0.44108  -0.43693  -0.43452  -0.42711  -0.41950
 Alpha  occ. eigenvalues --   -0.41102  -0.41067  -0.40637  -0.38914  -0.38112
 Alpha  occ. eigenvalues --   -0.37563  -0.37345  -0.35252  -0.35082  -0.34362
 Alpha  occ. eigenvalues --   -0.33439  -0.33094  -0.32535  -0.32451  -0.26858
 Alpha  occ. eigenvalues --   -0.22013
 Alpha virt. eigenvalues --   -0.08894  -0.02442  -0.00379   0.00995   0.01267
 Alpha virt. eigenvalues --    0.02595   0.02773   0.03724   0.04312   0.04965
 Alpha virt. eigenvalues --    0.06354   0.06771   0.07209   0.07271   0.07833

 Mulliken charges:
               1
     1  Mg   0.432991
     2  C   -0.032419
     3  C   -0.084356
     4  C   -0.078391
     5  C   -0.065023
     6  N   -0.311526
     7  C    0.142076
     8  C    0.005084
     9  C   -0.001151
    10  C    0.131100
    11  C   -0.040834
    12  C   -0.005987
    13  C    0.014234
    14  C    0.452484
    15  O   -0.500632
    16  O   -0.283744
    17  N   -0.326222
    18  C    0.117094
    19  C    0.043266
    20  C   -0.058004
    21  C    0.121291
    22  C   -0.038667
    23  C    0.312965
    24  O   -0.500854
    25  C   -0.024372
    26  N   -0.258291
    27  C    0.140094
    28  C   -0.003946
    29  C    0.006081
    30  C    0.107647
    31  C   -0.059687
    32  C   -0.027942
    33  C   -0.057399
    34  N   -0.328972
    35  C    0.094868
    36  C    0.028731
    37  C   -0.051381
    38  C    0.107075
    39  C   -0.039467
    40  C    0.342571
    41  O   -0.510779
    42  C    0.052684
    43  C    0.487150
    44  O   -0.521516
    45  O   -0.287842
    46  C    0.076159
    47  C    0.111446
    48  C   -0.079043
    49  C    0.003861
    50  C   -0.036770
    51  C   -0.035341
    52  C   -0.027653
    53  C   -0.026515
    54  C   -0.008191
    55  C   -0.057402
    56  C   -0.036984
    57  C   -0.037737
    58  C   -0.031764
    59  C   -0.003845
    60  C   -0.057120
    61  C   -0.037555
    62  C   -0.044223
    63  C   -0.046161
    64  C   -0.028506
    65  C   -0.056686
    66  C   -0.063648
    67  H    0.025669
    68  H    0.026049
    69  H    0.032218
    70  H    0.009262
    71  H    0.034780
    72  H    0.021409
    73  H    0.017656
    74  H    0.025962
    75  H    0.053307
    76  H    0.013131
    77  H    0.038380
    78  H    0.044305
    79  H    0.039693
    80  H    0.029728
    81  H    0.035436
    82  H    0.047142
    83  H    0.036899
    84  H    0.037626
    85  H    0.038071
    86  H    0.035989
    87  H    0.012691
    88  H    0.025601
    89  H    0.027847
    90  H    0.021031
    91  H    0.024607
    92  H    0.025550
    93  H    0.017879
    94  H    0.015854
    95  H    0.034152
    96  H    0.029247
    97  H    0.033343
    98  H    0.047287
    99  H    0.027993
   100  H    0.042092
   101  H    0.056495
   102  H    0.051912
   103  H    0.029277
   104  H    0.023839
   105  H    0.032182
   106  H    0.017201
   107  H    0.027024
   108  H    0.014562
   109  H    0.016475
   110  H    0.028413
   111  H    0.021066
   112  H    0.021340
   113  H    0.016545
   114  H    0.019952
   115  H    0.012230
   116  H    0.016004
   117  H    0.020531
   118  H    0.004212
   119  H    0.017064
   120  H    0.015312
   121  H    0.020996
   122  H    0.016355
   123  H    0.014894
   124  H    0.025971
   125  H    0.019847
   126  H    0.009647
   127  H    0.014439
   128  H    0.015611
   129  H    0.024465
   130  H    0.017858
   131  H    0.020468
   132  H    0.020191
   133  H    0.023932
   134  H    0.025263
   135  H    0.016258
   136  H    0.012504
   137  H    0.031611
   138  H    0.026980
   139  H    0.013050
   140  H    0.023736
 Sum of Mulliken charges =  -0.00000

 Dipole moment (field-independent basis, Debye):
    X=             -1.1703    Y=              5.4359    Z=              4.7892  Tot=              7.3386
 N-N= 4.352695261825D+03 E-N= 0.000000000000D+00  KE=-9.379904576581D+03
 Leave Link  601 at Wed Apr 27 02:47:59 2022, MaxMem=  6710886400 cpu:               0.8 elap:               0.1
 (Enter /sw/apps/gaussian-16.0/g16/l9999.exe)
 1\1\GINC-BP1-COMPUTE148\SP\RZINDO CIS\STO-3G\C55H74Mg1N4O6\OF15641\27-
 Apr-2022\0\\#p ZINDO=(nstates=5)\\step_1051_chromophore_11 ZINDO\\0,1\
 Mg,0,52.888,23.815,45.1\C,0,50.121,25.777,44.414\C,0,50.986,21.143,43.
 904\C,0,55.789,22.09,44.854\C,0,54.741,26.808,45.682\N,0,50.724,23.557
 ,44.166\C,0,49.796,24.531,44.057\C,0,48.529,23.935,43.475\C,0,48.665,2
 2.357,43.812\C,0,50.242,22.284,44.033\C,0,47.988,21.815,45.095\C,0,47.
 923,24.281,42.051\C,0,48.946,24.019,40.973\C,0,48.436,24.368,39.511\O,

 Normal termination of Gaussian 16 at Wed Apr 27 02:47:59 2022.
