 Gaussian 16, Revision A.03,
 Gaussian 16:  ES64L-G16RevA.03 25-Dec-2016

 ------------------------------
 #p blyp/Def2SVP td=(nstates=5)
 ------------------------------

 ---------------------------------------------------
 step_1801_chromophore_22 TDDFT with blyp functional
 ---------------------------------------------------
 Symbolic Z-matrix:
 Charge =  0 Multiplicity = 1

                         Standard orientation:
 ---------------------------------------------------------------------
 Center     Atomic      Atomic             Coordinates (Angstroms)
 Number     Number       Type             X           Y           Z
 ---------------------------------------------------------------------
      1         12           0        6.249368    0.483526    0.215683
      2          6           0        4.249366   -2.402678   -0.128913
      3          6           0        3.624730    2.325639   -0.948648
      4          6           0        8.286766    3.202213   -0.111588
      5          6           0        9.033163   -1.608989    0.499795
      6          7           0        4.146586   -0.037306   -0.592935
      7          6           0        3.521585   -1.257573   -0.589990
      8          6           0        2.047581   -1.073743   -0.996143
      9          6           0        1.950762    0.462956   -1.561307
     10          6           0        3.312784    0.977350   -1.076637
     11          6           0        1.714850    0.615541   -3.160586
     12          6           0        0.916687   -1.564470   -0.009380
     13          6           0       -0.439155   -0.738479    0.049793
     14          6           0       -1.663141   -1.566471    0.528619
     15          8           0       -1.765779   -2.281478    1.501725
     16          8           0       -2.682246   -1.313548   -0.316922
     17          7           0        5.938647    2.519934   -0.164766
     18          6           0        4.782422    3.039155   -0.576857
     19          6           0        4.933788    4.542415   -0.532890
     20          6           0        6.327228    4.809920   -0.175769
     21          6           0        6.916523    3.475579   -0.182727
     22          6           0        3.883769    5.519217   -0.986022
     23          6           0        7.069587    6.094238    0.089903
     24          8           0        8.327533    6.275591    0.244655
     25          6           0        6.247807    7.351905    0.087851
     26          7           0        8.354567    0.756788    0.035005
     27          6           0        8.884922    1.982787   -0.042521
     28          6           0       10.342225    1.893276    0.141879
     29          6           0       10.633824    0.366703    0.383289
     30          6           0        9.262521   -0.229864    0.385368
     31          6           0       11.110913    2.578956   -0.971730
     32          6           0       11.536552    0.068548    1.597009
     33          6           0       12.970411    0.453028    1.471893
     34          7           0        6.617634   -1.650764    0.149338
     35          6           0        7.792360   -2.285518    0.400834
     36          6           0        7.480886   -3.681497    0.506269
     37          6           0        6.078055   -3.781842    0.296597
     38          6           0        5.620035   -2.499237    0.085603
     39          6           0        8.473954   -4.730353    0.715520
     40          6           0        5.006682   -4.728473    0.297177
     41          8           0        4.916382   -5.982967    0.513094
     42          6           0        3.706509   -3.859162   -0.134450
     43          6           0        2.750862   -4.047412    0.919655
     44          8           0        2.754575   -3.615245    2.061697
     45          8           0        1.760559   -4.757252    0.318630
     46          6           0        0.593009   -5.074580    1.245970
     47          6           0       -3.858962   -2.119433    0.085597
     48          6           0       -4.991543   -1.685174   -0.846005
     49          6           0       -6.316729   -1.957567   -0.726774
     50          6           0       -6.877014   -2.860387    0.406437
     51          6           0       -7.341689   -1.820461   -1.878485
     52          6           0       -8.589580   -0.954106   -1.591665
     53          6           0       -9.118692   -0.221171   -2.837132
     54          6           0      -10.643242   -0.481203   -2.972472
     55          6           0      -11.044360   -0.285406   -4.475913
     56          6           0      -11.489039    0.461021   -1.943367
     57          6           0      -12.277325   -0.224594   -0.837305
     58          6           0      -13.816289   -0.145225   -1.133049
     59          6           0      -14.495471    1.043846   -0.405539
     60          6           0      -15.454441    1.762779   -1.451468
     61          6           0      -15.336908    0.796577    0.821615
     62          6           0      -15.028040    1.855456    1.922238
     63          6           0      -14.004211    1.517658    2.995802
     64          6           0      -13.435517    2.641062    3.946353
     65          6           0      -12.225574    3.374668    3.402351
     66          6           0      -13.102712    2.090457    5.381663
     67          1           0        2.815564    2.896033   -1.408300
     68          1           0        8.933933    4.057494   -0.317253
     69          1           0        9.953904   -2.189114    0.585776
     70          1           0        2.026547   -1.776647   -1.828007
     71          1           0        1.315832    1.193217   -1.059689
     72          1           0        1.501643   -0.353841   -3.610614
     73          1           0        2.629262    1.092547   -3.514598
     74          1           0        0.934747    1.366997   -3.280619
     75          1           0        1.307511   -1.637682    1.006016
     76          1           0        0.626774   -2.594767   -0.215705
     77          1           0       -0.572509   -0.115966   -0.834843
     78          1           0       -0.325848   -0.064499    0.899260
     79          1           0        4.199382    6.132489   -1.829704
     80          1           0        3.602871    6.172254   -0.159500
     81          1           0        2.940287    5.085653   -1.316709
     82          1           0        6.876087    8.166171    0.448690
     83          1           0        5.393598    7.225384    0.752292
     84          1           0        6.001393    7.576967   -0.949297
     85          1           0       10.528215    2.410727    1.082049
     86          1           0       11.185766    0.042577   -0.499329
     87          1           0       11.902004    1.906544   -1.303685
     88          1           0       11.551068    3.490634   -0.568367
     89          1           0       10.484695    2.967315   -1.776007
     90          1           0       11.388804   -0.962487    1.920943
     91          1           0       11.052558    0.682389    2.356817
     92          1           0       13.179603    1.400475    1.968329
     93          1           0       13.231315    0.601307    0.424172
     94          1           0       13.615898   -0.349384    1.828669
     95          1           0        8.665561   -5.101489   -0.291464
     96          1           0        8.060291   -5.450195    1.420818
     97          1           0        9.457225   -4.377778    1.028586
     98          1           0        3.393828   -4.202090   -1.119535
     99          1           0       -0.277124   -4.744279    0.678101
    100          1           0        0.627415   -4.581671    2.217409
    101          1           0        0.567791   -6.146776    1.441136
    102          1           0       -4.165958   -1.828174    1.090075
    103          1           0       -3.611201   -3.163694   -0.104780
    104          1           0       -4.685043   -1.206660   -1.776491
    105          1           0       -7.963641   -2.802672    0.479071
    106          1           0       -6.550794   -2.300127    1.283362
    107          1           0       -6.516551   -3.888449    0.406257
    108          1           0       -7.752113   -2.824025   -1.986582
    109          1           0       -6.862539   -1.489910   -2.799824
    110          1           0       -8.373565   -0.171432   -0.864062
    111          1           0       -9.339010   -1.512797   -1.029813
    112          1           0       -8.574156   -0.586196   -3.708025
    113          1           0       -8.889605    0.843994   -2.837739
    114          1           0      -10.976920   -1.495025   -2.750196
    115          1           0      -11.784476   -1.039909   -4.746187
    116          1           0      -10.203860   -0.255706   -5.169978
    117          1           0      -11.536622    0.683007   -4.564909
    118          1           0      -12.054062    1.131581   -2.591429
    119          1           0      -10.902851    1.203542   -1.403094
    120          1           0      -12.120780    0.335632    0.083624
    121          1           0      -12.018272   -1.282134   -0.877707
    122          1           0      -14.280136   -1.093227   -0.859873
    123          1           0      -13.981680   -0.109692   -2.209027
    124          1           0      -13.747744    1.800775   -0.168389
    125          1           0      -16.222223    1.038402   -1.721726
    126          1           0      -14.821268    2.193573   -2.227702
    127          1           0      -16.029557    2.560334   -0.980961
    128          1           0      -15.137504   -0.218320    1.163036
    129          1           0      -16.364351    0.788949    0.455801
    130          1           0      -16.006478    2.099881    2.335516
    131          1           0      -14.642796    2.803524    1.546686
    132          1           0      -13.179164    1.034434    2.473152
    133          1           0      -14.476610    0.763101    3.624621
    134          1           0      -14.184449    3.426607    4.041148
    135          1           0      -12.056728    4.358386    3.839825
    136          1           0      -12.497424    3.709427    2.401447
    137          1           0      -11.321502    2.765302    3.409331
    138          1           0      -13.742585    2.479536    6.173300
    139          1           0      -12.079095    2.398014    5.595942
    140          1           0      -13.086136    1.000659    5.364274
 ---------------------------------------------------------------------

 SCF Done:  E(RB-LYP) =  -3007.35819800     A.U. after   22 cycles

 Excitation energies and oscillator strengths:

 Excited State   1:      Singlet-A      1.7540 eV  706.87 nm  f=0.0246  <S**2>=0.000
     244 -> 247        0.67692
     246 -> 247       -0.18010
 This state for optimization and/or second-order correction.
 Total Energy, E(TD-HF/TD-DFT) =  -3007.29374022
 Copying the excited state density for this state as the 1-particle RhoCI density.

 Excited State   2:      Singlet-A      1.7721 eV  699.66 nm  f=0.3017  <S**2>=0.000
     244 -> 247        0.17866
     245 -> 248        0.11185
     245 -> 249       -0.14766
     246 -> 247        0.66615
     246 <- 247       -0.14953

 Excited State   3:      Singlet-A      1.8608 eV  666.29 nm  f=0.0077  <S**2>=0.000
     243 -> 247        0.67574
     245 -> 247        0.18031

 Excited State   4:      Singlet-A      1.9815 eV  625.70 nm  f=0.0674  <S**2>=0.000
     243 -> 247       -0.18763
     245 -> 247        0.62605
     246 -> 248       -0.14301
     246 -> 249        0.17805

 Excited State   5:      Singlet-A      2.3410 eV  529.62 nm  f=0.0002  <S**2>=0.000
     241 -> 247        0.70694

 The electronic state is 1-A.
 Alpha  occ. eigenvalues --  -46.28243 -18.82680 -18.81449 -18.77367 -18.75812
 Alpha  occ. eigenvalues --  -18.75733 -18.75408 -14.03316 -14.02806 -14.01577
 Alpha  occ. eigenvalues --  -14.00405 -10.04425 -10.02598 -10.00273  -9.99534
 Alpha  occ. eigenvalues --   -9.98502  -9.97240  -9.96741  -9.96670  -9.96474
 Alpha  occ. eigenvalues --   -9.96452  -9.96020  -9.95530  -9.95512  -9.95474
 Alpha  occ. eigenvalues --   -9.95363  -9.95214  -9.94047  -9.94023  -9.93931
 Alpha  occ. eigenvalues --   -9.93646  -9.93556  -9.93476  -9.93403  -9.93293
 Alpha  occ. eigenvalues --   -9.93247  -9.93206  -9.93118  -9.93054  -9.92993
 Alpha  occ. eigenvalues --   -9.92673  -9.92523  -9.92420  -9.92361  -9.92343
 Alpha  occ. eigenvalues --   -9.92341  -9.92002  -9.91975  -9.91808  -9.91800
 Alpha  occ. eigenvalues --   -9.91741  -9.91558  -9.91541  -9.91511  -9.91412
 Alpha  occ. eigenvalues --   -9.91385  -9.91335  -9.91324  -9.91201  -9.91130
 Alpha  occ. eigenvalues --   -9.90994  -9.90909  -9.90871  -9.90858  -9.90827
 Alpha  occ. eigenvalues --   -9.90795  -2.92675  -1.73080  -1.72549  -1.72405
 Alpha  occ. eigenvalues --   -0.99381  -0.96757  -0.90686  -0.88878  -0.88841
 Alpha  occ. eigenvalues --   -0.88262  -0.87182  -0.86663  -0.85896  -0.84604
 Alpha  occ. eigenvalues --   -0.75322  -0.73283  -0.72926  -0.72770  -0.72308
 Alpha  occ. eigenvalues --   -0.71834  -0.71465  -0.71342  -0.70808  -0.70517
 Alpha  occ. eigenvalues --   -0.70446  -0.68996  -0.68335  -0.67992  -0.67457
 Alpha  occ. eigenvalues --   -0.66525  -0.66070  -0.65487  -0.65132  -0.64584
 Alpha  occ. eigenvalues --   -0.64131  -0.63018  -0.62607  -0.62038  -0.60365
 Alpha  occ. eigenvalues --   -0.60146  -0.60111  -0.59966  -0.59246  -0.59004
 Alpha  occ. eigenvalues --   -0.58319  -0.57727  -0.57356  -0.55810  -0.54681
 Alpha  occ. eigenvalues --   -0.54087  -0.53342  -0.53192  -0.52459  -0.51689
 Alpha  occ. eigenvalues --   -0.51554  -0.51394  -0.51142  -0.50418  -0.50289
 Alpha  occ. eigenvalues --   -0.49498  -0.49175  -0.49053  -0.47511  -0.46923
 Alpha  occ. eigenvalues --   -0.46176  -0.46045  -0.45644  -0.45027  -0.44443
 Alpha  occ. eigenvalues --   -0.44215  -0.44059  -0.43457  -0.42677  -0.42475
 Alpha  occ. eigenvalues --   -0.41900  -0.41495  -0.41298  -0.41139  -0.41070
 Alpha  occ. eigenvalues --   -0.40844  -0.40482  -0.40273  -0.40102  -0.40038
 Alpha  occ. eigenvalues --   -0.39957  -0.39756  -0.39649  -0.39259  -0.39160
 Alpha  occ. eigenvalues --   -0.39013  -0.38833  -0.38736  -0.38509  -0.38296
 Alpha  occ. eigenvalues --   -0.38018  -0.37966  -0.37898  -0.37603  -0.37558
 Alpha  occ. eigenvalues --   -0.37314  -0.36853  -0.36824  -0.36511  -0.36474
 Alpha  occ. eigenvalues --   -0.36393  -0.36196  -0.35964  -0.35750  -0.35610
 Alpha  occ. eigenvalues --   -0.35490  -0.35297  -0.35187  -0.35119  -0.34874
 Alpha  occ. eigenvalues --   -0.34672  -0.34396  -0.34334  -0.34169  -0.34063
 Alpha  occ. eigenvalues --   -0.33862  -0.33746  -0.33643  -0.33560  -0.33103
 Alpha  occ. eigenvalues --   -0.33062  -0.32908  -0.32812  -0.32417  -0.32137
 Alpha  occ. eigenvalues --   -0.31970  -0.31854  -0.31820  -0.31537  -0.31430
 Alpha  occ. eigenvalues --   -0.31298  -0.31265  -0.31115  -0.30793  -0.30572
 Alpha  occ. eigenvalues --   -0.30350  -0.29857  -0.29823  -0.29582  -0.29482
 Alpha  occ. eigenvalues --   -0.29384  -0.29282  -0.28974  -0.28918  -0.28705
 Alpha  occ. eigenvalues --   -0.28636  -0.28476  -0.28030  -0.27866  -0.27765
 Alpha  occ. eigenvalues --   -0.27703  -0.27426  -0.27258  -0.26610  -0.26486
 Alpha  occ. eigenvalues --   -0.26356  -0.26337  -0.26166  -0.25874  -0.25302
 Alpha  occ. eigenvalues --   -0.25049  -0.24687  -0.24348  -0.24094  -0.23734
 Alpha  occ. eigenvalues --   -0.22929  -0.22545  -0.21991  -0.21494  -0.20795
 Alpha  occ. eigenvalues --   -0.20466  -0.20160  -0.18607  -0.18223  -0.17464
 Alpha  occ. eigenvalues --   -0.15988
 Alpha virt. eigenvalues --   -0.11864  -0.07285  -0.06677  -0.05246  -0.03766
 Alpha virt. eigenvalues --   -0.02675  -0.02034  -0.01625  -0.01513   0.00243
 Alpha virt. eigenvalues --    0.01043   0.01803   0.02352   0.02496   0.02689

 Mulliken charges:
               1
     1  Mg   0.689492
     2  C   -0.051582
     3  C   -0.040345
     4  C   -0.069904
     5  C   -0.083434
     6  N   -0.224115
     7  C   -0.082229
     8  C    0.098950
     9  C   -0.044032
    10  C   -0.031513
    11  C    0.131384
    12  C    0.070145
    13  C    0.151175
    14  C    0.053825
    15  O   -0.187922
    16  O   -0.257699
    17  N   -0.265501
    18  C    0.163100
    19  C   -0.135917
    20  C    0.039072
    21  C    0.083380
    22  C    0.163557
    23  C   -0.061571
    24  O   -0.211844
    25  C    0.137062
    26  N   -0.240992
    27  C    0.051104
    28  C   -0.007294
    29  C    0.053989
    30  C    0.019887
    31  C    0.141396
    32  C    0.073367
    33  C    0.106214
    34  N   -0.191601
    35  C    0.123059
    36  C   -0.175091
    37  C    0.110516
    38  C    0.100320
    39  C    0.185194
    40  C   -0.049231
    41  O   -0.187848
    42  C    0.035049
    43  C    0.121763
    44  O   -0.182177
    45  O   -0.283601
    46  C    0.191572
    47  C    0.326521
    48  C   -0.143161
    49  C   -0.135010
    50  C    0.123871
    51  C    0.142678
    52  C    0.053406
    53  C    0.112175
    54  C   -0.081068
    55  C    0.103142
    56  C    0.078093
    57  C    0.083535
    58  C    0.112957
    59  C   -0.110546
    60  C    0.075574
    61  C    0.168879
    62  C    0.057889
    63  C    0.101394
    64  C   -0.079295
    65  C    0.101007
    66  C    0.111603
    67  H   -0.070884
    68  H   -0.039158
    69  H   -0.054998
    70  H   -0.032899
    71  H   -0.004308
    72  H    0.012157
    73  H   -0.001421
    74  H   -0.003446
    75  H    0.008080
    76  H   -0.008519
    77  H   -0.003506
    78  H   -0.002991
    79  H    0.008749
    80  H   -0.001968
    81  H   -0.023431
    82  H   -0.009689
    83  H    0.004458
    84  H    0.012117
    85  H   -0.019246
    86  H   -0.035049
    87  H   -0.009791
    88  H   -0.008478
    89  H   -0.000360
    90  H   -0.027798
    91  H   -0.033257
    92  H   -0.001467
    93  H   -0.022335
    94  H   -0.007400
    95  H    0.006572
    96  H    0.023615
    97  H   -0.025602
    98  H    0.004236
    99  H    0.019765
   100  H    0.038838
   101  H    0.020996
   102  H    0.017445
   103  H    0.016076
   104  H   -0.035011
   105  H   -0.016327
   106  H   -0.009248
   107  H    0.019417
   108  H   -0.019780
   109  H   -0.029697
   110  H   -0.039295
   111  H   -0.020548
   112  H   -0.036954
   113  H   -0.023732
   114  H   -0.034358
   115  H   -0.013555
   116  H   -0.014683
   117  H   -0.026754
   118  H   -0.037956
   119  H   -0.042705
   120  H   -0.014087
   121  H   -0.023064
   122  H   -0.051517
   123  H   -0.039753
   124  H   -0.037716
   125  H   -0.011229
   126  H   -0.006929
   127  H   -0.027765
   128  H   -0.046710
   129  H   -0.043619
   130  H   -0.039128
   131  H   -0.031568
   132  H   -0.035772
   133  H   -0.035349
   134  H   -0.041995
   135  H   -0.019253
   136  H   -0.032703
   137  H   -0.005478
   138  H   -0.006051
   139  H   -0.030072
   140  H   -0.016932
 Sum of Mulliken charges =  -0.00000

 Dipole moment (field-independent basis, Debye):
    X=             -3.1113    Y=              3.3408    Z=             -2.7838  Tot=              5.3471
 Quadrupole moment (field-independent basis, Debye-Ang):
   XX=           -375.9414   YY=           -435.9336   ZZ=           -409.5314
   XY=              0.2958   XZ=             -4.7076   YZ=              5.9842

 Normal termination of Gaussian 16 at Fri Apr 29 01:16:33 2022.
