 Gaussian 16, Revision A.03,
 Gaussian 16:  ES64L-G16RevA.03 25-Dec-2016

 -----------------------------------
 #p cam-b3lyp/Def2SVP td=(nstates=5)
 -----------------------------------

 --------------------------------------------------------
 step_1801_chromophore_22 TDDFT with cam-b3lyp functional
 --------------------------------------------------------
 Symbolic Z-matrix:
 Charge =  0 Multiplicity = 1

                         Standard orientation:
 ---------------------------------------------------------------------
 Center     Atomic      Atomic             Coordinates (Angstroms)
 Number     Number       Type             X           Y           Z
 ---------------------------------------------------------------------
      1         12           0        6.249368    0.483526    0.215683
      2          6           0        4.249366   -2.402678   -0.128913
      3          6           0        3.624730    2.325639   -0.948648
      4          6           0        8.286766    3.202213   -0.111588
      5          6           0        9.033163   -1.608989    0.499795
      6          7           0        4.146586   -0.037306   -0.592935
      7          6           0        3.521585   -1.257573   -0.589990
      8          6           0        2.047581   -1.073743   -0.996143
      9          6           0        1.950762    0.462956   -1.561307
     10          6           0        3.312784    0.977350   -1.076637
     11          6           0        1.714850    0.615541   -3.160586
     12          6           0        0.916687   -1.564470   -0.009380
     13          6           0       -0.439155   -0.738479    0.049793
     14          6           0       -1.663141   -1.566471    0.528619
     15          8           0       -1.765779   -2.281478    1.501725
     16          8           0       -2.682246   -1.313548   -0.316922
     17          7           0        5.938647    2.519934   -0.164766
     18          6           0        4.782422    3.039155   -0.576857
     19          6           0        4.933788    4.542415   -0.532890
     20          6           0        6.327228    4.809920   -0.175769
     21          6           0        6.916523    3.475579   -0.182727
     22          6           0        3.883769    5.519217   -0.986022
     23          6           0        7.069587    6.094238    0.089903
     24          8           0        8.327533    6.275591    0.244655
     25          6           0        6.247807    7.351905    0.087851
     26          7           0        8.354567    0.756788    0.035005
     27          6           0        8.884922    1.982787   -0.042521
     28          6           0       10.342225    1.893276    0.141879
     29          6           0       10.633824    0.366703    0.383289
     30          6           0        9.262521   -0.229864    0.385368
     31          6           0       11.110913    2.578956   -0.971730
     32          6           0       11.536552    0.068548    1.597009
     33          6           0       12.970411    0.453028    1.471893
     34          7           0        6.617634   -1.650764    0.149338
     35          6           0        7.792360   -2.285518    0.400834
     36          6           0        7.480886   -3.681497    0.506269
     37          6           0        6.078055   -3.781842    0.296597
     38          6           0        5.620035   -2.499237    0.085603
     39          6           0        8.473954   -4.730353    0.715520
     40          6           0        5.006682   -4.728473    0.297177
     41          8           0        4.916382   -5.982967    0.513094
     42          6           0        3.706509   -3.859162   -0.134450
     43          6           0        2.750862   -4.047412    0.919655
     44          8           0        2.754575   -3.615245    2.061697
     45          8           0        1.760559   -4.757252    0.318630
     46          6           0        0.593009   -5.074580    1.245970
     47          6           0       -3.858962   -2.119433    0.085597
     48          6           0       -4.991543   -1.685174   -0.846005
     49          6           0       -6.316729   -1.957567   -0.726774
     50          6           0       -6.877014   -2.860387    0.406437
     51          6           0       -7.341689   -1.820461   -1.878485
     52          6           0       -8.589580   -0.954106   -1.591665
     53          6           0       -9.118692   -0.221171   -2.837132
     54          6           0      -10.643242   -0.481203   -2.972472
     55          6           0      -11.044360   -0.285406   -4.475913
     56          6           0      -11.489039    0.461021   -1.943367
     57          6           0      -12.277325   -0.224594   -0.837305
     58          6           0      -13.816289   -0.145225   -1.133049
     59          6           0      -14.495471    1.043846   -0.405539
     60          6           0      -15.454441    1.762779   -1.451468
     61          6           0      -15.336908    0.796577    0.821615
     62          6           0      -15.028040    1.855456    1.922238
     63          6           0      -14.004211    1.517658    2.995802
     64          6           0      -13.435517    2.641062    3.946353
     65          6           0      -12.225574    3.374668    3.402351
     66          6           0      -13.102712    2.090457    5.381663
     67          1           0        2.815564    2.896033   -1.408300
     68          1           0        8.933933    4.057494   -0.317253
     69          1           0        9.953904   -2.189114    0.585776
     70          1           0        2.026547   -1.776647   -1.828007
     71          1           0        1.315832    1.193217   -1.059689
     72          1           0        1.501643   -0.353841   -3.610614
     73          1           0        2.629262    1.092547   -3.514598
     74          1           0        0.934747    1.366997   -3.280619
     75          1           0        1.307511   -1.637682    1.006016
     76          1           0        0.626774   -2.594767   -0.215705
     77          1           0       -0.572509   -0.115966   -0.834843
     78          1           0       -0.325848   -0.064499    0.899260
     79          1           0        4.199382    6.132489   -1.829704
     80          1           0        3.602871    6.172254   -0.159500
     81          1           0        2.940287    5.085653   -1.316709
     82          1           0        6.876087    8.166171    0.448690
     83          1           0        5.393598    7.225384    0.752292
     84          1           0        6.001393    7.576967   -0.949297
     85          1           0       10.528215    2.410727    1.082049
     86          1           0       11.185766    0.042577   -0.499329
     87          1           0       11.902004    1.906544   -1.303685
     88          1           0       11.551068    3.490634   -0.568367
     89          1           0       10.484695    2.967315   -1.776007
     90          1           0       11.388804   -0.962487    1.920943
     91          1           0       11.052558    0.682389    2.356817
     92          1           0       13.179603    1.400475    1.968329
     93          1           0       13.231315    0.601307    0.424172
     94          1           0       13.615898   -0.349384    1.828669
     95          1           0        8.665561   -5.101489   -0.291464
     96          1           0        8.060291   -5.450195    1.420818
     97          1           0        9.457225   -4.377778    1.028586
     98          1           0        3.393828   -4.202090   -1.119535
     99          1           0       -0.277124   -4.744279    0.678101
    100          1           0        0.627415   -4.581671    2.217409
    101          1           0        0.567791   -6.146776    1.441136
    102          1           0       -4.165958   -1.828174    1.090075
    103          1           0       -3.611201   -3.163694   -0.104780
    104          1           0       -4.685043   -1.206660   -1.776491
    105          1           0       -7.963641   -2.802672    0.479071
    106          1           0       -6.550794   -2.300127    1.283362
    107          1           0       -6.516551   -3.888449    0.406257
    108          1           0       -7.752113   -2.824025   -1.986582
    109          1           0       -6.862539   -1.489910   -2.799824
    110          1           0       -8.373565   -0.171432   -0.864062
    111          1           0       -9.339010   -1.512797   -1.029813
    112          1           0       -8.574156   -0.586196   -3.708025
    113          1           0       -8.889605    0.843994   -2.837739
    114          1           0      -10.976920   -1.495025   -2.750196
    115          1           0      -11.784476   -1.039909   -4.746187
    116          1           0      -10.203860   -0.255706   -5.169978
    117          1           0      -11.536622    0.683007   -4.564909
    118          1           0      -12.054062    1.131581   -2.591429
    119          1           0      -10.902851    1.203542   -1.403094
    120          1           0      -12.120780    0.335632    0.083624
    121          1           0      -12.018272   -1.282134   -0.877707
    122          1           0      -14.280136   -1.093227   -0.859873
    123          1           0      -13.981680   -0.109692   -2.209027
    124          1           0      -13.747744    1.800775   -0.168389
    125          1           0      -16.222223    1.038402   -1.721726
    126          1           0      -14.821268    2.193573   -2.227702
    127          1           0      -16.029557    2.560334   -0.980961
    128          1           0      -15.137504   -0.218320    1.163036
    129          1           0      -16.364351    0.788949    0.455801
    130          1           0      -16.006478    2.099881    2.335516
    131          1           0      -14.642796    2.803524    1.546686
    132          1           0      -13.179164    1.034434    2.473152
    133          1           0      -14.476610    0.763101    3.624621
    134          1           0      -14.184449    3.426607    4.041148
    135          1           0      -12.056728    4.358386    3.839825
    136          1           0      -12.497424    3.709427    2.401447
    137          1           0      -11.321502    2.765302    3.409331
    138          1           0      -13.742585    2.479536    6.173300
    139          1           0      -12.079095    2.398014    5.595942
    140          1           0      -13.086136    1.000659    5.364274
 ---------------------------------------------------------------------

 SCF Done:  E(RCAM-B3LYP) =  -3007.14261734     A.U. after   17 cycles

 Excitation energies and oscillator strengths:

 Excited State   1:      Singlet-A      1.6799 eV  738.07 nm  f=0.4091  <S**2>=0.000
     245 -> 248        0.17415
     246 -> 247        0.68662
     245 <- 248        0.10622
 This state for optimization and/or second-order correction.
 Total Energy, E(TD-HF/TD-DFT) =  -3007.08088391
 Copying the excited state density for this state as the 1-particle RhoCI density.

 Excited State   2:      Singlet-A      2.2097 eV  561.10 nm  f=0.1151  <S**2>=0.000
     245 -> 247        0.64577
     246 -> 248       -0.27002

 Excited State   3:      Singlet-A      3.2832 eV  377.63 nm  f=0.0015  <S**2>=0.000
     241 -> 247       -0.10158
     243 -> 247        0.34701
     243 -> 249       -0.17849
     243 -> 251        0.19124
     244 -> 247        0.51854

 Excited State   4:      Singlet-A      3.3457 eV  370.57 nm  f=0.0005  <S**2>=0.000
     241 -> 247        0.14333
     243 -> 247        0.45332
     243 -> 249       -0.18545
     243 -> 251        0.19574
     244 -> 247       -0.41361

 Excited State   5:      Singlet-A      3.3915 eV  365.57 nm  f=0.0035  <S**2>=0.000
     239 -> 247       -0.27051
     239 -> 248        0.11484
     239 -> 249       -0.23740
     239 -> 251       -0.12847
     240 -> 247       -0.27475
     240 -> 249       -0.19432
     240 -> 251       -0.10185
     241 -> 247        0.38403
     246 -> 248        0.11204

 The electronic state is 1-A.
 Alpha  occ. eigenvalues --  -46.89896 -19.25581 -19.24418 -19.20363 -19.19151
 Alpha  occ. eigenvalues --  -19.18870 -19.18374 -14.42294 -14.41538 -14.40138
 Alpha  occ. eigenvalues --  -14.38623 -10.39716 -10.38008 -10.35842 -10.34902
 Alpha  occ. eigenvalues --  -10.32600 -10.31690 -10.31366 -10.31274 -10.30691
 Alpha  occ. eigenvalues --  -10.30676 -10.30599 -10.30491 -10.29968 -10.29698
 Alpha  occ. eigenvalues --  -10.29592 -10.29136 -10.28218 -10.28215 -10.28085
 Alpha  occ. eigenvalues --  -10.28065 -10.27630 -10.27488 -10.27479 -10.27455
 Alpha  occ. eigenvalues --  -10.27434 -10.27406 -10.27295 -10.27077 -10.26824
 Alpha  occ. eigenvalues --  -10.26494 -10.26299 -10.26153 -10.26086 -10.26057
 Alpha  occ. eigenvalues --  -10.26019 -10.26004 -10.25932 -10.25563 -10.25455
 Alpha  occ. eigenvalues --  -10.25428 -10.25332 -10.25247 -10.25225 -10.25090
 Alpha  occ. eigenvalues --  -10.25068 -10.25015 -10.24988 -10.24865 -10.24849
 Alpha  occ. eigenvalues --  -10.24587 -10.24585 -10.24557 -10.24513 -10.24507
 Alpha  occ. eigenvalues --  -10.24474  -3.18218  -1.93102  -1.92653  -1.92527
 Alpha  occ. eigenvalues --   -1.17913  -1.15328  -1.08580  -1.07327  -1.06815
 Alpha  occ. eigenvalues --   -1.06295  -1.04810  -1.04376  -1.03516  -1.02222
 Alpha  occ. eigenvalues --   -0.92366  -0.90141  -0.89747  -0.89472  -0.88940
 Alpha  occ. eigenvalues --   -0.88532  -0.88143  -0.87985  -0.87497  -0.87389
 Alpha  occ. eigenvalues --   -0.86850  -0.85336  -0.84632  -0.84133  -0.83627
 Alpha  occ. eigenvalues --   -0.82599  -0.82250  -0.81654  -0.81022  -0.80475
 Alpha  occ. eigenvalues --   -0.79902  -0.78851  -0.78219  -0.77571  -0.75729
 Alpha  occ. eigenvalues --   -0.75494  -0.75458  -0.75268  -0.74512  -0.74264
 Alpha  occ. eigenvalues --   -0.73388  -0.72673  -0.72294  -0.70655  -0.69217
 Alpha  occ. eigenvalues --   -0.68700  -0.67931  -0.67827  -0.66836  -0.65859
 Alpha  occ. eigenvalues --   -0.65666  -0.65608  -0.65069  -0.64436  -0.64359
 Alpha  occ. eigenvalues --   -0.63391  -0.63133  -0.62983  -0.61260  -0.60645
 Alpha  occ. eigenvalues --   -0.59805  -0.59492  -0.59067  -0.58322  -0.57952
 Alpha  occ. eigenvalues --   -0.57590  -0.57461  -0.56606  -0.55983  -0.55559
 Alpha  occ. eigenvalues --   -0.55082  -0.54751  -0.54346  -0.54117  -0.53885
 Alpha  occ. eigenvalues --   -0.53618  -0.53241  -0.53129  -0.52821  -0.52748
 Alpha  occ. eigenvalues --   -0.52581  -0.52433  -0.52233  -0.52024  -0.51679
 Alpha  occ. eigenvalues --   -0.51512  -0.51400  -0.51347  -0.50959  -0.50622
 Alpha  occ. eigenvalues --   -0.50550  -0.50320  -0.50194  -0.50089  -0.49734
 Alpha  occ. eigenvalues --   -0.49556  -0.49351  -0.48932  -0.48798  -0.48657
 Alpha  occ. eigenvalues --   -0.48584  -0.48446  -0.48322  -0.48016  -0.47842
 Alpha  occ. eigenvalues --   -0.47694  -0.47539  -0.47421  -0.47199  -0.46964
 Alpha  occ. eigenvalues --   -0.46545  -0.46224  -0.46114  -0.46019  -0.45872
 Alpha  occ. eigenvalues --   -0.45607  -0.45548  -0.45354  -0.45211  -0.44748
 Alpha  occ. eigenvalues --   -0.44703  -0.44557  -0.44524  -0.44034  -0.43827
 Alpha  occ. eigenvalues --   -0.43779  -0.43674  -0.43376  -0.43242  -0.43079
 Alpha  occ. eigenvalues --   -0.42962  -0.42628  -0.42547  -0.42335  -0.41866
 Alpha  occ. eigenvalues --   -0.41781  -0.41443  -0.41128  -0.41056  -0.41039
 Alpha  occ. eigenvalues --   -0.40821  -0.40746  -0.40124  -0.40001  -0.39781
 Alpha  occ. eigenvalues --   -0.39641  -0.39309  -0.38890  -0.38856  -0.38630
 Alpha  occ. eigenvalues --   -0.38605  -0.38259  -0.38101  -0.38020  -0.37326
 Alpha  occ. eigenvalues --   -0.37233  -0.37079  -0.37051  -0.36836  -0.36450
 Alpha  occ. eigenvalues --   -0.35787  -0.35619  -0.35187  -0.34715  -0.34126
 Alpha  occ. eigenvalues --   -0.33944  -0.33674  -0.33463  -0.31495  -0.30916
 Alpha  occ. eigenvalues --   -0.30305  -0.30121  -0.30074  -0.29192  -0.24203
 Alpha  occ. eigenvalues --   -0.21294
 Alpha virt. eigenvalues --   -0.09049  -0.01791  -0.00724   0.01283   0.01605
 Alpha virt. eigenvalues --    0.04932   0.05364   0.06012   0.06059   0.06957
 Alpha virt. eigenvalues --    0.07797   0.08373   0.08620   0.08869   0.09046

 Mulliken charges:
               1
     1  Mg   0.818444
     2  C   -0.066853
     3  C   -0.059224
     4  C   -0.085313
     5  C   -0.087292
     6  N   -0.290281
     7  C   -0.035412
     8  C    0.049563
     9  C   -0.099585
    10  C   -0.004017
    11  C    0.077864
    12  C    0.016306
    13  C    0.082249
    14  C    0.133670
    15  O   -0.230312
    16  O   -0.320348
    17  N   -0.354515
    18  C    0.172512
    19  C   -0.136227
    20  C   -0.031592
    21  C    0.109343
    22  C    0.103292
    23  C    0.022125
    24  O   -0.251469
    25  C    0.053200
    26  N   -0.317316
    27  C    0.078282
    28  C   -0.067834
    29  C   -0.005529
    30  C    0.042398
    31  C    0.078065
    32  C    0.021517
    33  C    0.040101
    34  N   -0.282762
    35  C    0.123611
    36  C   -0.170190
    37  C    0.025066
    38  C    0.132131
    39  C    0.131579
    40  C    0.053030
    41  O   -0.228912
    42  C   -0.049645
    43  C    0.211706
    44  O   -0.220613
    45  O   -0.346366
    46  C    0.156985
    47  C    0.290959
    48  C   -0.158560
    49  C   -0.153945
    50  C    0.058625
    51  C    0.079487
    52  C    0.003613
    53  C    0.058149
    54  C   -0.137004
    55  C    0.047486
    56  C    0.028846
    57  C    0.025954
    58  C    0.061693
    59  C   -0.163047
    60  C    0.021245
    61  C    0.107222
    62  C    0.006637
    63  C    0.050449
    64  C   -0.139836
    65  C    0.042070
    66  C    0.049525
    67  H   -0.038862
    68  H    0.001421
    69  H   -0.020578
    70  H    0.003347
    71  H    0.027470
    72  H    0.036153
    73  H    0.024359
    74  H    0.019395
    75  H    0.038688
    76  H    0.019174
    77  H    0.029709
    78  H    0.028986
    79  H    0.035687
    80  H    0.025229
    81  H    0.007151
    82  H    0.027583
    83  H    0.031215
    84  H    0.039676
    85  H    0.015508
    86  H   -0.000641
    87  H    0.013749
    88  H    0.016656
    89  H    0.026147
    90  H    0.001797
    91  H   -0.005211
    92  H    0.021843
    93  H    0.000015
    94  H    0.017891
    95  H    0.032879
    96  H    0.048579
    97  H   -0.000455
    98  H    0.048660
    99  H    0.038493
   100  H    0.065781
   101  H    0.044498
   102  H    0.045057
   103  H    0.043444
   104  H    0.000425
   105  H    0.009427
   106  H    0.014933
   107  H    0.043762
   108  H    0.009883
   109  H   -0.000373
   110  H   -0.009217
   111  H    0.002715
   112  H   -0.008257
   113  H    0.005016
   114  H   -0.003341
   115  H    0.010285
   116  H    0.009700
   117  H   -0.003340
   118  H   -0.012052
   119  H   -0.013658
   120  H    0.011740
   121  H    0.004272
   122  H   -0.020941
   123  H   -0.010159
   124  H   -0.008730
   125  H    0.011237
   126  H    0.015630
   127  H   -0.002744
   128  H   -0.015664
   129  H   -0.011784
   130  H   -0.009938
   131  H   -0.007792
   132  H   -0.012034
   133  H   -0.006559
   134  H   -0.009260
   135  H    0.006840
   136  H   -0.009882
   137  H    0.017162
   138  H    0.018107
   139  H   -0.004480
   140  H    0.007581
 Sum of Mulliken charges =  -0.00000

 Dipole moment (field-independent basis, Debye):
    X=             -3.4921    Y=              4.3395    Z=             -2.9912  Tot=              6.3225
 Quadrupole moment (field-independent basis, Debye-Ang):
   XX=           -377.7514   YY=           -431.4310   ZZ=           -409.7135
   XY=              5.3087   XZ=             -4.6383   YZ=              5.6003

 Normal termination of Gaussian 16 at Fri Apr 29 00:22:29 2022.
