 Gaussian 16, Revision A.03,
 Gaussian 16:  ES64L-G16RevA.03 25-Dec-2016

 ---------------------------------
 #p PBE1PBE/Def2SVP td=(nstates=5)
 ---------------------------------

 ------------------------------------------------------
 step_1801_chromophore_22 TDDFT with PBE1PBE functional
 ------------------------------------------------------
 Symbolic Z-matrix:
 Charge =  0 Multiplicity = 1

                         Standard orientation:
 ---------------------------------------------------------------------
 Center     Atomic      Atomic             Coordinates (Angstroms)
 Number     Number       Type             X           Y           Z
 ---------------------------------------------------------------------
      1         12           0        6.249368    0.483526    0.215683
      2          6           0        4.249366   -2.402678   -0.128913
      3          6           0        3.624730    2.325639   -0.948648
      4          6           0        8.286766    3.202213   -0.111588
      5          6           0        9.033163   -1.608989    0.499795
      6          7           0        4.146586   -0.037306   -0.592935
      7          6           0        3.521585   -1.257573   -0.589990
      8          6           0        2.047581   -1.073743   -0.996143
      9          6           0        1.950762    0.462956   -1.561307
     10          6           0        3.312784    0.977350   -1.076637
     11          6           0        1.714850    0.615541   -3.160586
     12          6           0        0.916687   -1.564470   -0.009380
     13          6           0       -0.439155   -0.738479    0.049793
     14          6           0       -1.663141   -1.566471    0.528619
     15          8           0       -1.765779   -2.281478    1.501725
     16          8           0       -2.682246   -1.313548   -0.316922
     17          7           0        5.938647    2.519934   -0.164766
     18          6           0        4.782422    3.039155   -0.576857
     19          6           0        4.933788    4.542415   -0.532890
     20          6           0        6.327228    4.809920   -0.175769
     21          6           0        6.916523    3.475579   -0.182727
     22          6           0        3.883769    5.519217   -0.986022
     23          6           0        7.069587    6.094238    0.089903
     24          8           0        8.327533    6.275591    0.244655
     25          6           0        6.247807    7.351905    0.087851
     26          7           0        8.354567    0.756788    0.035005
     27          6           0        8.884922    1.982787   -0.042521
     28          6           0       10.342225    1.893276    0.141879
     29          6           0       10.633824    0.366703    0.383289
     30          6           0        9.262521   -0.229864    0.385368
     31          6           0       11.110913    2.578956   -0.971730
     32          6           0       11.536552    0.068548    1.597009
     33          6           0       12.970411    0.453028    1.471893
     34          7           0        6.617634   -1.650764    0.149338
     35          6           0        7.792360   -2.285518    0.400834
     36          6           0        7.480886   -3.681497    0.506269
     37          6           0        6.078055   -3.781842    0.296597
     38          6           0        5.620035   -2.499237    0.085603
     39          6           0        8.473954   -4.730353    0.715520
     40          6           0        5.006682   -4.728473    0.297177
     41          8           0        4.916382   -5.982967    0.513094
     42          6           0        3.706509   -3.859162   -0.134450
     43          6           0        2.750862   -4.047412    0.919655
     44          8           0        2.754575   -3.615245    2.061697
     45          8           0        1.760559   -4.757252    0.318630
     46          6           0        0.593009   -5.074580    1.245970
     47          6           0       -3.858962   -2.119433    0.085597
     48          6           0       -4.991543   -1.685174   -0.846005
     49          6           0       -6.316729   -1.957567   -0.726774
     50          6           0       -6.877014   -2.860387    0.406437
     51          6           0       -7.341689   -1.820461   -1.878485
     52          6           0       -8.589580   -0.954106   -1.591665
     53          6           0       -9.118692   -0.221171   -2.837132
     54          6           0      -10.643242   -0.481203   -2.972472
     55          6           0      -11.044360   -0.285406   -4.475913
     56          6           0      -11.489039    0.461021   -1.943367
     57          6           0      -12.277325   -0.224594   -0.837305
     58          6           0      -13.816289   -0.145225   -1.133049
     59          6           0      -14.495471    1.043846   -0.405539
     60          6           0      -15.454441    1.762779   -1.451468
     61          6           0      -15.336908    0.796577    0.821615
     62          6           0      -15.028040    1.855456    1.922238
     63          6           0      -14.004211    1.517658    2.995802
     64          6           0      -13.435517    2.641062    3.946353
     65          6           0      -12.225574    3.374668    3.402351
     66          6           0      -13.102712    2.090457    5.381663
     67          1           0        2.815564    2.896033   -1.408300
     68          1           0        8.933933    4.057494   -0.317253
     69          1           0        9.953904   -2.189114    0.585776
     70          1           0        2.026547   -1.776647   -1.828007
     71          1           0        1.315832    1.193217   -1.059689
     72          1           0        1.501643   -0.353841   -3.610614
     73          1           0        2.629262    1.092547   -3.514598
     74          1           0        0.934747    1.366997   -3.280619
     75          1           0        1.307511   -1.637682    1.006016
     76          1           0        0.626774   -2.594767   -0.215705
     77          1           0       -0.572509   -0.115966   -0.834843
     78          1           0       -0.325848   -0.064499    0.899260
     79          1           0        4.199382    6.132489   -1.829704
     80          1           0        3.602871    6.172254   -0.159500
     81          1           0        2.940287    5.085653   -1.316709
     82          1           0        6.876087    8.166171    0.448690
     83          1           0        5.393598    7.225384    0.752292
     84          1           0        6.001393    7.576967   -0.949297
     85          1           0       10.528215    2.410727    1.082049
     86          1           0       11.185766    0.042577   -0.499329
     87          1           0       11.902004    1.906544   -1.303685
     88          1           0       11.551068    3.490634   -0.568367
     89          1           0       10.484695    2.967315   -1.776007
     90          1           0       11.388804   -0.962487    1.920943
     91          1           0       11.052558    0.682389    2.356817
     92          1           0       13.179603    1.400475    1.968329
     93          1           0       13.231315    0.601307    0.424172
     94          1           0       13.615898   -0.349384    1.828669
     95          1           0        8.665561   -5.101489   -0.291464
     96          1           0        8.060291   -5.450195    1.420818
     97          1           0        9.457225   -4.377778    1.028586
     98          1           0        3.393828   -4.202090   -1.119535
     99          1           0       -0.277124   -4.744279    0.678101
    100          1           0        0.627415   -4.581671    2.217409
    101          1           0        0.567791   -6.146776    1.441136
    102          1           0       -4.165958   -1.828174    1.090075
    103          1           0       -3.611201   -3.163694   -0.104780
    104          1           0       -4.685043   -1.206660   -1.776491
    105          1           0       -7.963641   -2.802672    0.479071
    106          1           0       -6.550794   -2.300127    1.283362
    107          1           0       -6.516551   -3.888449    0.406257
    108          1           0       -7.752113   -2.824025   -1.986582
    109          1           0       -6.862539   -1.489910   -2.799824
    110          1           0       -8.373565   -0.171432   -0.864062
    111          1           0       -9.339010   -1.512797   -1.029813
    112          1           0       -8.574156   -0.586196   -3.708025
    113          1           0       -8.889605    0.843994   -2.837739
    114          1           0      -10.976920   -1.495025   -2.750196
    115          1           0      -11.784476   -1.039909   -4.746187
    116          1           0      -10.203860   -0.255706   -5.169978
    117          1           0      -11.536622    0.683007   -4.564909
    118          1           0      -12.054062    1.131581   -2.591429
    119          1           0      -10.902851    1.203542   -1.403094
    120          1           0      -12.120780    0.335632    0.083624
    121          1           0      -12.018272   -1.282134   -0.877707
    122          1           0      -14.280136   -1.093227   -0.859873
    123          1           0      -13.981680   -0.109692   -2.209027
    124          1           0      -13.747744    1.800775   -0.168389
    125          1           0      -16.222223    1.038402   -1.721726
    126          1           0      -14.821268    2.193573   -2.227702
    127          1           0      -16.029557    2.560334   -0.980961
    128          1           0      -15.137504   -0.218320    1.163036
    129          1           0      -16.364351    0.788949    0.455801
    130          1           0      -16.006478    2.099881    2.335516
    131          1           0      -14.642796    2.803524    1.546686
    132          1           0      -13.179164    1.034434    2.473152
    133          1           0      -14.476610    0.763101    3.624621
    134          1           0      -14.184449    3.426607    4.041148
    135          1           0      -12.056728    4.358386    3.839825
    136          1           0      -12.497424    3.709427    2.401447
    137          1           0      -11.321502    2.765302    3.409331
    138          1           0      -13.742585    2.479536    6.173300
    139          1           0      -12.079095    2.398014    5.595942
    140          1           0      -13.086136    1.000659    5.364274
 ---------------------------------------------------------------------

 SCF Done:  E(RPBE1PBE) =  -3005.33269992     A.U. after   15 cycles

 Excitation energies and oscillator strengths:

 Excited State   1:      Singlet-A      1.8248 eV  679.46 nm  f=0.3948  <S**2>=0.000
     245 -> 248        0.15141
     246 -> 247        0.69476
     246 <- 247       -0.11213
 This state for optimization and/or second-order correction.
 Total Energy, E(TD-HF/TD-DFT) =  -3005.26564150
 Copying the excited state density for this state as the 1-particle RhoCI density.

 Excited State   2:      Singlet-A      2.2052 eV  562.23 nm  f=0.1081  <S**2>=0.000
     245 -> 247        0.65733
     246 -> 248       -0.22238
     246 -> 249       -0.11194

 Excited State   3:      Singlet-A      2.7955 eV  443.51 nm  f=0.0010  <S**2>=0.000
     243 -> 247        0.44380
     243 -> 249       -0.11294
     243 -> 250        0.10731
     244 -> 247        0.50823

 Excited State   4:      Singlet-A      2.9452 eV  420.98 nm  f=0.0017  <S**2>=0.000
     240 -> 247        0.27514
     240 -> 249        0.10268
     241 -> 247        0.58951
     241 -> 248       -0.11213
     241 -> 249        0.12793

 Excited State   5:      Singlet-A      2.9657 eV  418.06 nm  f=0.0040  <S**2>=0.000
     243 -> 247        0.51329
     244 -> 247       -0.45842

 The electronic state is 1-A.
 Alpha  occ. eigenvalues --  -46.93283 -19.26284 -19.25106 -19.20664 -19.19295
 Alpha  occ. eigenvalues --  -19.19115 -19.18790 -14.41787 -14.41114 -14.39714
 Alpha  occ. eigenvalues --  -14.38343 -10.36766 -10.34998 -10.32857 -10.32193
 Alpha  occ. eigenvalues --  -10.30019 -10.29522 -10.29025 -10.28820 -10.28552
 Alpha  occ. eigenvalues --  -10.28201 -10.27977 -10.27847 -10.27557 -10.27539
 Alpha  occ. eigenvalues --  -10.27446 -10.27034 -10.26068 -10.25836 -10.25802
 Alpha  occ. eigenvalues --  -10.25611 -10.25276 -10.25180 -10.25042 -10.25016
 Alpha  occ. eigenvalues --  -10.24984 -10.24947 -10.24916 -10.24812 -10.24717
 Alpha  occ. eigenvalues --  -10.24244 -10.24111 -10.23808 -10.23644 -10.23602
 Alpha  occ. eigenvalues --  -10.23572 -10.23452 -10.23204 -10.23167 -10.22995
 Alpha  occ. eigenvalues --  -10.22947 -10.22926 -10.22802 -10.22777 -10.22638
 Alpha  occ. eigenvalues --  -10.22610 -10.22540 -10.22515 -10.22479 -10.22438
 Alpha  occ. eigenvalues --  -10.22409 -10.22119 -10.21958 -10.21925 -10.21903
 Alpha  occ. eigenvalues --  -10.21902  -3.15190  -1.88011  -1.87543  -1.87420
 Alpha  occ. eigenvalues --   -1.12754  -1.10088  -1.03469  -1.01902  -1.01636
 Alpha  occ. eigenvalues --   -1.01121  -0.99593  -0.99038  -0.98155  -0.96811
 Alpha  occ. eigenvalues --   -0.86807  -0.84228  -0.83846  -0.83804  -0.83280
 Alpha  occ. eigenvalues --   -0.82665  -0.82336  -0.82271  -0.81579  -0.81505
 Alpha  occ. eigenvalues --   -0.81294  -0.79572  -0.78836  -0.78495  -0.77877
 Alpha  occ. eigenvalues --   -0.76832  -0.76418  -0.75868  -0.75230  -0.74755
 Alpha  occ. eigenvalues --   -0.74131  -0.73121  -0.72497  -0.71900  -0.70070
 Alpha  occ. eigenvalues --   -0.69631  -0.69587  -0.69573  -0.68682  -0.68391
 Alpha  occ. eigenvalues --   -0.67730  -0.67142  -0.66721  -0.64984  -0.63611
 Alpha  occ. eigenvalues --   -0.63215  -0.62312  -0.62059  -0.61101  -0.60292
 Alpha  occ. eigenvalues --   -0.60215  -0.59859  -0.59585  -0.58974  -0.58482
 Alpha  occ. eigenvalues --   -0.57906  -0.57273  -0.57127  -0.55857  -0.55149
 Alpha  occ. eigenvalues --   -0.54198  -0.54111  -0.53729  -0.52916  -0.52442
 Alpha  occ. eigenvalues --   -0.52072  -0.51822  -0.51182  -0.50519  -0.50109
 Alpha  occ. eigenvalues --   -0.49652  -0.49365  -0.48916  -0.48658  -0.48399
 Alpha  occ. eigenvalues --   -0.48092  -0.47727  -0.47462  -0.47314  -0.47261
 Alpha  occ. eigenvalues --   -0.47081  -0.47019  -0.46701  -0.46487  -0.46158
 Alpha  occ. eigenvalues --   -0.46109  -0.46013  -0.45896  -0.45553  -0.45151
 Alpha  occ. eigenvalues --   -0.45122  -0.44937  -0.44759  -0.44638  -0.44278
 Alpha  occ. eigenvalues --   -0.44156  -0.43879  -0.43490  -0.43413  -0.43296
 Alpha  occ. eigenvalues --   -0.43214  -0.42999  -0.42932  -0.42689  -0.42408
 Alpha  occ. eigenvalues --   -0.42381  -0.42161  -0.42052  -0.41899  -0.41628
 Alpha  occ. eigenvalues --   -0.41319  -0.41046  -0.40754  -0.40652  -0.40526
 Alpha  occ. eigenvalues --   -0.40375  -0.40276  -0.40094  -0.39884  -0.39572
 Alpha  occ. eigenvalues --   -0.39437  -0.39360  -0.39217  -0.38774  -0.38655
 Alpha  occ. eigenvalues --   -0.38488  -0.38419  -0.38155  -0.37940  -0.37873
 Alpha  occ. eigenvalues --   -0.37757  -0.37461  -0.37401  -0.37239  -0.36731
 Alpha  occ. eigenvalues --   -0.36557  -0.36280  -0.36037  -0.35850  -0.35767
 Alpha  occ. eigenvalues --   -0.35656  -0.35499  -0.35083  -0.34764  -0.34727
 Alpha  occ. eigenvalues --   -0.34416  -0.34271  -0.33743  -0.33706  -0.33645
 Alpha  occ. eigenvalues --   -0.33445  -0.33057  -0.32976  -0.32903  -0.32244
 Alpha  occ. eigenvalues --   -0.32155  -0.32115  -0.31844  -0.31657  -0.31457
 Alpha  occ. eigenvalues --   -0.30770  -0.30512  -0.30090  -0.29595  -0.29210
 Alpha  occ. eigenvalues --   -0.29082  -0.28898  -0.28606  -0.26903  -0.26022
 Alpha  occ. eigenvalues --   -0.25614  -0.25399  -0.25126  -0.24942  -0.21165
 Alpha  occ. eigenvalues --   -0.18935
 Alpha virt. eigenvalues --   -0.11503  -0.05397  -0.04775  -0.02788  -0.01453
 Alpha virt. eigenvalues --    0.00423   0.00901   0.01449   0.01551   0.03269
 Alpha virt. eigenvalues --    0.03844   0.04735   0.05127   0.05387   0.05661

 Mulliken charges:
               1
     1  Mg   0.953072
     2  C   -0.063181
     3  C   -0.059563
     4  C   -0.060490
     5  C   -0.078802
     6  N   -0.384620
     7  C    0.047890
     8  C   -0.014951
     9  C   -0.177076
    10  C    0.041827
    11  C    0.020645
    12  C   -0.039100
    13  C    0.003325
    14  C    0.200318
    15  O   -0.263342
    16  O   -0.350525
    17  N   -0.467364
    18  C    0.190676
    19  C   -0.167597
    20  C   -0.066489
    21  C    0.131213
    22  C    0.045676
    23  C    0.065983
    24  O   -0.288188
    25  C   -0.021516
    26  N   -0.427629
    27  C    0.113249
    28  C   -0.143989
    29  C   -0.089219
    30  C    0.087448
    31  C    0.018160
    32  C   -0.040991
    33  C   -0.031030
    34  N   -0.416101
    35  C    0.153784
    36  C   -0.197680
    37  C   -0.018339
    38  C    0.172840
    39  C    0.079777
    40  C    0.142710
    41  O   -0.270876
    42  C   -0.164695
    43  C    0.308956
    44  O   -0.257095
    45  O   -0.377175
    46  C    0.099742
    47  C    0.244735
    48  C   -0.165680
    49  C   -0.191858
    50  C   -0.007907
    51  C    0.005906
    52  C   -0.050835
    53  C    0.001715
    54  C   -0.225597
    55  C   -0.010920
    56  C   -0.011079
    57  C   -0.052713
    58  C    0.013859
    59  C   -0.244638
    60  C   -0.045799
    61  C    0.052038
    62  C   -0.059826
    63  C   -0.006772
    64  C   -0.231418
    65  C   -0.022247
    66  C   -0.011621
    67  H   -0.005829
    68  H    0.031508
    69  H    0.011045
    70  H    0.042486
    71  H    0.062654
    72  H    0.062092
    73  H    0.052537
    74  H    0.046144
    75  H    0.071001
    76  H    0.057751
    77  H    0.061726
    78  H    0.063624
    79  H    0.061875
    80  H    0.052251
    81  H    0.033690
    82  H    0.054817
    83  H    0.057533
    84  H    0.066507
    85  H    0.053564
    86  H    0.038623
    87  H    0.040978
    88  H    0.044193
    89  H    0.054220
    90  H    0.034081
    91  H    0.029695
    92  H    0.049046
    93  H    0.028232
    94  H    0.045784
    95  H    0.062480
    96  H    0.075614
    97  H    0.027496
    98  H    0.083909
    99  H    0.059966
   100  H    0.085996
   101  H    0.066659
   102  H    0.071803
   103  H    0.070702
   104  H    0.030788
   105  H    0.037794
   106  H    0.043621
   107  H    0.070417
   108  H    0.045419
   109  H    0.030648
   110  H    0.024526
   111  H    0.034019
   112  H    0.023892
   113  H    0.036984
   114  H    0.034342
   115  H    0.037732
   116  H    0.036403
   117  H    0.024108
   118  H    0.019426
   119  H    0.017580
   120  H    0.047096
   121  H    0.036049
   122  H    0.011393
   123  H    0.022661
   124  H    0.029705
   125  H    0.039852
   126  H    0.044162
   127  H    0.027098
   128  H    0.017199
   129  H    0.020477
   130  H    0.023307
   131  H    0.025110
   132  H    0.024353
   133  H    0.026807
   134  H    0.029127
   135  H    0.035562
   136  H    0.019161
   137  H    0.044280
   138  H    0.045130
   139  H    0.023709
   140  H    0.034596
 Sum of Mulliken charges =  -0.00000

 Dipole moment (field-independent basis, Debye):
    X=             -3.3334    Y=              4.0142    Z=             -2.9919  Tot=              6.0148
 Quadrupole moment (field-independent basis, Debye-Ang):
   XX=           -369.6055   YY=           -429.3969   ZZ=           -407.1228
   XY=              2.9701   XZ=             -3.8489   YZ=              5.3040

 Normal termination of Gaussian 16 at Fri Apr 29 00:37:32 2022.
