 Gaussian 16, Revision A.03,
 Gaussian 16:  ES64L-G16RevA.03 25-Dec-2016

 --------------------------------
 #p wB97XD/Def2SVP td=(nstates=5)
 --------------------------------

 -----------------------------------------------------
 step_1801_chromophore_22 TDDFT with wB97XD functional
 -----------------------------------------------------
 Symbolic Z-matrix:
 Charge =  0 Multiplicity = 1

                         Standard orientation:
 ---------------------------------------------------------------------
 Center     Atomic      Atomic             Coordinates (Angstroms)
 Number     Number       Type             X           Y           Z
 ---------------------------------------------------------------------
      1         12           0        6.249368    0.483526    0.215683
      2          6           0        4.249366   -2.402678   -0.128913
      3          6           0        3.624730    2.325639   -0.948648
      4          6           0        8.286766    3.202213   -0.111588
      5          6           0        9.033163   -1.608989    0.499795
      6          7           0        4.146586   -0.037306   -0.592935
      7          6           0        3.521585   -1.257573   -0.589990
      8          6           0        2.047581   -1.073743   -0.996143
      9          6           0        1.950762    0.462956   -1.561307
     10          6           0        3.312784    0.977350   -1.076637
     11          6           0        1.714850    0.615541   -3.160586
     12          6           0        0.916687   -1.564470   -0.009380
     13          6           0       -0.439155   -0.738479    0.049793
     14          6           0       -1.663141   -1.566471    0.528619
     15          8           0       -1.765779   -2.281478    1.501725
     16          8           0       -2.682246   -1.313548   -0.316922
     17          7           0        5.938647    2.519934   -0.164766
     18          6           0        4.782422    3.039155   -0.576857
     19          6           0        4.933788    4.542415   -0.532890
     20          6           0        6.327228    4.809920   -0.175769
     21          6           0        6.916523    3.475579   -0.182727
     22          6           0        3.883769    5.519217   -0.986022
     23          6           0        7.069587    6.094238    0.089903
     24          8           0        8.327533    6.275591    0.244655
     25          6           0        6.247807    7.351905    0.087851
     26          7           0        8.354567    0.756788    0.035005
     27          6           0        8.884922    1.982787   -0.042521
     28          6           0       10.342225    1.893276    0.141879
     29          6           0       10.633824    0.366703    0.383289
     30          6           0        9.262521   -0.229864    0.385368
     31          6           0       11.110913    2.578956   -0.971730
     32          6           0       11.536552    0.068548    1.597009
     33          6           0       12.970411    0.453028    1.471893
     34          7           0        6.617634   -1.650764    0.149338
     35          6           0        7.792360   -2.285518    0.400834
     36          6           0        7.480886   -3.681497    0.506269
     37          6           0        6.078055   -3.781842    0.296597
     38          6           0        5.620035   -2.499237    0.085603
     39          6           0        8.473954   -4.730353    0.715520
     40          6           0        5.006682   -4.728473    0.297177
     41          8           0        4.916382   -5.982967    0.513094
     42          6           0        3.706509   -3.859162   -0.134450
     43          6           0        2.750862   -4.047412    0.919655
     44          8           0        2.754575   -3.615245    2.061697
     45          8           0        1.760559   -4.757252    0.318630
     46          6           0        0.593009   -5.074580    1.245970
     47          6           0       -3.858962   -2.119433    0.085597
     48          6           0       -4.991543   -1.685174   -0.846005
     49          6           0       -6.316729   -1.957567   -0.726774
     50          6           0       -6.877014   -2.860387    0.406437
     51          6           0       -7.341689   -1.820461   -1.878485
     52          6           0       -8.589580   -0.954106   -1.591665
     53          6           0       -9.118692   -0.221171   -2.837132
     54          6           0      -10.643242   -0.481203   -2.972472
     55          6           0      -11.044360   -0.285406   -4.475913
     56          6           0      -11.489039    0.461021   -1.943367
     57          6           0      -12.277325   -0.224594   -0.837305
     58          6           0      -13.816289   -0.145225   -1.133049
     59          6           0      -14.495471    1.043846   -0.405539
     60          6           0      -15.454441    1.762779   -1.451468
     61          6           0      -15.336908    0.796577    0.821615
     62          6           0      -15.028040    1.855456    1.922238
     63          6           0      -14.004211    1.517658    2.995802
     64          6           0      -13.435517    2.641062    3.946353
     65          6           0      -12.225574    3.374668    3.402351
     66          6           0      -13.102712    2.090457    5.381663
     67          1           0        2.815564    2.896033   -1.408300
     68          1           0        8.933933    4.057494   -0.317253
     69          1           0        9.953904   -2.189114    0.585776
     70          1           0        2.026547   -1.776647   -1.828007
     71          1           0        1.315832    1.193217   -1.059689
     72          1           0        1.501643   -0.353841   -3.610614
     73          1           0        2.629262    1.092547   -3.514598
     74          1           0        0.934747    1.366997   -3.280619
     75          1           0        1.307511   -1.637682    1.006016
     76          1           0        0.626774   -2.594767   -0.215705
     77          1           0       -0.572509   -0.115966   -0.834843
     78          1           0       -0.325848   -0.064499    0.899260
     79          1           0        4.199382    6.132489   -1.829704
     80          1           0        3.602871    6.172254   -0.159500
     81          1           0        2.940287    5.085653   -1.316709
     82          1           0        6.876087    8.166171    0.448690
     83          1           0        5.393598    7.225384    0.752292
     84          1           0        6.001393    7.576967   -0.949297
     85          1           0       10.528215    2.410727    1.082049
     86          1           0       11.185766    0.042577   -0.499329
     87          1           0       11.902004    1.906544   -1.303685
     88          1           0       11.551068    3.490634   -0.568367
     89          1           0       10.484695    2.967315   -1.776007
     90          1           0       11.388804   -0.962487    1.920943
     91          1           0       11.052558    0.682389    2.356817
     92          1           0       13.179603    1.400475    1.968329
     93          1           0       13.231315    0.601307    0.424172
     94          1           0       13.615898   -0.349384    1.828669
     95          1           0        8.665561   -5.101489   -0.291464
     96          1           0        8.060291   -5.450195    1.420818
     97          1           0        9.457225   -4.377778    1.028586
     98          1           0        3.393828   -4.202090   -1.119535
     99          1           0       -0.277124   -4.744279    0.678101
    100          1           0        0.627415   -4.581671    2.217409
    101          1           0        0.567791   -6.146776    1.441136
    102          1           0       -4.165958   -1.828174    1.090075
    103          1           0       -3.611201   -3.163694   -0.104780
    104          1           0       -4.685043   -1.206660   -1.776491
    105          1           0       -7.963641   -2.802672    0.479071
    106          1           0       -6.550794   -2.300127    1.283362
    107          1           0       -6.516551   -3.888449    0.406257
    108          1           0       -7.752113   -2.824025   -1.986582
    109          1           0       -6.862539   -1.489910   -2.799824
    110          1           0       -8.373565   -0.171432   -0.864062
    111          1           0       -9.339010   -1.512797   -1.029813
    112          1           0       -8.574156   -0.586196   -3.708025
    113          1           0       -8.889605    0.843994   -2.837739
    114          1           0      -10.976920   -1.495025   -2.750196
    115          1           0      -11.784476   -1.039909   -4.746187
    116          1           0      -10.203860   -0.255706   -5.169978
    117          1           0      -11.536622    0.683007   -4.564909
    118          1           0      -12.054062    1.131581   -2.591429
    119          1           0      -10.902851    1.203542   -1.403094
    120          1           0      -12.120780    0.335632    0.083624
    121          1           0      -12.018272   -1.282134   -0.877707
    122          1           0      -14.280136   -1.093227   -0.859873
    123          1           0      -13.981680   -0.109692   -2.209027
    124          1           0      -13.747744    1.800775   -0.168389
    125          1           0      -16.222223    1.038402   -1.721726
    126          1           0      -14.821268    2.193573   -2.227702
    127          1           0      -16.029557    2.560334   -0.980961
    128          1           0      -15.137504   -0.218320    1.163036
    129          1           0      -16.364351    0.788949    0.455801
    130          1           0      -16.006478    2.099881    2.335516
    131          1           0      -14.642796    2.803524    1.546686
    132          1           0      -13.179164    1.034434    2.473152
    133          1           0      -14.476610    0.763101    3.624621
    134          1           0      -14.184449    3.426607    4.041148
    135          1           0      -12.056728    4.358386    3.839825
    136          1           0      -12.497424    3.709427    2.401447
    137          1           0      -11.321502    2.765302    3.409331
    138          1           0      -13.742585    2.479536    6.173300
    139          1           0      -12.079095    2.398014    5.595942
    140          1           0      -13.086136    1.000659    5.364274
 ---------------------------------------------------------------------

 SCF Done:  E(RwB97XD) =  -3007.83986154     A.U. after   19 cycles

 Excitation energies and oscillator strengths:

 Excited State   1:      Singlet-A      1.6226 eV  764.09 nm  f=0.4068  <S**2>=0.000
     245 -> 248        0.18079
     246 -> 247        0.68416
     245 <- 248        0.11617
 This state for optimization and/or second-order correction.
 Total Energy, E(TD-HF/TD-DFT) =  -3007.78023044
 Copying the excited state density for this state as the 1-particle RhoCI density.

 Excited State   2:      Singlet-A      2.1569 eV  574.82 nm  f=0.1108  <S**2>=0.000
     245 -> 247        0.64290
     246 -> 248       -0.27532

 Excited State   3:      Singlet-A      3.3248 eV  372.91 nm  f=0.0013  <S**2>=0.000
     243 -> 247        0.31080
     243 -> 249       -0.18133
     243 -> 250        0.19777
     244 -> 247        0.52886
     244 -> 249       -0.10116

 Excited State   4:      Singlet-A      3.3840 eV  366.39 nm  f=0.0012  <S**2>=0.000
     239 -> 247       -0.13370
     239 -> 249       -0.10121
     240 -> 249       -0.14009
     241 -> 247        0.36606
     241 -> 249        0.11483
     243 -> 247        0.36045
     243 -> 249       -0.15424
     243 -> 250        0.16655
     244 -> 247       -0.28288

 Excited State   5:      Singlet-A      3.4054 eV  364.08 nm  f=0.0027  <S**2>=0.000
     239 -> 247        0.14818
     239 -> 249        0.17427
     240 -> 247        0.29692
     240 -> 249        0.21478
     240 -> 250        0.10421
     241 -> 247       -0.23702
     243 -> 247        0.27325
     243 -> 249       -0.15342
     243 -> 250        0.14946
     244 -> 247       -0.24706

 The electronic state is 1-A.
 Alpha  occ. eigenvalues --  -46.96238 -19.30838 -19.29631 -19.25308 -19.24255
 Alpha  occ. eigenvalues --  -19.23802 -19.23449 -14.46906 -14.46112 -14.44741
 Alpha  occ. eigenvalues --  -14.43171 -10.43534 -10.41822 -10.39875 -10.38943
 Alpha  occ. eigenvalues --  -10.36513 -10.35695 -10.35420 -10.35356 -10.34753
 Alpha  occ. eigenvalues --  -10.34747 -10.34679 -10.34358 -10.33967 -10.33798
 Alpha  occ. eigenvalues --  -10.33669 -10.33101 -10.32381 -10.32353 -10.32030
 Alpha  occ. eigenvalues --  -10.31999 -10.31615 -10.31531 -10.31524 -10.31500
 Alpha  occ. eigenvalues --  -10.31415 -10.31357 -10.31319 -10.31094 -10.30845
 Alpha  occ. eigenvalues --  -10.30505 -10.30306 -10.30097 -10.30031 -10.29972
 Alpha  occ. eigenvalues --  -10.29905 -10.29902 -10.29846 -10.29601 -10.29296
 Alpha  occ. eigenvalues --  -10.29284 -10.29225 -10.29172 -10.29136 -10.29005
 Alpha  occ. eigenvalues --  -10.29000 -10.28927 -10.28900 -10.28785 -10.28783
 Alpha  occ. eigenvalues --  -10.28599 -10.28484 -10.28399 -10.28342 -10.28330
 Alpha  occ. eigenvalues --  -10.28321  -3.22034  -1.95598  -1.95132  -1.95003
 Alpha  occ. eigenvalues --   -1.20109  -1.17471  -1.10794  -1.09578  -1.08989
 Alpha  occ. eigenvalues --   -1.08489  -1.06842  -1.06438  -1.05527  -1.04228
 Alpha  occ. eigenvalues --   -0.94336  -0.91914  -0.91529  -0.91374  -0.90827
 Alpha  occ. eigenvalues --   -0.90338  -0.89962  -0.89923  -0.89483  -0.89175
 Alpha  occ. eigenvalues --   -0.88764  -0.87224  -0.86491  -0.86032  -0.85519
 Alpha  occ. eigenvalues --   -0.84484  -0.84163  -0.83587  -0.82887  -0.82395
 Alpha  occ. eigenvalues --   -0.81782  -0.80828  -0.80125  -0.79488  -0.77681
 Alpha  occ. eigenvalues --   -0.77306  -0.77273  -0.77185  -0.76346  -0.76084
 Alpha  occ. eigenvalues --   -0.75318  -0.74650  -0.74255  -0.72600  -0.71129
 Alpha  occ. eigenvalues --   -0.70708  -0.69954  -0.69708  -0.68724  -0.67800
 Alpha  occ. eigenvalues --   -0.67641  -0.67486  -0.67010  -0.66426  -0.66167
 Alpha  occ. eigenvalues --   -0.65374  -0.64944  -0.64789  -0.63251  -0.62669
 Alpha  occ. eigenvalues --   -0.61727  -0.61459  -0.61052  -0.60284  -0.59890
 Alpha  occ. eigenvalues --   -0.59530  -0.59338  -0.58583  -0.57978  -0.57482
 Alpha  occ. eigenvalues --   -0.57036  -0.56753  -0.56270  -0.56027  -0.55777
 Alpha  occ. eigenvalues --   -0.55507  -0.55140  -0.55081  -0.54708  -0.54674
 Alpha  occ. eigenvalues --   -0.54447  -0.54340  -0.54102  -0.53973  -0.53549
 Alpha  occ. eigenvalues --   -0.53424  -0.53329  -0.53258  -0.52884  -0.52519
 Alpha  occ. eigenvalues --   -0.52508  -0.52243  -0.52115  -0.52024  -0.51620
 Alpha  occ. eigenvalues --   -0.51455  -0.51341  -0.50806  -0.50704  -0.50613
 Alpha  occ. eigenvalues --   -0.50493  -0.50312  -0.50236  -0.49993  -0.49813
 Alpha  occ. eigenvalues --   -0.49603  -0.49420  -0.49340  -0.49114  -0.48892
 Alpha  occ. eigenvalues --   -0.48472  -0.48145  -0.47941  -0.47926  -0.47743
 Alpha  occ. eigenvalues --   -0.47516  -0.47461  -0.47254  -0.47097  -0.46673
 Alpha  occ. eigenvalues --   -0.46598  -0.46476  -0.46393  -0.45947  -0.45749
 Alpha  occ. eigenvalues --   -0.45706  -0.45578  -0.45310  -0.45105  -0.44974
 Alpha  occ. eigenvalues --   -0.44885  -0.44517  -0.44472  -0.44310  -0.43798
 Alpha  occ. eigenvalues --   -0.43664  -0.43478  -0.43167  -0.43022  -0.42894
 Alpha  occ. eigenvalues --   -0.42690  -0.42599  -0.42040  -0.41843  -0.41698
 Alpha  occ. eigenvalues --   -0.41490  -0.41243  -0.40771  -0.40726  -0.40533
 Alpha  occ. eigenvalues --   -0.40479  -0.40105  -0.40051  -0.39932  -0.39204
 Alpha  occ. eigenvalues --   -0.39154  -0.39103  -0.38890  -0.38677  -0.38421
 Alpha  occ. eigenvalues --   -0.37790  -0.37457  -0.37024  -0.36641  -0.35980
 Alpha  occ. eigenvalues --   -0.35914  -0.35752  -0.35568  -0.33593  -0.33028
 Alpha  occ. eigenvalues --   -0.32502  -0.32164  -0.32047  -0.31343  -0.26130
 Alpha  occ. eigenvalues --   -0.23090
 Alpha virt. eigenvalues --   -0.07406   0.00125   0.01307   0.03702   0.04550
 Alpha virt. eigenvalues --    0.07202   0.07630   0.08259   0.08396   0.09839
 Alpha virt. eigenvalues --    0.10405   0.11354   0.11846   0.12029   0.12434

 Mulliken charges:
               1
     1  Mg   0.948439
     2  C   -0.067836
     3  C   -0.072538
     4  C   -0.088213
     5  C   -0.095400
     6  N   -0.353874
     7  C    0.007318
     8  C    0.009027
     9  C   -0.151558
    10  C    0.025981
    11  C    0.032096
    12  C   -0.021712
    13  C    0.022744
    14  C    0.190249
    15  O   -0.260724
    16  O   -0.350376
    17  N   -0.436586
    18  C    0.187273
    19  C   -0.154904
    20  C   -0.067743
    21  C    0.129236
    22  C    0.055865
    23  C    0.065278
    24  O   -0.280821
    25  C   -0.008604
    26  N   -0.391607
    27  C    0.105858
    28  C   -0.120683
    29  C   -0.054882
    30  C    0.069091
    31  C    0.028697
    32  C   -0.023952
    33  C   -0.016643
    34  N   -0.373295
    35  C    0.140020
    36  C   -0.188479
    37  C   -0.018333
    38  C    0.159278
    39  C    0.088936
    40  C    0.124712
    41  O   -0.262915
    42  C   -0.124011
    43  C    0.280300
    44  O   -0.250710
    45  O   -0.375146
    46  C    0.116151
    47  C    0.260940
    48  C   -0.175458
    49  C   -0.182368
    50  C    0.006514
    51  C    0.031702
    52  C   -0.038093
    53  C    0.018214
    54  C   -0.194145
    55  C    0.001830
    56  C   -0.003354
    57  C   -0.025095
    58  C    0.025263
    59  C   -0.215621
    60  C   -0.026728
    61  C    0.064197
    62  C   -0.037700
    63  C    0.009703
    64  C   -0.204126
    65  C   -0.008581
    66  C    0.000378
    67  H   -0.015276
    68  H    0.025744
    69  H    0.003983
    70  H    0.030629
    71  H    0.051045
    72  H    0.057931
    73  H    0.045899
    74  H    0.040868
    75  H    0.062411
    76  H    0.040131
    77  H    0.054774
    78  H    0.056546
    79  H    0.058064
    80  H    0.047510
    81  H    0.031163
    82  H    0.054217
    83  H    0.051424
    84  H    0.061540
    85  H    0.041293
    86  H    0.024497
    87  H    0.034233
    88  H    0.039048
    89  H    0.048050
    90  H    0.026349
    91  H    0.018831
    92  H    0.043631
    93  H    0.019639
    94  H    0.041244
    95  H    0.056370
    96  H    0.071567
    97  H    0.021443
    98  H    0.079077
    99  H    0.055821
   100  H    0.082969
   101  H    0.063669
   102  H    0.065435
   103  H    0.065702
   104  H    0.028088
   105  H    0.032232
   106  H    0.035975
   107  H    0.066300
   108  H    0.036074
   109  H    0.022655
   110  H    0.015885
   111  H    0.021877
   112  H    0.012758
   113  H    0.029941
   114  H    0.021013
   115  H    0.032617
   116  H    0.030972
   117  H    0.016820
   118  H    0.006659
   119  H    0.009908
   120  H    0.035156
   121  H    0.026786
   122  H    0.004298
   123  H    0.011795
   124  H    0.012337
   125  H    0.031667
   126  H    0.037716
   127  H    0.019624
   128  H    0.008801
   129  H    0.012356
   130  H    0.016305
   131  H    0.011358
   132  H    0.010385
   133  H    0.017520
   134  H    0.018955
   135  H    0.030032
   136  H    0.010848
   137  H    0.038150
   138  H    0.040613
   139  H    0.017161
   140  H    0.028414
 Sum of Mulliken charges =  -0.00000

 Dipole moment (field-independent basis, Debye):
    X=             -3.5577    Y=              4.5244    Z=             -3.0138  Tot=              6.4969
 Quadrupole moment (field-independent basis, Debye-Ang):
   XX=           -372.8672   YY=           -426.9530   ZZ=           -406.7503
   XY=              6.1718   XZ=             -4.0393   YZ=              5.2916

 Normal termination of Gaussian 16 at Fri Apr 29 01:03:52 2022.
