 Gaussian 16, Revision A.03,
 Gaussian 16:  ES64L-G16RevA.03 25-Dec-2016

 --------------------
 #p ZINDO=(nstates=5)
 --------------------

 ------------------------------
 step_1801_chromophore_22 ZINDO
 ------------------------------
 Symbolic Z-matrix:
 Charge =  0 Multiplicity = 1

                         Standard orientation:
 ---------------------------------------------------------------------
 Center     Atomic      Atomic             Coordinates (Angstroms)
 Number     Number       Type             X           Y           Z
 ---------------------------------------------------------------------
      1         12           0        6.249368    0.483526    0.215683
      2          6           0        4.249366   -2.402678   -0.128913
      3          6           0        3.624730    2.325639   -0.948648
      4          6           0        8.286766    3.202213   -0.111588
      5          6           0        9.033163   -1.608989    0.499795
      6          7           0        4.146586   -0.037306   -0.592935
      7          6           0        3.521585   -1.257573   -0.589990
      8          6           0        2.047581   -1.073743   -0.996143
      9          6           0        1.950762    0.462956   -1.561307
     10          6           0        3.312784    0.977350   -1.076637
     11          6           0        1.714850    0.615541   -3.160586
     12          6           0        0.916687   -1.564470   -0.009380
     13          6           0       -0.439155   -0.738479    0.049793
     14          6           0       -1.663141   -1.566471    0.528619
     15          8           0       -1.765779   -2.281478    1.501725
     16          8           0       -2.682246   -1.313548   -0.316922
     17          7           0        5.938647    2.519934   -0.164766
     18          6           0        4.782422    3.039155   -0.576857
     19          6           0        4.933788    4.542415   -0.532890
     20          6           0        6.327228    4.809920   -0.175769
     21          6           0        6.916523    3.475579   -0.182727
     22          6           0        3.883769    5.519217   -0.986022
     23          6           0        7.069587    6.094238    0.089903
     24          8           0        8.327533    6.275591    0.244655
     25          6           0        6.247807    7.351905    0.087851
     26          7           0        8.354567    0.756788    0.035005
     27          6           0        8.884922    1.982787   -0.042521
     28          6           0       10.342225    1.893276    0.141879
     29          6           0       10.633824    0.366703    0.383289
     30          6           0        9.262521   -0.229864    0.385368
     31          6           0       11.110913    2.578956   -0.971730
     32          6           0       11.536552    0.068548    1.597009
     33          6           0       12.970411    0.453028    1.471893
     34          7           0        6.617634   -1.650764    0.149338
     35          6           0        7.792360   -2.285518    0.400834
     36          6           0        7.480886   -3.681497    0.506269
     37          6           0        6.078055   -3.781842    0.296597
     38          6           0        5.620035   -2.499237    0.085603
     39          6           0        8.473954   -4.730353    0.715520
     40          6           0        5.006682   -4.728473    0.297177
     41          8           0        4.916382   -5.982967    0.513094
     42          6           0        3.706509   -3.859162   -0.134450
     43          6           0        2.750862   -4.047412    0.919655
     44          8           0        2.754575   -3.615245    2.061697
     45          8           0        1.760559   -4.757252    0.318630
     46          6           0        0.593009   -5.074580    1.245970
     47          6           0       -3.858962   -2.119433    0.085597
     48          6           0       -4.991543   -1.685174   -0.846005
     49          6           0       -6.316729   -1.957567   -0.726774
     50          6           0       -6.877014   -2.860387    0.406437
     51          6           0       -7.341689   -1.820461   -1.878485
     52          6           0       -8.589580   -0.954106   -1.591665
     53          6           0       -9.118692   -0.221171   -2.837132
     54          6           0      -10.643242   -0.481203   -2.972472
     55          6           0      -11.044360   -0.285406   -4.475913
     56          6           0      -11.489039    0.461021   -1.943367
     57          6           0      -12.277325   -0.224594   -0.837305
     58          6           0      -13.816289   -0.145225   -1.133049
     59          6           0      -14.495471    1.043846   -0.405539
     60          6           0      -15.454441    1.762779   -1.451468
     61          6           0      -15.336908    0.796577    0.821615
     62          6           0      -15.028040    1.855456    1.922238
     63          6           0      -14.004211    1.517658    2.995802
     64          6           0      -13.435517    2.641062    3.946353
     65          6           0      -12.225574    3.374668    3.402351
     66          6           0      -13.102712    2.090457    5.381663
     67          1           0        2.815564    2.896033   -1.408300
     68          1           0        8.933933    4.057494   -0.317253
     69          1           0        9.953904   -2.189114    0.585776
     70          1           0        2.026547   -1.776647   -1.828007
     71          1           0        1.315832    1.193217   -1.059689
     72          1           0        1.501643   -0.353841   -3.610614
     73          1           0        2.629262    1.092547   -3.514598
     74          1           0        0.934747    1.366997   -3.280619
     75          1           0        1.307511   -1.637682    1.006016
     76          1           0        0.626774   -2.594767   -0.215705
     77          1           0       -0.572509   -0.115966   -0.834843
     78          1           0       -0.325848   -0.064499    0.899260
     79          1           0        4.199382    6.132489   -1.829704
     80          1           0        3.602871    6.172254   -0.159500
     81          1           0        2.940287    5.085653   -1.316709
     82          1           0        6.876087    8.166171    0.448690
     83          1           0        5.393598    7.225384    0.752292
     84          1           0        6.001393    7.576967   -0.949297
     85          1           0       10.528215    2.410727    1.082049
     86          1           0       11.185766    0.042577   -0.499329
     87          1           0       11.902004    1.906544   -1.303685
     88          1           0       11.551068    3.490634   -0.568367
     89          1           0       10.484695    2.967315   -1.776007
     90          1           0       11.388804   -0.962487    1.920943
     91          1           0       11.052558    0.682389    2.356817
     92          1           0       13.179603    1.400475    1.968329
     93          1           0       13.231315    0.601307    0.424172
     94          1           0       13.615898   -0.349384    1.828669
     95          1           0        8.665561   -5.101489   -0.291464
     96          1           0        8.060291   -5.450195    1.420818
     97          1           0        9.457225   -4.377778    1.028586
     98          1           0        3.393828   -4.202090   -1.119535
     99          1           0       -0.277124   -4.744279    0.678101
    100          1           0        0.627415   -4.581671    2.217409
    101          1           0        0.567791   -6.146776    1.441136
    102          1           0       -4.165958   -1.828174    1.090075
    103          1           0       -3.611201   -3.163694   -0.104780
    104          1           0       -4.685043   -1.206660   -1.776491
    105          1           0       -7.963641   -2.802672    0.479071
    106          1           0       -6.550794   -2.300127    1.283362
    107          1           0       -6.516551   -3.888449    0.406257
    108          1           0       -7.752113   -2.824025   -1.986582
    109          1           0       -6.862539   -1.489910   -2.799824
    110          1           0       -8.373565   -0.171432   -0.864062
    111          1           0       -9.339010   -1.512797   -1.029813
    112          1           0       -8.574156   -0.586196   -3.708025
    113          1           0       -8.889605    0.843994   -2.837739
    114          1           0      -10.976920   -1.495025   -2.750196
    115          1           0      -11.784476   -1.039909   -4.746187
    116          1           0      -10.203860   -0.255706   -5.169978
    117          1           0      -11.536622    0.683007   -4.564909
    118          1           0      -12.054062    1.131581   -2.591429
    119          1           0      -10.902851    1.203542   -1.403094
    120          1           0      -12.120780    0.335632    0.083624
    121          1           0      -12.018272   -1.282134   -0.877707
    122          1           0      -14.280136   -1.093227   -0.859873
    123          1           0      -13.981680   -0.109692   -2.209027
    124          1           0      -13.747744    1.800775   -0.168389
    125          1           0      -16.222223    1.038402   -1.721726
    126          1           0      -14.821268    2.193573   -2.227702
    127          1           0      -16.029557    2.560334   -0.980961
    128          1           0      -15.137504   -0.218320    1.163036
    129          1           0      -16.364351    0.788949    0.455801
    130          1           0      -16.006478    2.099881    2.335516
    131          1           0      -14.642796    2.803524    1.546686
    132          1           0      -13.179164    1.034434    2.473152
    133          1           0      -14.476610    0.763101    3.624621
    134          1           0      -14.184449    3.426607    4.041148
    135          1           0      -12.056728    4.358386    3.839825
    136          1           0      -12.497424    3.709427    2.401447
    137          1           0      -11.321502    2.765302    3.409331
    138          1           0      -13.742585    2.479536    6.173300
    139          1           0      -12.079095    2.398014    5.595942
    140          1           0      -13.086136    1.000659    5.364274
 ---------------------------------------------------------------------

 SCF Done:  E(RZINDO/S) =  -474.160382748     A.U. after   20 cycles

 Excitation energies and oscillator strengths:

 Excited State   1:      Singlet-A      1.2308 eV 1007.34 nm  f=0.6338  <S**2>=0.000
     175 ->178        -0.18115
     176 ->177         0.66593
 This state for optimization and/or second-order correction.
 Total Energy, E(CIS/TDA) =  -474.115151511
 Copying the excited state density for this state as the 1-particle RhoCI density.

 Excited State   2:      Singlet-A      1.9055 eV  650.65 nm  f=0.0563  <S**2>=0.000
     175 ->177         0.55708
     176 ->178         0.40437

 Excited State   3:      Singlet-A      2.8649 eV  432.77 nm  f=0.0022  <S**2>=0.000
     167 ->177        -0.26321
     167 ->179         0.40869
     167 ->181        -0.17658
     167 ->186         0.17184
     168 ->177        -0.16538
     168 ->179         0.22217
     171 ->177        -0.13359

 Excited State   4:      Singlet-A      2.9105 eV  425.99 nm  f=0.0284  <S**2>=0.000
     176 ->179         0.59717
     176 ->180         0.28646
     176 ->181         0.10696

 Excited State   5:      Singlet-A      2.9487 eV  420.48 nm  f=0.4723  <S**2>=0.000
     170 ->177        -0.12156
     170 ->179        -0.10080
     170 ->181        -0.16056
     171 ->177         0.12551
     175 ->177        -0.25778
     176 ->178         0.40031
     176 ->179         0.17226
     176 ->180        -0.34692

 The electronic state is 1-A.
 Alpha  occ. eigenvalues --   -1.85621  -1.83438  -1.78975  -1.75672  -1.72568
 Alpha  occ. eigenvalues --   -1.70232  -1.64883  -1.59770  -1.56422  -1.55448
 Alpha  occ. eigenvalues --   -1.54309  -1.50358  -1.49150  -1.47026  -1.45814
 Alpha  occ. eigenvalues --   -1.43650  -1.42021  -1.41386  -1.39486  -1.38865
 Alpha  occ. eigenvalues --   -1.36112  -1.34460  -1.32720  -1.31754  -1.28942
 Alpha  occ. eigenvalues --   -1.28398  -1.26098  -1.22167  -1.20993  -1.18887
 Alpha  occ. eigenvalues --   -1.17405  -1.15474  -1.15073  -1.13677  -1.13532
 Alpha  occ. eigenvalues --   -1.12492  -1.10957  -1.10723  -1.05022  -1.03472
 Alpha  occ. eigenvalues --   -1.02285  -1.01557  -0.98555  -0.96915  -0.95658
 Alpha  occ. eigenvalues --   -0.94999  -0.94223  -0.93537  -0.92849  -0.92064
 Alpha  occ. eigenvalues --   -0.91946  -0.91130  -0.89723  -0.88478  -0.87389
 Alpha  occ. eigenvalues --   -0.86622  -0.83907  -0.83258  -0.82012  -0.81051
 Alpha  occ. eigenvalues --   -0.79757  -0.78590  -0.76515  -0.76208  -0.75624
 Alpha  occ. eigenvalues --   -0.75088  -0.74477  -0.73797  -0.73644  -0.73254
 Alpha  occ. eigenvalues --   -0.73216  -0.72222  -0.71537  -0.71386  -0.70468
 Alpha  occ. eigenvalues --   -0.69691  -0.69167  -0.68679  -0.68219  -0.68019
 Alpha  occ. eigenvalues --   -0.67671  -0.67470  -0.66952  -0.66446  -0.65680
 Alpha  occ. eigenvalues --   -0.65078  -0.64765  -0.64289  -0.63966  -0.63628
 Alpha  occ. eigenvalues --   -0.63346  -0.63155  -0.62799  -0.62569  -0.62433
 Alpha  occ. eigenvalues --   -0.62097  -0.61781  -0.61244  -0.60919  -0.60691
 Alpha  occ. eigenvalues --   -0.60061  -0.59742  -0.59192  -0.58818  -0.58629
 Alpha  occ. eigenvalues --   -0.58135  -0.57616  -0.57305  -0.56941  -0.56388
 Alpha  occ. eigenvalues --   -0.56039  -0.55905  -0.55681  -0.55467  -0.54868
 Alpha  occ. eigenvalues --   -0.54521  -0.54087  -0.53640  -0.53348  -0.53169
 Alpha  occ. eigenvalues --   -0.52844  -0.52510  -0.52070  -0.51837  -0.51504
 Alpha  occ. eigenvalues --   -0.51039  -0.50839  -0.50659  -0.50585  -0.50282
 Alpha  occ. eigenvalues --   -0.50227  -0.49565  -0.49471  -0.49199  -0.49125
 Alpha  occ. eigenvalues --   -0.48601  -0.48429  -0.48015  -0.47847  -0.47462
 Alpha  occ. eigenvalues --   -0.47164  -0.46750  -0.46689  -0.46565  -0.46283
 Alpha  occ. eigenvalues --   -0.46186  -0.45891  -0.45462  -0.45293  -0.44924
 Alpha  occ. eigenvalues --   -0.44723  -0.44519  -0.44383  -0.44288  -0.43914
 Alpha  occ. eigenvalues --   -0.43439  -0.43060  -0.42875  -0.42845  -0.42644
 Alpha  occ. eigenvalues --   -0.41554  -0.41539  -0.40665  -0.38941  -0.38827
 Alpha  occ. eigenvalues --   -0.37419  -0.36461  -0.36020  -0.35127  -0.34270
 Alpha  occ. eigenvalues --   -0.33434  -0.32641  -0.32491  -0.31580  -0.26837
 Alpha  occ. eigenvalues --   -0.21883
 Alpha virt. eigenvalues --   -0.08939  -0.02135  -0.01473   0.00546   0.00727
 Alpha virt. eigenvalues --    0.02125   0.02647   0.03663   0.04019   0.04617
 Alpha virt. eigenvalues --    0.05739   0.06138   0.06904   0.07539   0.07951

 Mulliken charges:
               1
     1  Mg   0.432600
     2  C   -0.041574
     3  C   -0.084740
     4  C   -0.076367
     5  C   -0.061372
     6  N   -0.303976
     7  C    0.113065
     8  C    0.012059
     9  C   -0.012222
    10  C    0.139115
    11  C   -0.053004
    12  C   -0.026215
    13  C   -0.004903
    14  C    0.471639
    15  O   -0.514965
    16  O   -0.270695
    17  N   -0.314084
    18  C    0.140457
    19  C    0.020045
    20  C   -0.047258
    21  C    0.154526
    22  C   -0.037351
    23  C    0.330585
    24  O   -0.540832
    25  C   -0.029913
    26  N   -0.280421
    27  C    0.178517
    28  C    0.002007
    29  C    0.000906
    30  C    0.096979
    31  C   -0.049491
    32  C   -0.025254
    33  C   -0.050720
    34  N   -0.314595
    35  C    0.074219
    36  C    0.033568
    37  C   -0.060430
    38  C    0.133240
    39  C   -0.037893
    40  C    0.320239
    41  O   -0.550147
    42  C    0.047960
    43  C    0.507703
    44  O   -0.536660
    45  O   -0.276461
    46  C    0.064743
    47  C    0.108492
    48  C   -0.086899
    49  C   -0.028617
    50  C   -0.053504
    51  C   -0.019814
    52  C   -0.034246
    53  C   -0.026541
    54  C   -0.017407
    55  C   -0.065224
    56  C   -0.045459
    57  C   -0.037406
    58  C   -0.037500
    59  C   -0.017639
    60  C   -0.067238
    61  C   -0.025653
    62  C   -0.031414
    63  C   -0.028386
    64  C   -0.008975
    65  C   -0.053517
    66  C   -0.061416
    67  H    0.013277
    68  H    0.048839
    69  H    0.029738
    70  H    0.026382
    71  H    0.041007
    72  H    0.037913
    73  H    0.027807
    74  H    0.023684
    75  H    0.041664
    76  H    0.031989
    77  H    0.041922
    78  H    0.038802
    79  H    0.032727
    80  H    0.031581
    81  H    0.021907
    82  H    0.036759
    83  H    0.035017
    84  H    0.044204
    85  H    0.032245
    86  H    0.025436
    87  H    0.023600
    88  H    0.018247
    89  H    0.027514
    90  H    0.022419
    91  H    0.013974
    92  H    0.023069
    93  H    0.014391
    94  H    0.020464
    95  H    0.035269
    96  H    0.042701
    97  H    0.019125
    98  H    0.059300
    99  H    0.034118
   100  H    0.059998
   101  H    0.041244
   102  H    0.063181
   103  H    0.062271
   104  H    0.030592
   105  H    0.020625
   106  H    0.019426
   107  H    0.039153
   108  H    0.024710
   109  H    0.023216
   110  H    0.009562
   111  H    0.023506
   112  H    0.014258
   113  H    0.024409
   114  H    0.026043
   115  H    0.017581
   116  H    0.023593
   117  H    0.014325
   118  H    0.017852
   119  H    0.010942
   120  H    0.031130
   121  H    0.026211
   122  H    0.010479
   123  H    0.018751
   124  H    0.019027
   125  H    0.023990
   126  H    0.020274
   127  H    0.009392
   128  H    0.014867
   129  H    0.023741
   130  H    0.010146
   131  H    0.018169
   132  H    0.017844
   133  H    0.011975
   134  H    0.017302
   135  H    0.017195
   136  H    0.005446
   137  H    0.025853
   138  H    0.024552
   139  H    0.014777
   140  H    0.021035
 Sum of Mulliken charges =  -0.00000

 Dipole moment (field-independent basis, Debye):
    X=             -4.0445    Y=              8.3859    Z=             -6.3327  Tot=             11.2599
 N-N= 4.162690038834D+03 E-N= 0.000000000000D+00  KE=-8.999552925798D+03
 Leave Link  601 at Fri Apr 29 01:16:39 2022, MaxMem=  6710886400 cpu:               0.8 elap:               0.0
 (Enter /sw/apps/gaussian-16.0/g16/l9999.exe)
 1\1\GINC-BP1-COMPUTE163\SP\RZINDO CIS\STO-3G\C55H74Mg1N4O6\OF15641\29-
 Apr-2022\0\\#p ZINDO=(nstates=5)\\step_1801_chromophore_22 ZINDO\\0,1\
 Mg,0,8.233,47.703,26.118\C,0,5.933,47.61,28.792\C,0,10.682,48.442,28.3
 75\C,0,10.372,48.459,23.568\C,0,5.516,47.851,23.926\N,0,8.258,48.116,2
 8.393\C,0,7.229,47.969,29.287\C,0,7.776,48.116,30.719\C,0,9.298,48.699
 ,30.535\C,0,9.454,48.475,29.025\C,0,9.529,50.236,31.005\C,0,7.563,46.9
 33,31.743\C,0,8.696,46.661,32.823\C,0,8.187,45.952,34.108\O,0,7.504,44

 Normal termination of Gaussian 16 at Fri Apr 29 01:16:39 2022.
