 Gaussian 16, Revision A.03,
 Gaussian 16:  ES64L-G16RevA.03 25-Dec-2016

 ------------------------------
 #p blyp/Def2SVP td=(nstates=5)
 ------------------------------

 ---------------------------------------------------
 step_1651_chromophore_25 TDDFT with blyp functional
 ---------------------------------------------------
 Symbolic Z-matrix:
 Charge =  0 Multiplicity = 1

                         Standard orientation:
 ---------------------------------------------------------------------
 Center     Atomic      Atomic             Coordinates (Angstroms)
 Number     Number       Type             X           Y           Z
 ---------------------------------------------------------------------
      1         12           0        5.926305    0.412039    0.322052
      2          6           0        3.442161   -2.221748    0.101567
      3          6           0        3.390589    2.652941   -0.295334
      4          6           0        8.274957    2.796305   -0.141970
      5          6           0        8.357948   -2.024176    0.239987
      6          7           0        3.730807    0.226810   -0.185286
      7          6           0        2.895727   -0.904170   -0.014831
      8          6           0        1.442651   -0.563855   -0.106892
      9          6           0        1.425690    1.023542   -0.379959
     10          6           0        2.933560    1.324569   -0.270917
     11          6           0        0.811114    1.513221   -1.752534
     12          6           0        0.678208   -0.940275    1.250268
     13          6           0       -0.261428   -2.169014    1.236742
     14          6           0       -1.671594   -1.953549    1.781553
     15          8           0       -2.069519   -1.930089    2.938184
     16          8           0       -2.588808   -1.689049    0.780098
     17          7           0        5.817638    2.503088    0.078957
     18          6           0        4.685821    3.253427   -0.043331
     19          6           0        5.069866    4.600753   -0.299386
     20          6           0        6.533461    4.653763   -0.224923
     21          6           0        6.955862    3.277591   -0.109277
     22          6           0        3.978638    5.741536   -0.437698
     23          6           0        7.430062    5.885261   -0.374581
     24          8           0        8.665536    5.770396   -0.346591
     25          6           0        6.866472    7.248208   -0.540742
     26          7           0        8.033980    0.379440   -0.052673
     27          6           0        8.803523    1.490644   -0.129320
     28          6           0       10.269666    1.064745   -0.557126
     29          6           0       10.328679   -0.452568   -0.010679
     30          6           0        8.853332   -0.768799    0.013156
     31          6           0       10.588464    1.252301   -2.064621
     32          6           0       10.951977   -0.653406    1.353773
     33          6           0       10.103733   -0.146563    2.574112
     34          7           0        5.929232   -1.612130    0.211034
     35          6           0        7.028645   -2.462411    0.351944
     36          6           0        6.516460   -3.807329    0.437262
     37          6           0        5.145063   -3.738520    0.358137
     38          6           0        4.825418   -2.437511    0.221211
     39          6           0        7.290329   -5.103102    0.667869
     40          6           0        3.991873   -4.502591    0.420053
     41          8           0        3.753403   -5.724941    0.612436
     42          6           0        2.823725   -3.473956    0.183166
     43          6           0        2.190586   -3.946091   -1.004491
     44          8           0        2.658400   -3.949060   -2.134785
     45          8           0        1.013784   -4.504811   -0.597827
     46          6           0        0.132048   -5.009255   -1.629762
     47          6           0       -3.922990   -1.137665    1.137132
     48          6           0       -4.959270   -1.331830    0.065455
     49          6           0       -6.139015   -0.752683    0.052916
     50          6           0       -6.592463    0.359828    0.996369
     51          6           0       -7.199163   -1.203863   -0.976218
     52          6           0       -7.178238   -0.289649   -2.197696
     53          6           0       -8.360377    0.653649   -2.324876
     54          6           0       -9.527218    0.064022   -3.170937
     55          6           0      -10.190966    0.904095   -4.259352
     56          6           0      -10.559593   -0.716042   -2.279652
     57          6           0      -11.348786    0.244810   -1.390930
     58          6           0      -12.894404    0.051958   -1.660103
     59          6           0      -13.686444    0.003738   -0.318324
     60          6           0      -14.957070   -0.871336   -0.422564
     61          6           0      -13.874610    1.496974    0.198481
     62          6           0      -13.796830    1.682152    1.714292
     63          6           0      -12.665567    2.590368    2.276516
     64          6           0      -11.549323    1.786427    2.946731
     65          6           0      -11.857426    1.675859    4.474731
     66          6           0      -10.179490    2.396767    2.778423
     67          1           0        2.631982    3.437115   -0.352188
     68          1           0        9.099903    3.500695   -0.270347
     69          1           0        9.081029   -2.831878    0.376499
     70          1           0        1.047483   -1.012390   -1.018177
     71          1           0        0.979633    1.618944    0.417050
     72          1           0        0.249199    0.719133   -2.243296
     73          1           0        1.586713    1.765915   -2.474675
     74          1           0        0.052203    2.272346   -1.563023
     75          1           0        0.106521   -0.076914    1.589390
     76          1           0        1.395396   -1.165014    2.039247
     77          1           0        0.126327   -2.954025    1.886215
     78          1           0       -0.459818   -2.566204    0.240867
     79          1           0        4.235231    6.504117    0.299006
     80          1           0        2.916527    5.497754   -0.403244
     81          1           0        4.140070    6.070334   -1.464376
     82          1           0        6.295382    7.615549    0.311191
     83          1           0        6.430003    7.228065   -1.539295
     84          1           0        7.762000    7.868647   -0.504852
     85          1           0       10.933147    1.721581    0.006231
     86          1           0       10.931446   -1.108204   -0.638691
     87          1           0       11.617112    1.611007   -2.068931
     88          1           0        9.945291    2.032247   -2.473489
     89          1           0       10.611399    0.322119   -2.632694
     90          1           0       11.853685   -0.046533    1.437961
     91          1           0       11.291683   -1.686999    1.419866
     92          1           0       10.699982    0.412156    3.294253
     93          1           0        9.614726   -0.987495    3.066855
     94          1           0        9.374766    0.588931    2.235560
     95          1           0        8.329218   -4.900834    0.407101
     96          1           0        6.967986   -5.883069   -0.021203
     97          1           0        7.125736   -5.502189    1.668811
     98          1           0        2.153495   -3.386156    1.039226
     99          1           0       -0.405982   -5.909360   -1.332880
    100          1           0        0.670726   -5.271844   -2.541046
    101          1           0       -0.613552   -4.289270   -1.967394
    102          1           0       -3.608470   -0.156665    1.495090
    103          1           0       -4.415261   -1.582876    2.000522
    104          1           0       -4.764707   -2.047201   -0.734291
    105          1           0       -5.757765    0.798911    1.543155
    106          1           0       -7.355168    0.044366    1.709851
    107          1           0       -7.100974    1.193851    0.512910
    108          1           0       -8.188034   -0.974046   -0.580668
    109          1           0       -7.114446   -2.228382   -1.340241
    110          1           0       -7.049663   -0.807523   -3.148292
    111          1           0       -6.341533    0.410577   -2.191187
    112          1           0       -8.116492    1.586773   -2.833133
    113          1           0       -8.728431    0.918216   -1.333563
    114          1           0       -9.064361   -0.757223   -3.717788
    115          1           0      -11.208374    1.122353   -3.934413
    116          1           0      -10.378711    0.246933   -5.108094
    117          1           0       -9.662512    1.832518   -4.475851
    118          1           0       -9.973992   -1.399461   -1.664766
    119          1           0      -11.197468   -1.443757   -2.780291
    120          1           0      -11.209138    1.290941   -1.662237
    121          1           0      -10.901525    0.035249   -0.419396
    122          1           0      -13.176614   -0.698961   -2.398120
    123          1           0      -13.257961    0.943943   -2.171980
    124          1           0      -13.000644   -0.513172    0.352995
    125          1           0      -14.715910   -1.741017    0.189524
    126          1           0      -15.122380   -1.266207   -1.424795
    127          1           0      -15.894424   -0.423656   -0.093822
    128          1           0      -14.807996    1.897326   -0.197221
    129          1           0      -13.201994    2.208601   -0.279520
    130          1           0      -13.715805    0.666614    2.099602
    131          1           0      -14.762204    2.044842    2.070098
    132          1           0      -13.078042    3.369624    2.916702
    133          1           0      -12.286141    3.210754    1.464017
    134          1           0      -11.457559    0.791979    2.508264
    135          1           0      -11.700485    2.644380    4.948564
    136          1           0      -11.149433    0.954641    4.882400
    137          1           0      -12.908453    1.388125    4.450140
    138          1           0       -9.876717    2.918315    3.687028
    139          1           0       -9.985475    2.959735    1.865485
    140          1           0       -9.565278    1.502824    2.669914
 ---------------------------------------------------------------------

 SCF Done:  E(RB-LYP) =  -3007.34344123     A.U. after   21 cycles

 Excitation energies and oscillator strengths:

 Excited State   1:      Singlet-A      1.8107 eV  684.73 nm  f=0.2917  <S**2>=0.000
     245 -> 248        0.20579
     246 -> 247        0.68628
     246 <- 247       -0.14484
 This state for optimization and/or second-order correction.
 Total Energy, E(TD-HF/TD-DFT) =  -3007.27689954
 Copying the excited state density for this state as the 1-particle RhoCI density.

 Excited State   2:      Singlet-A      1.8388 eV  674.26 nm  f=0.0009  <S**2>=0.000
     244 -> 247        0.70385

 Excited State   3:      Singlet-A      1.8706 eV  662.81 nm  f=0.0305  <S**2>=0.000
     243 -> 247        0.54996
     245 -> 247       -0.42169
     246 -> 248        0.10590

 Excited State   4:      Singlet-A      1.9700 eV  629.36 nm  f=0.0658  <S**2>=0.000
     243 -> 247        0.43983
     245 -> 247        0.51129
     246 -> 248       -0.18390

 Excited State   5:      Singlet-A      2.2386 eV  553.86 nm  f=0.0001  <S**2>=0.000
     241 -> 247        0.17832
     242 -> 247        0.68406

 The electronic state is 1-A.
 Alpha  occ. eigenvalues --  -46.26940 -18.82388 -18.81114 -18.76733 -18.76172
 Alpha  occ. eigenvalues --  -18.75695 -18.75518 -14.03669 -14.03065 -14.00992
 Alpha  occ. eigenvalues --  -14.00860 -10.03718 -10.03677  -9.99951  -9.99468
 Alpha  occ. eigenvalues --   -9.98101  -9.97281  -9.97072  -9.96813  -9.96454
 Alpha  occ. eigenvalues --   -9.96319  -9.96132  -9.95657  -9.95574  -9.95240
 Alpha  occ. eigenvalues --   -9.94979  -9.94721  -9.94576  -9.94337  -9.94074
 Alpha  occ. eigenvalues --   -9.93987  -9.93878  -9.93833  -9.93329  -9.93292
 Alpha  occ. eigenvalues --   -9.93210  -9.93204  -9.93149  -9.92940  -9.92790
 Alpha  occ. eigenvalues --   -9.92699  -9.92682  -9.92619  -9.92379  -9.92305
 Alpha  occ. eigenvalues --   -9.92269  -9.92143  -9.92142  -9.92025  -9.91972
 Alpha  occ. eigenvalues --   -9.91721  -9.91677  -9.91425  -9.91266  -9.91243
 Alpha  occ. eigenvalues --   -9.91224  -9.91118  -9.91086  -9.91011  -9.90919
 Alpha  occ. eigenvalues --   -9.90883  -9.90857  -9.90835  -9.90825  -9.90547
 Alpha  occ. eigenvalues --   -9.90134  -2.91597  -1.72004  -1.71496  -1.71303
 Alpha  occ. eigenvalues --   -0.98212  -0.96875  -0.90838  -0.90355  -0.89501
 Alpha  occ. eigenvalues --   -0.88468  -0.86304  -0.85354  -0.85126  -0.84417
 Alpha  occ. eigenvalues --   -0.77917  -0.74228  -0.72953  -0.72693  -0.72650
 Alpha  occ. eigenvalues --   -0.72294  -0.71200  -0.70953  -0.70910  -0.69841
 Alpha  occ. eigenvalues --   -0.69463  -0.69237  -0.68506  -0.68098  -0.67275
 Alpha  occ. eigenvalues --   -0.66541  -0.66231  -0.65806  -0.65064  -0.64749
 Alpha  occ. eigenvalues --   -0.64189  -0.62876  -0.62384  -0.61884  -0.61162
 Alpha  occ. eigenvalues --   -0.60865  -0.60203  -0.59890  -0.59743  -0.59080
 Alpha  occ. eigenvalues --   -0.58770  -0.57985  -0.56934  -0.56232  -0.55579
 Alpha  occ. eigenvalues --   -0.54706  -0.53990  -0.52821  -0.52244  -0.51990
 Alpha  occ. eigenvalues --   -0.51835  -0.51221  -0.50856  -0.50393  -0.49884
 Alpha  occ. eigenvalues --   -0.49432  -0.48975  -0.48509  -0.47933  -0.46794
 Alpha  occ. eigenvalues --   -0.46632  -0.46274  -0.46215  -0.45308  -0.45002
 Alpha  occ. eigenvalues --   -0.44041  -0.43584  -0.42892  -0.42561  -0.42186
 Alpha  occ. eigenvalues --   -0.41847  -0.41726  -0.41574  -0.41471  -0.41460
 Alpha  occ. eigenvalues --   -0.41135  -0.40797  -0.40658  -0.40526  -0.40415
 Alpha  occ. eigenvalues --   -0.40003  -0.39841  -0.39635  -0.39587  -0.39467
 Alpha  occ. eigenvalues --   -0.38814  -0.38526  -0.38381  -0.38273  -0.38214
 Alpha  occ. eigenvalues --   -0.38169  -0.37971  -0.37671  -0.37611  -0.37443
 Alpha  occ. eigenvalues --   -0.37166  -0.36970  -0.36747  -0.36658  -0.36369
 Alpha  occ. eigenvalues --   -0.36203  -0.36070  -0.35945  -0.35661  -0.35514
 Alpha  occ. eigenvalues --   -0.35451  -0.35294  -0.34823  -0.34721  -0.34640
 Alpha  occ. eigenvalues --   -0.34438  -0.34340  -0.34303  -0.33987  -0.33741
 Alpha  occ. eigenvalues --   -0.33659  -0.33608  -0.33516  -0.33489  -0.33104
 Alpha  occ. eigenvalues --   -0.33095  -0.32971  -0.32886  -0.32853  -0.32629
 Alpha  occ. eigenvalues --   -0.32261  -0.31979  -0.31548  -0.31423  -0.31331
 Alpha  occ. eigenvalues --   -0.31092  -0.31014  -0.30914  -0.30847  -0.30709
 Alpha  occ. eigenvalues --   -0.30591  -0.30463  -0.30248  -0.30085  -0.30043
 Alpha  occ. eigenvalues --   -0.29869  -0.29574  -0.29514  -0.29352  -0.29212
 Alpha  occ. eigenvalues --   -0.28773  -0.28661  -0.28364  -0.28230  -0.28107
 Alpha  occ. eigenvalues --   -0.27625  -0.27177  -0.26852  -0.26671  -0.26604
 Alpha  occ. eigenvalues --   -0.26283  -0.25785  -0.25727  -0.25502  -0.25225
 Alpha  occ. eigenvalues --   -0.25135  -0.24820  -0.24679  -0.24034  -0.23649
 Alpha  occ. eigenvalues --   -0.22968  -0.22744  -0.21823  -0.21162  -0.20923
 Alpha  occ. eigenvalues --   -0.20318  -0.20247  -0.18907  -0.18708  -0.17255
 Alpha  occ. eigenvalues --   -0.16362
 Alpha virt. eigenvalues --   -0.12027  -0.07034  -0.06673  -0.04981  -0.03087
 Alpha virt. eigenvalues --   -0.02807  -0.02247  -0.01694  -0.01434  -0.00024
 Alpha virt. eigenvalues --    0.00826   0.01121   0.01817   0.02297   0.02622

 Mulliken charges:
               1
     1  Mg   0.693026
     2  C    0.003267
     3  C   -0.023933
     4  C   -0.034632
     5  C   -0.068956
     6  N   -0.202191
     7  C   -0.100164
     8  C    0.068545
     9  C   -0.033432
    10  C    0.022380
    11  C    0.130531
    12  C    0.110963
    13  C    0.133650
    14  C    0.034044
    15  O   -0.194817
    16  O   -0.298445
    17  N   -0.294796
    18  C    0.096275
    19  C   -0.166819
    20  C    0.050687
    21  C    0.131850
    22  C    0.152833
    23  C   -0.099526
    24  O   -0.181763
    25  C    0.152446
    26  N   -0.241966
    27  C   -0.039438
    28  C    0.022965
    29  C    0.037628
    30  C    0.065570
    31  C    0.151013
    32  C    0.068603
    33  C    0.065864
    34  N   -0.295501
    35  C    0.129691
    36  C   -0.209109
    37  C    0.209287
    38  C    0.073875
    39  C    0.172534
    40  C   -0.110272
    41  O   -0.165645
    42  C    0.115525
    43  C    0.107915
    44  O   -0.174475
    45  O   -0.256810
    46  C    0.208149
    47  C    0.288448
    48  C   -0.061985
    49  C   -0.128147
    50  C    0.125770
    51  C    0.169441
    52  C    0.073470
    53  C    0.087534
    54  C   -0.077819
    55  C    0.148451
    56  C    0.061141
    57  C    0.053224
    58  C    0.073933
    59  C   -0.071016
    60  C    0.123253
    61  C    0.103151
    62  C    0.077749
    63  C    0.114408
    64  C   -0.106079
    65  C    0.105468
    66  C    0.109310
    67  H   -0.070308
    68  H   -0.042089
    69  H   -0.067643
    70  H   -0.009888
    71  H   -0.016176
    72  H   -0.013755
    73  H    0.008071
    74  H   -0.003196
    75  H   -0.005096
    76  H   -0.003577
    77  H    0.015611
    78  H    0.005777
    79  H    0.015547
    80  H   -0.000106
    81  H    0.001376
    82  H    0.015350
    83  H    0.016873
    84  H   -0.014166
    85  H   -0.033383
    86  H   -0.039187
    87  H   -0.010283
    88  H    0.005472
    89  H   -0.001004
    90  H   -0.027865
    91  H   -0.016366
    92  H   -0.013836
    93  H   -0.001520
    94  H    0.004123
    95  H   -0.021462
    96  H    0.002374
    97  H    0.016208
    98  H   -0.009571
    99  H    0.016986
   100  H    0.013552
   101  H    0.005359
   102  H   -0.001842
   103  H    0.015222
   104  H   -0.039546
   105  H   -0.017188
   106  H    0.006588
   107  H   -0.005364
   108  H   -0.029269
   109  H   -0.023010
   110  H   -0.036373
   111  H   -0.032616
   112  H   -0.051285
   113  H   -0.033252
   114  H   -0.053983
   115  H   -0.031491
   116  H   -0.021457
   117  H   -0.012060
   118  H   -0.050370
   119  H   -0.040677
   120  H   -0.008168
   121  H   -0.006740
   122  H   -0.034513
   123  H   -0.037124
   124  H   -0.031817
   125  H   -0.018566
   126  H   -0.021798
   127  H   -0.013836
   128  H   -0.045632
   129  H   -0.044193
   130  H   -0.027491
   131  H   -0.040068
   132  H   -0.044096
   133  H   -0.050802
   134  H   -0.027378
   135  H   -0.008420
   136  H   -0.014224
   137  H   -0.008906
   138  H   -0.017835
   139  H   -0.017018
   140  H   -0.031732
 Sum of Mulliken charges =  -0.00000

 Dipole moment (field-independent basis, Debye):
    X=             -2.0057    Y=              4.0359    Z=             -0.7527  Tot=              4.5692
 Quadrupole moment (field-independent basis, Debye-Ang):
   XX=           -378.1484   YY=           -425.2720   ZZ=           -415.5761
   XY=             -7.7981   XZ=             16.1651   YZ=              4.8323

 Normal termination of Gaussian 16 at Thu Apr 28 17:55:48 2022.
