 Gaussian 16, Revision A.03,
 Gaussian 16:  ES64L-G16RevA.03 25-Dec-2016

 -----------------------------------
 #p cam-b3lyp/Def2SVP td=(nstates=5)
 -----------------------------------

 --------------------------------------------------------
 step_1651_chromophore_25 TDDFT with cam-b3lyp functional
 --------------------------------------------------------
 Symbolic Z-matrix:
 Charge =  0 Multiplicity = 1

                         Standard orientation:
 ---------------------------------------------------------------------
 Center     Atomic      Atomic             Coordinates (Angstroms)
 Number     Number       Type             X           Y           Z
 ---------------------------------------------------------------------
      1         12           0        5.926305    0.412039    0.322052
      2          6           0        3.442161   -2.221748    0.101567
      3          6           0        3.390589    2.652941   -0.295334
      4          6           0        8.274957    2.796305   -0.141970
      5          6           0        8.357948   -2.024176    0.239987
      6          7           0        3.730807    0.226810   -0.185286
      7          6           0        2.895727   -0.904170   -0.014831
      8          6           0        1.442651   -0.563855   -0.106892
      9          6           0        1.425690    1.023542   -0.379959
     10          6           0        2.933560    1.324569   -0.270917
     11          6           0        0.811114    1.513221   -1.752534
     12          6           0        0.678208   -0.940275    1.250268
     13          6           0       -0.261428   -2.169014    1.236742
     14          6           0       -1.671594   -1.953549    1.781553
     15          8           0       -2.069519   -1.930089    2.938184
     16          8           0       -2.588808   -1.689049    0.780098
     17          7           0        5.817638    2.503088    0.078957
     18          6           0        4.685821    3.253427   -0.043331
     19          6           0        5.069866    4.600753   -0.299386
     20          6           0        6.533461    4.653763   -0.224923
     21          6           0        6.955862    3.277591   -0.109277
     22          6           0        3.978638    5.741536   -0.437698
     23          6           0        7.430062    5.885261   -0.374581
     24          8           0        8.665536    5.770396   -0.346591
     25          6           0        6.866472    7.248208   -0.540742
     26          7           0        8.033980    0.379440   -0.052673
     27          6           0        8.803523    1.490644   -0.129320
     28          6           0       10.269666    1.064745   -0.557126
     29          6           0       10.328679   -0.452568   -0.010679
     30          6           0        8.853332   -0.768799    0.013156
     31          6           0       10.588464    1.252301   -2.064621
     32          6           0       10.951977   -0.653406    1.353773
     33          6           0       10.103733   -0.146563    2.574112
     34          7           0        5.929232   -1.612130    0.211034
     35          6           0        7.028645   -2.462411    0.351944
     36          6           0        6.516460   -3.807329    0.437262
     37          6           0        5.145063   -3.738520    0.358137
     38          6           0        4.825418   -2.437511    0.221211
     39          6           0        7.290329   -5.103102    0.667869
     40          6           0        3.991873   -4.502591    0.420053
     41          8           0        3.753403   -5.724941    0.612436
     42          6           0        2.823725   -3.473956    0.183166
     43          6           0        2.190586   -3.946091   -1.004491
     44          8           0        2.658400   -3.949060   -2.134785
     45          8           0        1.013784   -4.504811   -0.597827
     46          6           0        0.132048   -5.009255   -1.629762
     47          6           0       -3.922990   -1.137665    1.137132
     48          6           0       -4.959270   -1.331830    0.065455
     49          6           0       -6.139015   -0.752683    0.052916
     50          6           0       -6.592463    0.359828    0.996369
     51          6           0       -7.199163   -1.203863   -0.976218
     52          6           0       -7.178238   -0.289649   -2.197696
     53          6           0       -8.360377    0.653649   -2.324876
     54          6           0       -9.527218    0.064022   -3.170937
     55          6           0      -10.190966    0.904095   -4.259352
     56          6           0      -10.559593   -0.716042   -2.279652
     57          6           0      -11.348786    0.244810   -1.390930
     58          6           0      -12.894404    0.051958   -1.660103
     59          6           0      -13.686444    0.003738   -0.318324
     60          6           0      -14.957070   -0.871336   -0.422564
     61          6           0      -13.874610    1.496974    0.198481
     62          6           0      -13.796830    1.682152    1.714292
     63          6           0      -12.665567    2.590368    2.276516
     64          6           0      -11.549323    1.786427    2.946731
     65          6           0      -11.857426    1.675859    4.474731
     66          6           0      -10.179490    2.396767    2.778423
     67          1           0        2.631982    3.437115   -0.352188
     68          1           0        9.099903    3.500695   -0.270347
     69          1           0        9.081029   -2.831878    0.376499
     70          1           0        1.047483   -1.012390   -1.018177
     71          1           0        0.979633    1.618944    0.417050
     72          1           0        0.249199    0.719133   -2.243296
     73          1           0        1.586713    1.765915   -2.474675
     74          1           0        0.052203    2.272346   -1.563023
     75          1           0        0.106521   -0.076914    1.589390
     76          1           0        1.395396   -1.165014    2.039247
     77          1           0        0.126327   -2.954025    1.886215
     78          1           0       -0.459818   -2.566204    0.240867
     79          1           0        4.235231    6.504117    0.299006
     80          1           0        2.916527    5.497754   -0.403244
     81          1           0        4.140070    6.070334   -1.464376
     82          1           0        6.295382    7.615549    0.311191
     83          1           0        6.430003    7.228065   -1.539295
     84          1           0        7.762000    7.868647   -0.504852
     85          1           0       10.933147    1.721581    0.006231
     86          1           0       10.931446   -1.108204   -0.638691
     87          1           0       11.617112    1.611007   -2.068931
     88          1           0        9.945291    2.032247   -2.473489
     89          1           0       10.611399    0.322119   -2.632694
     90          1           0       11.853685   -0.046533    1.437961
     91          1           0       11.291683   -1.686999    1.419866
     92          1           0       10.699982    0.412156    3.294253
     93          1           0        9.614726   -0.987495    3.066855
     94          1           0        9.374766    0.588931    2.235560
     95          1           0        8.329218   -4.900834    0.407101
     96          1           0        6.967986   -5.883069   -0.021203
     97          1           0        7.125736   -5.502189    1.668811
     98          1           0        2.153495   -3.386156    1.039226
     99          1           0       -0.405982   -5.909360   -1.332880
    100          1           0        0.670726   -5.271844   -2.541046
    101          1           0       -0.613552   -4.289270   -1.967394
    102          1           0       -3.608470   -0.156665    1.495090
    103          1           0       -4.415261   -1.582876    2.000522
    104          1           0       -4.764707   -2.047201   -0.734291
    105          1           0       -5.757765    0.798911    1.543155
    106          1           0       -7.355168    0.044366    1.709851
    107          1           0       -7.100974    1.193851    0.512910
    108          1           0       -8.188034   -0.974046   -0.580668
    109          1           0       -7.114446   -2.228382   -1.340241
    110          1           0       -7.049663   -0.807523   -3.148292
    111          1           0       -6.341533    0.410577   -2.191187
    112          1           0       -8.116492    1.586773   -2.833133
    113          1           0       -8.728431    0.918216   -1.333563
    114          1           0       -9.064361   -0.757223   -3.717788
    115          1           0      -11.208374    1.122353   -3.934413
    116          1           0      -10.378711    0.246933   -5.108094
    117          1           0       -9.662512    1.832518   -4.475851
    118          1           0       -9.973992   -1.399461   -1.664766
    119          1           0      -11.197468   -1.443757   -2.780291
    120          1           0      -11.209138    1.290941   -1.662237
    121          1           0      -10.901525    0.035249   -0.419396
    122          1           0      -13.176614   -0.698961   -2.398120
    123          1           0      -13.257961    0.943943   -2.171980
    124          1           0      -13.000644   -0.513172    0.352995
    125          1           0      -14.715910   -1.741017    0.189524
    126          1           0      -15.122380   -1.266207   -1.424795
    127          1           0      -15.894424   -0.423656   -0.093822
    128          1           0      -14.807996    1.897326   -0.197221
    129          1           0      -13.201994    2.208601   -0.279520
    130          1           0      -13.715805    0.666614    2.099602
    131          1           0      -14.762204    2.044842    2.070098
    132          1           0      -13.078042    3.369624    2.916702
    133          1           0      -12.286141    3.210754    1.464017
    134          1           0      -11.457559    0.791979    2.508264
    135          1           0      -11.700485    2.644380    4.948564
    136          1           0      -11.149433    0.954641    4.882400
    137          1           0      -12.908453    1.388125    4.450140
    138          1           0       -9.876717    2.918315    3.687028
    139          1           0       -9.985475    2.959735    1.865485
    140          1           0       -9.565278    1.502824    2.669914
 ---------------------------------------------------------------------

 SCF Done:  E(RCAM-B3LYP) =  -3007.13604613     A.U. after   19 cycles

 Excitation energies and oscillator strengths:

 Excited State   1:      Singlet-A      1.7125 eV  724.01 nm  f=0.3709  <S**2>=0.000
     245 -> 248        0.18660
     246 -> 247        0.68401
     245 <- 248        0.10926
 This state for optimization and/or second-order correction.
 Total Energy, E(TD-HF/TD-DFT) =  -3007.07311382
 Copying the excited state density for this state as the 1-particle RhoCI density.

 Excited State   2:      Singlet-A      2.1307 eV  581.90 nm  f=0.1567  <S**2>=0.000
     245 -> 247        0.65944
     246 -> 248       -0.24034

 Excited State   3:      Singlet-A      3.1958 eV  387.96 nm  f=0.0033  <S**2>=0.000
     242 -> 247        0.19660
     244 -> 247        0.65988
     246 -> 248        0.10330

 Excited State   4:      Singlet-A      3.4369 eV  360.75 nm  f=0.0030  <S**2>=0.000
     239 -> 247        0.12484
     240 -> 247       -0.17138
     240 -> 249       -0.15372
     241 -> 247        0.51187
     241 -> 249        0.28422
     241 -> 250        0.16901
     246 -> 248       -0.11530

 Excited State   5:      Singlet-A      3.4666 eV  357.66 nm  f=0.0074  <S**2>=0.000
     240 -> 247       -0.16379
     242 -> 247        0.62303
     244 -> 247       -0.20986
     246 -> 248        0.10438

 The electronic state is 1-A.
 Alpha  occ. eigenvalues --  -46.88453 -19.25348 -19.23884 -19.19802 -19.19185
 Alpha  occ. eigenvalues --  -19.18973 -19.18597 -14.42617 -14.41978 -14.39510
 Alpha  occ. eigenvalues --  -14.39119 -10.39079 -10.39019 -10.35393 -10.34679
 Alpha  occ. eigenvalues --  -10.32118 -10.31508 -10.31453 -10.31256 -10.31124
 Alpha  occ. eigenvalues --  -10.30788 -10.30517 -10.30260 -10.29557 -10.29491
 Alpha  occ. eigenvalues --  -10.29307 -10.29091 -10.28670 -10.28403 -10.28158
 Alpha  occ. eigenvalues --  -10.28005 -10.27888 -10.27877 -10.27829 -10.27453
 Alpha  occ. eigenvalues --  -10.27437 -10.27436 -10.27049 -10.26915 -10.26742
 Alpha  occ. eigenvalues --  -10.26661 -10.26475 -10.26410 -10.26391 -10.26372
 Alpha  occ. eigenvalues --  -10.26039 -10.25997 -10.25919 -10.25806 -10.25675
 Alpha  occ. eigenvalues --  -10.25408 -10.25232 -10.25179 -10.24962 -10.24926
 Alpha  occ. eigenvalues --  -10.24874 -10.24823 -10.24720 -10.24705 -10.24537
 Alpha  occ. eigenvalues --  -10.24532 -10.24530 -10.24522 -10.24427 -10.24142
 Alpha  occ. eigenvalues --  -10.23796  -3.17013  -1.91897  -1.91474  -1.91313
 Alpha  occ. eigenvalues --   -1.16763  -1.15300  -1.09443  -1.08354  -1.07556
 Alpha  occ. eigenvalues --   -1.06252  -1.03899  -1.03029  -1.02769  -1.01966
 Alpha  occ. eigenvalues --   -0.95037  -0.91152  -0.89760  -0.89426  -0.89326
 Alpha  occ. eigenvalues --   -0.89026  -0.87830  -0.87549  -0.87442  -0.86306
 Alpha  occ. eigenvalues --   -0.86046  -0.85764  -0.84783  -0.84292  -0.83452
 Alpha  occ. eigenvalues --   -0.82597  -0.82329  -0.81979  -0.80904  -0.80620
 Alpha  occ. eigenvalues --   -0.79942  -0.78488  -0.78165  -0.77346  -0.76568
 Alpha  occ. eigenvalues --   -0.76238  -0.75567  -0.75170  -0.75063  -0.74299
 Alpha  occ. eigenvalues --   -0.73859  -0.72953  -0.71830  -0.71043  -0.70199
 Alpha  occ. eigenvalues --   -0.69381  -0.68623  -0.67398  -0.66579  -0.66205
 Alpha  occ. eigenvalues --   -0.66116  -0.65321  -0.64985  -0.64316  -0.63909
 Alpha  occ. eigenvalues --   -0.63090  -0.62905  -0.62165  -0.61722  -0.60327
 Alpha  occ. eigenvalues --   -0.60179  -0.59890  -0.59849  -0.58845  -0.58259
 Alpha  occ. eigenvalues --   -0.57393  -0.56981  -0.55982  -0.55626  -0.55285
 Alpha  occ. eigenvalues --   -0.55121  -0.54672  -0.54490  -0.54473  -0.54312
 Alpha  occ. eigenvalues --   -0.53961  -0.53736  -0.53455  -0.53331  -0.53248
 Alpha  occ. eigenvalues --   -0.52654  -0.52503  -0.52252  -0.52088  -0.51971
 Alpha  occ. eigenvalues --   -0.51638  -0.51342  -0.50975  -0.50765  -0.50545
 Alpha  occ. eigenvalues --   -0.50454  -0.50240  -0.50064  -0.49849  -0.49723
 Alpha  occ. eigenvalues --   -0.49458  -0.49339  -0.49177  -0.48939  -0.48849
 Alpha  occ. eigenvalues --   -0.48480  -0.48350  -0.48183  -0.48054  -0.47687
 Alpha  occ. eigenvalues --   -0.47546  -0.47426  -0.46779  -0.46586  -0.46546
 Alpha  occ. eigenvalues --   -0.46345  -0.46159  -0.46125  -0.45922  -0.45638
 Alpha  occ. eigenvalues --   -0.45347  -0.45272  -0.45250  -0.45126  -0.44782
 Alpha  occ. eigenvalues --   -0.44729  -0.44621  -0.44585  -0.44476  -0.44352
 Alpha  occ. eigenvalues --   -0.43747  -0.43484  -0.43289  -0.42978  -0.42922
 Alpha  occ. eigenvalues --   -0.42746  -0.42502  -0.42291  -0.42227  -0.42212
 Alpha  occ. eigenvalues --   -0.42159  -0.41770  -0.41663  -0.41459  -0.41279
 Alpha  occ. eigenvalues --   -0.41251  -0.41092  -0.40859  -0.40613  -0.40527
 Alpha  occ. eigenvalues --   -0.39786  -0.39738  -0.39374  -0.39183  -0.39132
 Alpha  occ. eigenvalues --   -0.38523  -0.37965  -0.37708  -0.37625  -0.37387
 Alpha  occ. eigenvalues --   -0.37274  -0.36720  -0.36706  -0.36417  -0.36209
 Alpha  occ. eigenvalues --   -0.36073  -0.35722  -0.35420  -0.34890  -0.34587
 Alpha  occ. eigenvalues --   -0.33398  -0.33354  -0.33328  -0.31384  -0.31201
 Alpha  occ. eigenvalues --   -0.30704  -0.30100  -0.30045  -0.29757  -0.23903
 Alpha  occ. eigenvalues --   -0.21821
 Alpha virt. eigenvalues --   -0.09261  -0.01840  -0.00157   0.01921   0.02165
 Alpha virt. eigenvalues --    0.04523   0.05458   0.05621   0.05937   0.06909
 Alpha virt. eigenvalues --    0.06959   0.07999   0.08549   0.08736   0.09233

 Mulliken charges:
               1
     1  Mg   0.823458
     2  C   -0.021505
     3  C   -0.043288
     4  C   -0.060007
     5  C   -0.073529
     6  N   -0.267065
     7  C   -0.052161
     8  C    0.009009
     9  C   -0.077053
    10  C    0.041558
    11  C    0.069232
    12  C    0.059536
    13  C    0.061757
    14  C    0.123206
    15  O   -0.235451
    16  O   -0.364544
    17  N   -0.384475
    18  C    0.119470
    19  C   -0.171736
    20  C   -0.019432
    21  C    0.159396
    22  C    0.096765
    23  C   -0.016725
    24  O   -0.222343
    25  C    0.066469
    26  N   -0.307458
    27  C   -0.018603
    28  C   -0.026122
    29  C   -0.020446
    30  C    0.073123
    31  C    0.092227
    32  C    0.018659
    33  C    0.004286
    34  N   -0.384027
    35  C    0.131026
    36  C   -0.204805
    37  C    0.121989
    38  C    0.111059
    39  C    0.127012
    40  C   -0.011761
    41  O   -0.206670
    42  C    0.026640
    43  C    0.198469
    44  O   -0.211957
    45  O   -0.320002
    46  C    0.169068
    47  C    0.259943
    48  C   -0.085425
    49  C   -0.152064
    50  C    0.066916
    51  C    0.105163
    52  C    0.018999
    53  C    0.035064
    54  C   -0.135615
    55  C    0.090435
    56  C    0.012360
    57  C    0.001553
    58  C    0.023041
    59  C   -0.122994
    60  C    0.063668
    61  C    0.050300
    62  C    0.022212
    63  C    0.055049
    64  C   -0.164379
    65  C    0.049958
    66  C    0.053158
    67  H   -0.038468
    68  H   -0.000542
    69  H   -0.032332
    70  H    0.023807
    71  H    0.017798
    72  H    0.012177
    73  H    0.034415
    74  H    0.020900
    75  H    0.024571
    76  H    0.027877
    77  H    0.046447
    78  H    0.035728
    79  H    0.039286
    80  H    0.028808
    81  H    0.027386
    82  H    0.044137
    83  H    0.044171
    84  H    0.023732
    85  H    0.001340
    86  H   -0.001688
    87  H    0.014203
    88  H    0.030022
    89  H    0.023947
    90  H    0.001318
    91  H    0.011065
    92  H    0.011425
    93  H    0.022381
    94  H    0.023095
    95  H    0.000745
    96  H    0.028905
    97  H    0.040865
    98  H    0.034176
    99  H    0.039973
   100  H    0.040960
   101  H    0.024844
   102  H    0.024308
   103  H    0.044383
   104  H   -0.002633
   105  H    0.008058
   106  H    0.029401
   107  H    0.017317
   108  H   -0.003295
   109  H    0.009306
   110  H   -0.005879
   111  H   -0.001286
   112  H   -0.019146
   113  H   -0.010414
   114  H   -0.020033
   115  H   -0.010177
   116  H    0.004350
   117  H    0.012135
   118  H   -0.021473
   119  H   -0.009959
   120  H    0.016582
   121  H    0.014973
   122  H   -0.005892
   123  H   -0.009630
   124  H   -0.002295
   125  H    0.005317
   126  H    0.002715
   127  H    0.010427
   128  H   -0.015161
   129  H   -0.016098
   130  H   -0.001323
   131  H   -0.009187
   132  H   -0.012773
   133  H   -0.020785
   134  H    0.000882
   135  H    0.013849
   136  H    0.010580
   137  H    0.013346
   138  H    0.006488
   139  H    0.006968
   140  H   -0.011013
 Sum of Mulliken charges =  -0.00000

 Dipole moment (field-independent basis, Debye):
    X=             -2.1088    Y=              5.1195    Z=             -0.9320  Tot=              5.6147
 Quadrupole moment (field-independent basis, Debye-Ang):
   XX=           -376.0195   YY=           -420.4315   ZZ=           -416.1377
   XY=             -2.5658   XZ=             17.2117   YZ=              5.0880

 Normal termination of Gaussian 16 at Thu Apr 28 16:53:12 2022.
