 Gaussian 16, Revision A.03,
 Gaussian 16:  ES64L-G16RevA.03 25-Dec-2016

 ---------------------------------
 #p PBE1PBE/Def2SVP td=(nstates=5)
 ---------------------------------

 ------------------------------------------------------
 step_1651_chromophore_25 TDDFT with PBE1PBE functional
 ------------------------------------------------------
 Symbolic Z-matrix:
 Charge =  0 Multiplicity = 1

                         Standard orientation:
 ---------------------------------------------------------------------
 Center     Atomic      Atomic             Coordinates (Angstroms)
 Number     Number       Type             X           Y           Z
 ---------------------------------------------------------------------
      1         12           0        5.926305    0.412039    0.322052
      2          6           0        3.442161   -2.221748    0.101567
      3          6           0        3.390589    2.652941   -0.295334
      4          6           0        8.274957    2.796305   -0.141970
      5          6           0        8.357948   -2.024176    0.239987
      6          7           0        3.730807    0.226810   -0.185286
      7          6           0        2.895727   -0.904170   -0.014831
      8          6           0        1.442651   -0.563855   -0.106892
      9          6           0        1.425690    1.023542   -0.379959
     10          6           0        2.933560    1.324569   -0.270917
     11          6           0        0.811114    1.513221   -1.752534
     12          6           0        0.678208   -0.940275    1.250268
     13          6           0       -0.261428   -2.169014    1.236742
     14          6           0       -1.671594   -1.953549    1.781553
     15          8           0       -2.069519   -1.930089    2.938184
     16          8           0       -2.588808   -1.689049    0.780098
     17          7           0        5.817638    2.503088    0.078957
     18          6           0        4.685821    3.253427   -0.043331
     19          6           0        5.069866    4.600753   -0.299386
     20          6           0        6.533461    4.653763   -0.224923
     21          6           0        6.955862    3.277591   -0.109277
     22          6           0        3.978638    5.741536   -0.437698
     23          6           0        7.430062    5.885261   -0.374581
     24          8           0        8.665536    5.770396   -0.346591
     25          6           0        6.866472    7.248208   -0.540742
     26          7           0        8.033980    0.379440   -0.052673
     27          6           0        8.803523    1.490644   -0.129320
     28          6           0       10.269666    1.064745   -0.557126
     29          6           0       10.328679   -0.452568   -0.010679
     30          6           0        8.853332   -0.768799    0.013156
     31          6           0       10.588464    1.252301   -2.064621
     32          6           0       10.951977   -0.653406    1.353773
     33          6           0       10.103733   -0.146563    2.574112
     34          7           0        5.929232   -1.612130    0.211034
     35          6           0        7.028645   -2.462411    0.351944
     36          6           0        6.516460   -3.807329    0.437262
     37          6           0        5.145063   -3.738520    0.358137
     38          6           0        4.825418   -2.437511    0.221211
     39          6           0        7.290329   -5.103102    0.667869
     40          6           0        3.991873   -4.502591    0.420053
     41          8           0        3.753403   -5.724941    0.612436
     42          6           0        2.823725   -3.473956    0.183166
     43          6           0        2.190586   -3.946091   -1.004491
     44          8           0        2.658400   -3.949060   -2.134785
     45          8           0        1.013784   -4.504811   -0.597827
     46          6           0        0.132048   -5.009255   -1.629762
     47          6           0       -3.922990   -1.137665    1.137132
     48          6           0       -4.959270   -1.331830    0.065455
     49          6           0       -6.139015   -0.752683    0.052916
     50          6           0       -6.592463    0.359828    0.996369
     51          6           0       -7.199163   -1.203863   -0.976218
     52          6           0       -7.178238   -0.289649   -2.197696
     53          6           0       -8.360377    0.653649   -2.324876
     54          6           0       -9.527218    0.064022   -3.170937
     55          6           0      -10.190966    0.904095   -4.259352
     56          6           0      -10.559593   -0.716042   -2.279652
     57          6           0      -11.348786    0.244810   -1.390930
     58          6           0      -12.894404    0.051958   -1.660103
     59          6           0      -13.686444    0.003738   -0.318324
     60          6           0      -14.957070   -0.871336   -0.422564
     61          6           0      -13.874610    1.496974    0.198481
     62          6           0      -13.796830    1.682152    1.714292
     63          6           0      -12.665567    2.590368    2.276516
     64          6           0      -11.549323    1.786427    2.946731
     65          6           0      -11.857426    1.675859    4.474731
     66          6           0      -10.179490    2.396767    2.778423
     67          1           0        2.631982    3.437115   -0.352188
     68          1           0        9.099903    3.500695   -0.270347
     69          1           0        9.081029   -2.831878    0.376499
     70          1           0        1.047483   -1.012390   -1.018177
     71          1           0        0.979633    1.618944    0.417050
     72          1           0        0.249199    0.719133   -2.243296
     73          1           0        1.586713    1.765915   -2.474675
     74          1           0        0.052203    2.272346   -1.563023
     75          1           0        0.106521   -0.076914    1.589390
     76          1           0        1.395396   -1.165014    2.039247
     77          1           0        0.126327   -2.954025    1.886215
     78          1           0       -0.459818   -2.566204    0.240867
     79          1           0        4.235231    6.504117    0.299006
     80          1           0        2.916527    5.497754   -0.403244
     81          1           0        4.140070    6.070334   -1.464376
     82          1           0        6.295382    7.615549    0.311191
     83          1           0        6.430003    7.228065   -1.539295
     84          1           0        7.762000    7.868647   -0.504852
     85          1           0       10.933147    1.721581    0.006231
     86          1           0       10.931446   -1.108204   -0.638691
     87          1           0       11.617112    1.611007   -2.068931
     88          1           0        9.945291    2.032247   -2.473489
     89          1           0       10.611399    0.322119   -2.632694
     90          1           0       11.853685   -0.046533    1.437961
     91          1           0       11.291683   -1.686999    1.419866
     92          1           0       10.699982    0.412156    3.294253
     93          1           0        9.614726   -0.987495    3.066855
     94          1           0        9.374766    0.588931    2.235560
     95          1           0        8.329218   -4.900834    0.407101
     96          1           0        6.967986   -5.883069   -0.021203
     97          1           0        7.125736   -5.502189    1.668811
     98          1           0        2.153495   -3.386156    1.039226
     99          1           0       -0.405982   -5.909360   -1.332880
    100          1           0        0.670726   -5.271844   -2.541046
    101          1           0       -0.613552   -4.289270   -1.967394
    102          1           0       -3.608470   -0.156665    1.495090
    103          1           0       -4.415261   -1.582876    2.000522
    104          1           0       -4.764707   -2.047201   -0.734291
    105          1           0       -5.757765    0.798911    1.543155
    106          1           0       -7.355168    0.044366    1.709851
    107          1           0       -7.100974    1.193851    0.512910
    108          1           0       -8.188034   -0.974046   -0.580668
    109          1           0       -7.114446   -2.228382   -1.340241
    110          1           0       -7.049663   -0.807523   -3.148292
    111          1           0       -6.341533    0.410577   -2.191187
    112          1           0       -8.116492    1.586773   -2.833133
    113          1           0       -8.728431    0.918216   -1.333563
    114          1           0       -9.064361   -0.757223   -3.717788
    115          1           0      -11.208374    1.122353   -3.934413
    116          1           0      -10.378711    0.246933   -5.108094
    117          1           0       -9.662512    1.832518   -4.475851
    118          1           0       -9.973992   -1.399461   -1.664766
    119          1           0      -11.197468   -1.443757   -2.780291
    120          1           0      -11.209138    1.290941   -1.662237
    121          1           0      -10.901525    0.035249   -0.419396
    122          1           0      -13.176614   -0.698961   -2.398120
    123          1           0      -13.257961    0.943943   -2.171980
    124          1           0      -13.000644   -0.513172    0.352995
    125          1           0      -14.715910   -1.741017    0.189524
    126          1           0      -15.122380   -1.266207   -1.424795
    127          1           0      -15.894424   -0.423656   -0.093822
    128          1           0      -14.807996    1.897326   -0.197221
    129          1           0      -13.201994    2.208601   -0.279520
    130          1           0      -13.715805    0.666614    2.099602
    131          1           0      -14.762204    2.044842    2.070098
    132          1           0      -13.078042    3.369624    2.916702
    133          1           0      -12.286141    3.210754    1.464017
    134          1           0      -11.457559    0.791979    2.508264
    135          1           0      -11.700485    2.644380    4.948564
    136          1           0      -11.149433    0.954641    4.882400
    137          1           0      -12.908453    1.388125    4.450140
    138          1           0       -9.876717    2.918315    3.687028
    139          1           0       -9.985475    2.959735    1.865485
    140          1           0       -9.565278    1.502824    2.669914
 ---------------------------------------------------------------------

 SCF Done:  E(RPBE1PBE) =  -3005.32562472     A.U. after   15 cycles

 Excitation energies and oscillator strengths:

 Excited State   1:      Singlet-A      1.8598 eV  666.67 nm  f=0.3574  <S**2>=0.000
     245 -> 248        0.18242
     246 -> 247        0.69027
     246 <- 247       -0.10233
 This state for optimization and/or second-order correction.
 Total Energy, E(TD-HF/TD-DFT) =  -3005.25727993
 Copying the excited state density for this state as the 1-particle RhoCI density.

 Excited State   2:      Singlet-A      2.1410 eV  579.10 nm  f=0.1432  <S**2>=0.000
     245 -> 247        0.66738
     246 -> 248       -0.22070

 Excited State   3:      Singlet-A      2.8933 eV  428.52 nm  f=0.0042  <S**2>=0.000
     240 -> 247       -0.12105
     242 -> 247        0.19295
     243 -> 247        0.14835
     244 -> 247        0.63773

 Excited State   4:      Singlet-A      2.9494 eV  420.38 nm  f=0.0014  <S**2>=0.000
     240 -> 247       -0.10768
     241 -> 247        0.29503
     242 -> 247        0.54479
     242 -> 249        0.14309
     244 -> 247       -0.21816

 Excited State   5:      Singlet-A      2.9923 eV  414.35 nm  f=0.0000  <S**2>=0.000
     240 -> 247        0.42616
     241 -> 247        0.50027
     241 -> 249       -0.10078
     242 -> 247       -0.14526
     244 -> 247        0.10153

 The electronic state is 1-A.
 Alpha  occ. eigenvalues --  -46.91866 -19.26019 -19.24644 -19.20053 -19.19496
 Alpha  occ. eigenvalues --  -19.19056 -19.19042 -14.42134 -14.41496 -14.39109
 Alpha  occ. eigenvalues --  -14.38910 -10.36120 -10.36080 -10.32382 -10.31951
 Alpha  occ. eigenvalues --  -10.29562 -10.29379 -10.29039 -10.28745 -10.28493
 Alpha  occ. eigenvalues --  -10.28410 -10.28276 -10.27728 -10.27432 -10.27159
 Alpha  occ. eigenvalues --  -10.27043 -10.26890 -10.26352 -10.26205 -10.25962
 Alpha  occ. eigenvalues --  -10.25691 -10.25429 -10.25423 -10.25340 -10.25304
 Alpha  occ. eigenvalues --  -10.25259 -10.25041 -10.24727 -10.24388 -10.24367
 Alpha  occ. eigenvalues --  -10.24314 -10.24086 -10.24058 -10.23787 -10.23573
 Alpha  occ. eigenvalues --  -10.23527 -10.23525 -10.23479 -10.23448 -10.23238
 Alpha  occ. eigenvalues --  -10.23061 -10.22904 -10.22681 -10.22536 -10.22509
 Alpha  occ. eigenvalues --  -10.22442 -10.22437 -10.22269 -10.22130 -10.22116
 Alpha  occ. eigenvalues --  -10.22075 -10.22061 -10.21914 -10.21810 -10.21647
 Alpha  occ. eigenvalues --  -10.21529  -3.14004  -1.86828  -1.86383  -1.86228
 Alpha  occ. eigenvalues --   -1.11546  -1.10154  -1.04015  -1.03173  -1.02415
 Alpha  occ. eigenvalues --   -1.01168  -0.98613  -0.97623  -0.97335  -0.96571
 Alpha  occ. eigenvalues --   -0.89559  -0.85284  -0.83879  -0.83648  -0.83617
 Alpha  occ. eigenvalues --   -0.83159  -0.82129  -0.81794  -0.81669  -0.80622
 Alpha  occ. eigenvalues --   -0.80252  -0.79996  -0.79020  -0.78572  -0.77707
 Alpha  occ. eigenvalues --   -0.76767  -0.76493  -0.76199  -0.75149  -0.74902
 Alpha  occ. eigenvalues --   -0.74133  -0.72792  -0.72372  -0.71662  -0.70747
 Alpha  occ. eigenvalues --   -0.70541  -0.69668  -0.69503  -0.69187  -0.68497
 Alpha  occ. eigenvalues --   -0.68172  -0.67435  -0.66238  -0.65397  -0.64579
 Alpha  occ. eigenvalues --   -0.63846  -0.62821  -0.61785  -0.60805  -0.60611
 Alpha  occ. eigenvalues --   -0.60380  -0.59851  -0.59523  -0.58775  -0.58027
 Alpha  occ. eigenvalues --   -0.57647  -0.57101  -0.56774  -0.55963  -0.54806
 Alpha  occ. eigenvalues --   -0.54617  -0.54429  -0.54315  -0.53424  -0.52912
 Alpha  occ. eigenvalues --   -0.51977  -0.51444  -0.50553  -0.50121  -0.49830
 Alpha  occ. eigenvalues --   -0.49650  -0.49233  -0.49060  -0.48966  -0.48757
 Alpha  occ. eigenvalues --   -0.48467  -0.48048  -0.47934  -0.47902  -0.47752
 Alpha  occ. eigenvalues --   -0.47153  -0.47083  -0.46830  -0.46552  -0.46472
 Alpha  occ. eigenvalues --   -0.46223  -0.46010  -0.45592  -0.45189  -0.45090
 Alpha  occ. eigenvalues --   -0.45017  -0.44846  -0.44698  -0.44412  -0.44299
 Alpha  occ. eigenvalues --   -0.44038  -0.43909  -0.43691  -0.43569  -0.43473
 Alpha  occ. eigenvalues --   -0.43093  -0.43014  -0.42831  -0.42649  -0.42341
 Alpha  occ. eigenvalues --   -0.42149  -0.42010  -0.41483  -0.41253  -0.41223
 Alpha  occ. eigenvalues --   -0.41007  -0.40814  -0.40770  -0.40662  -0.40381
 Alpha  occ. eigenvalues --   -0.40082  -0.39993  -0.39949  -0.39741  -0.39522
 Alpha  occ. eigenvalues --   -0.39515  -0.39352  -0.39287  -0.39272  -0.39045
 Alpha  occ. eigenvalues --   -0.38414  -0.38323  -0.38108  -0.37763  -0.37744
 Alpha  occ. eigenvalues --   -0.37502  -0.37319  -0.37084  -0.37004  -0.36967
 Alpha  occ. eigenvalues --   -0.36926  -0.36589  -0.36484  -0.36290  -0.36162
 Alpha  occ. eigenvalues --   -0.36027  -0.35996  -0.35726  -0.35419  -0.35362
 Alpha  occ. eigenvalues --   -0.34764  -0.34504  -0.34374  -0.33994  -0.33916
 Alpha  occ. eigenvalues --   -0.33470  -0.32778  -0.32688  -0.32485  -0.32360
 Alpha  occ. eigenvalues --   -0.32259  -0.31785  -0.31666  -0.31229  -0.31196
 Alpha  occ. eigenvalues --   -0.30961  -0.30601  -0.30250  -0.29787  -0.29691
 Alpha  occ. eigenvalues --   -0.29013  -0.28283  -0.28204  -0.26892  -0.25937
 Alpha  occ. eigenvalues --   -0.25810  -0.25750  -0.25315  -0.25284  -0.20885
 Alpha  occ. eigenvalues --   -0.19372
 Alpha virt. eigenvalues --   -0.11675  -0.05365  -0.04385  -0.02454  -0.00674
 Alpha virt. eigenvalues --    0.00063   0.00825   0.01222   0.01562   0.03011
 Alpha virt. eigenvalues --    0.03543   0.04306   0.04474   0.05213   0.05560

 Mulliken charges:
               1
     1  Mg   0.968279
     2  C   -0.025988
     3  C   -0.043486
     4  C   -0.057810
     5  C   -0.069730
     6  N   -0.364563
     7  C    0.027247
     8  C   -0.064456
     9  C   -0.143650
    10  C    0.072658
    11  C    0.011049
    12  C    0.013546
    13  C   -0.021647
    14  C    0.196079
    15  O   -0.268972
    16  O   -0.395551
    17  N   -0.497094
    18  C    0.160531
    19  C   -0.200954
    20  C   -0.069472
    21  C    0.184755
    22  C    0.033907
    23  C    0.031586
    24  O   -0.258945
    25  C   -0.005551
    26  N   -0.402968
    27  C    0.015594
    28  C   -0.095738
    29  C   -0.101648
    30  C    0.107608
    31  C    0.034905
    32  C   -0.034540
    33  C   -0.073831
    34  N   -0.511939
    35  C    0.156458
    36  C   -0.213697
    37  C    0.079885
    38  C    0.158102
    39  C    0.076629
    40  C    0.066929
    41  O   -0.251560
    42  C   -0.103083
    43  C    0.296426
    44  O   -0.248978
    45  O   -0.353379
    46  C    0.114718
    47  C    0.226404
    48  C   -0.094385
    49  C   -0.201105
    50  C    0.002310
    51  C    0.030516
    52  C   -0.036331
    53  C   -0.024566
    54  C   -0.222655
    55  C    0.029163
    56  C   -0.040293
    57  C   -0.060881
    58  C   -0.029671
    59  C   -0.213244
    60  C    0.006589
    61  C    0.003840
    62  C   -0.042246
    63  C    0.001594
    64  C   -0.260789
    65  C   -0.014658
    66  C   -0.007940
    67  H   -0.005319
    68  H    0.031255
    69  H   -0.000039
    70  H    0.061243
    71  H    0.053364
    72  H    0.039385
    73  H    0.061476
    74  H    0.047643
    75  H    0.056361
    76  H    0.059608
    77  H    0.077218
    78  H    0.071475
    79  H    0.066301
    80  H    0.052951
    81  H    0.055450
    82  H    0.069003
    83  H    0.070850
    84  H    0.050856
    85  H    0.037352
    86  H    0.034600
    87  H    0.041989
    88  H    0.058245
    89  H    0.050242
    90  H    0.035970
    91  H    0.042386
    92  H    0.040059
    93  H    0.050750
    94  H    0.057889
    95  H    0.028890
    96  H    0.057159
    97  H    0.068529
    98  H    0.077219
    99  H    0.061798
   100  H    0.062032
   101  H    0.045975
   102  H    0.049637
   103  H    0.070881
   104  H    0.027102
   105  H    0.035390
   106  H    0.057833
   107  H    0.045398
   108  H    0.033001
   109  H    0.040424
   110  H    0.026102
   111  H    0.032529
   112  H    0.014573
   113  H    0.024068
   114  H    0.020165
   115  H    0.019887
   116  H    0.032267
   117  H    0.038508
   118  H    0.014835
   119  H    0.021481
   120  H    0.048038
   121  H    0.046392
   122  H    0.023572
   123  H    0.023823
   124  H    0.036901
   125  H    0.032652
   126  H    0.029577
   127  H    0.037060
   128  H    0.017473
   129  H    0.015406
   130  H    0.031215
   131  H    0.023806
   132  H    0.019339
   133  H    0.011377
   134  H    0.038986
   135  H    0.041338
   136  H    0.039105
   137  H    0.042971
   138  H    0.033709
   139  H    0.033680
   140  H    0.020023
 Sum of Mulliken charges =  -0.00000

 Dipole moment (field-independent basis, Debye):
    X=             -2.0784    Y=              4.7056    Z=             -0.9062  Tot=              5.2234
 Quadrupole moment (field-independent basis, Debye-Ang):
   XX=           -370.0032   YY=           -418.1902   ZZ=           -413.5732
   XY=             -5.8455   XZ=             17.9018   YZ=              5.0258

 Normal termination of Gaussian 16 at Thu Apr 28 17:10:51 2022.
