 Gaussian 16, Revision A.03,
 Gaussian 16:  ES64L-G16RevA.03 25-Dec-2016

 --------------------------------
 #p wB97XD/Def2SVP td=(nstates=5)
 --------------------------------

 -----------------------------------------------------
 step_1651_chromophore_25 TDDFT with wB97XD functional
 -----------------------------------------------------
 Symbolic Z-matrix:
 Charge =  0 Multiplicity = 1

                         Standard orientation:
 ---------------------------------------------------------------------
 Center     Atomic      Atomic             Coordinates (Angstroms)
 Number     Number       Type             X           Y           Z
 ---------------------------------------------------------------------
      1         12           0        5.926305    0.412039    0.322052
      2          6           0        3.442161   -2.221748    0.101567
      3          6           0        3.390589    2.652941   -0.295334
      4          6           0        8.274957    2.796305   -0.141970
      5          6           0        8.357948   -2.024176    0.239987
      6          7           0        3.730807    0.226810   -0.185286
      7          6           0        2.895727   -0.904170   -0.014831
      8          6           0        1.442651   -0.563855   -0.106892
      9          6           0        1.425690    1.023542   -0.379959
     10          6           0        2.933560    1.324569   -0.270917
     11          6           0        0.811114    1.513221   -1.752534
     12          6           0        0.678208   -0.940275    1.250268
     13          6           0       -0.261428   -2.169014    1.236742
     14          6           0       -1.671594   -1.953549    1.781553
     15          8           0       -2.069519   -1.930089    2.938184
     16          8           0       -2.588808   -1.689049    0.780098
     17          7           0        5.817638    2.503088    0.078957
     18          6           0        4.685821    3.253427   -0.043331
     19          6           0        5.069866    4.600753   -0.299386
     20          6           0        6.533461    4.653763   -0.224923
     21          6           0        6.955862    3.277591   -0.109277
     22          6           0        3.978638    5.741536   -0.437698
     23          6           0        7.430062    5.885261   -0.374581
     24          8           0        8.665536    5.770396   -0.346591
     25          6           0        6.866472    7.248208   -0.540742
     26          7           0        8.033980    0.379440   -0.052673
     27          6           0        8.803523    1.490644   -0.129320
     28          6           0       10.269666    1.064745   -0.557126
     29          6           0       10.328679   -0.452568   -0.010679
     30          6           0        8.853332   -0.768799    0.013156
     31          6           0       10.588464    1.252301   -2.064621
     32          6           0       10.951977   -0.653406    1.353773
     33          6           0       10.103733   -0.146563    2.574112
     34          7           0        5.929232   -1.612130    0.211034
     35          6           0        7.028645   -2.462411    0.351944
     36          6           0        6.516460   -3.807329    0.437262
     37          6           0        5.145063   -3.738520    0.358137
     38          6           0        4.825418   -2.437511    0.221211
     39          6           0        7.290329   -5.103102    0.667869
     40          6           0        3.991873   -4.502591    0.420053
     41          8           0        3.753403   -5.724941    0.612436
     42          6           0        2.823725   -3.473956    0.183166
     43          6           0        2.190586   -3.946091   -1.004491
     44          8           0        2.658400   -3.949060   -2.134785
     45          8           0        1.013784   -4.504811   -0.597827
     46          6           0        0.132048   -5.009255   -1.629762
     47          6           0       -3.922990   -1.137665    1.137132
     48          6           0       -4.959270   -1.331830    0.065455
     49          6           0       -6.139015   -0.752683    0.052916
     50          6           0       -6.592463    0.359828    0.996369
     51          6           0       -7.199163   -1.203863   -0.976218
     52          6           0       -7.178238   -0.289649   -2.197696
     53          6           0       -8.360377    0.653649   -2.324876
     54          6           0       -9.527218    0.064022   -3.170937
     55          6           0      -10.190966    0.904095   -4.259352
     56          6           0      -10.559593   -0.716042   -2.279652
     57          6           0      -11.348786    0.244810   -1.390930
     58          6           0      -12.894404    0.051958   -1.660103
     59          6           0      -13.686444    0.003738   -0.318324
     60          6           0      -14.957070   -0.871336   -0.422564
     61          6           0      -13.874610    1.496974    0.198481
     62          6           0      -13.796830    1.682152    1.714292
     63          6           0      -12.665567    2.590368    2.276516
     64          6           0      -11.549323    1.786427    2.946731
     65          6           0      -11.857426    1.675859    4.474731
     66          6           0      -10.179490    2.396767    2.778423
     67          1           0        2.631982    3.437115   -0.352188
     68          1           0        9.099903    3.500695   -0.270347
     69          1           0        9.081029   -2.831878    0.376499
     70          1           0        1.047483   -1.012390   -1.018177
     71          1           0        0.979633    1.618944    0.417050
     72          1           0        0.249199    0.719133   -2.243296
     73          1           0        1.586713    1.765915   -2.474675
     74          1           0        0.052203    2.272346   -1.563023
     75          1           0        0.106521   -0.076914    1.589390
     76          1           0        1.395396   -1.165014    2.039247
     77          1           0        0.126327   -2.954025    1.886215
     78          1           0       -0.459818   -2.566204    0.240867
     79          1           0        4.235231    6.504117    0.299006
     80          1           0        2.916527    5.497754   -0.403244
     81          1           0        4.140070    6.070334   -1.464376
     82          1           0        6.295382    7.615549    0.311191
     83          1           0        6.430003    7.228065   -1.539295
     84          1           0        7.762000    7.868647   -0.504852
     85          1           0       10.933147    1.721581    0.006231
     86          1           0       10.931446   -1.108204   -0.638691
     87          1           0       11.617112    1.611007   -2.068931
     88          1           0        9.945291    2.032247   -2.473489
     89          1           0       10.611399    0.322119   -2.632694
     90          1           0       11.853685   -0.046533    1.437961
     91          1           0       11.291683   -1.686999    1.419866
     92          1           0       10.699982    0.412156    3.294253
     93          1           0        9.614726   -0.987495    3.066855
     94          1           0        9.374766    0.588931    2.235560
     95          1           0        8.329218   -4.900834    0.407101
     96          1           0        6.967986   -5.883069   -0.021203
     97          1           0        7.125736   -5.502189    1.668811
     98          1           0        2.153495   -3.386156    1.039226
     99          1           0       -0.405982   -5.909360   -1.332880
    100          1           0        0.670726   -5.271844   -2.541046
    101          1           0       -0.613552   -4.289270   -1.967394
    102          1           0       -3.608470   -0.156665    1.495090
    103          1           0       -4.415261   -1.582876    2.000522
    104          1           0       -4.764707   -2.047201   -0.734291
    105          1           0       -5.757765    0.798911    1.543155
    106          1           0       -7.355168    0.044366    1.709851
    107          1           0       -7.100974    1.193851    0.512910
    108          1           0       -8.188034   -0.974046   -0.580668
    109          1           0       -7.114446   -2.228382   -1.340241
    110          1           0       -7.049663   -0.807523   -3.148292
    111          1           0       -6.341533    0.410577   -2.191187
    112          1           0       -8.116492    1.586773   -2.833133
    113          1           0       -8.728431    0.918216   -1.333563
    114          1           0       -9.064361   -0.757223   -3.717788
    115          1           0      -11.208374    1.122353   -3.934413
    116          1           0      -10.378711    0.246933   -5.108094
    117          1           0       -9.662512    1.832518   -4.475851
    118          1           0       -9.973992   -1.399461   -1.664766
    119          1           0      -11.197468   -1.443757   -2.780291
    120          1           0      -11.209138    1.290941   -1.662237
    121          1           0      -10.901525    0.035249   -0.419396
    122          1           0      -13.176614   -0.698961   -2.398120
    123          1           0      -13.257961    0.943943   -2.171980
    124          1           0      -13.000644   -0.513172    0.352995
    125          1           0      -14.715910   -1.741017    0.189524
    126          1           0      -15.122380   -1.266207   -1.424795
    127          1           0      -15.894424   -0.423656   -0.093822
    128          1           0      -14.807996    1.897326   -0.197221
    129          1           0      -13.201994    2.208601   -0.279520
    130          1           0      -13.715805    0.666614    2.099602
    131          1           0      -14.762204    2.044842    2.070098
    132          1           0      -13.078042    3.369624    2.916702
    133          1           0      -12.286141    3.210754    1.464017
    134          1           0      -11.457559    0.791979    2.508264
    135          1           0      -11.700485    2.644380    4.948564
    136          1           0      -11.149433    0.954641    4.882400
    137          1           0      -12.908453    1.388125    4.450140
    138          1           0       -9.876717    2.918315    3.687028
    139          1           0       -9.985475    2.959735    1.865485
    140          1           0       -9.565278    1.502824    2.669914
 ---------------------------------------------------------------------

 SCF Done:  E(RwB97XD) =  -3007.83799955     A.U. after   19 cycles

 Excitation energies and oscillator strengths:

 Excited State   1:      Singlet-A      1.6581 eV  747.75 nm  f=0.3699  <S**2>=0.000
     245 -> 248        0.19149
     246 -> 247        0.68208
     245 <- 248        0.11830
 This state for optimization and/or second-order correction.
 Total Energy, E(TD-HF/TD-DFT) =  -3007.77706574
 Copying the excited state density for this state as the 1-particle RhoCI density.

 Excited State   2:      Singlet-A      2.0752 eV  597.46 nm  f=0.1516  <S**2>=0.000
     245 -> 247        0.65683
     246 -> 248       -0.24337

 Excited State   3:      Singlet-A      3.2060 eV  386.73 nm  f=0.0030  <S**2>=0.000
     242 -> 247        0.27132
     244 -> 247        0.62476
     246 -> 248        0.11434

 Excited State   4:      Singlet-A      3.4803 eV  356.24 nm  f=0.0059  <S**2>=0.000
     240 -> 249       -0.10124
     241 -> 247        0.50565
     241 -> 249        0.29796
     241 -> 250        0.17480
     242 -> 247       -0.17030
     244 -> 247        0.11545
     246 -> 248       -0.15864

 Excited State   5:      Singlet-A      3.4981 eV  354.44 nm  f=0.0059  <S**2>=0.000
     239 -> 247        0.10611
     240 -> 247       -0.17990
     241 -> 247        0.11218
     241 -> 249        0.16165
     242 -> 247        0.54389
     244 -> 247       -0.25819
     246 -> 248        0.10307

 The electronic state is 1-A.
 Alpha  occ. eigenvalues --  -46.94804 -19.30555 -19.29169 -19.24726 -19.24157
 Alpha  occ. eigenvalues --  -19.24033 -19.23643 -14.47223 -14.46585 -14.44138
 Alpha  occ. eigenvalues --  -14.43714 -10.42887 -10.42868 -10.39389 -10.38676
 Alpha  occ. eigenvalues --  -10.36045 -10.35516 -10.35509 -10.35191 -10.34977
 Alpha  occ. eigenvalues --  -10.34886 -10.34499 -10.34353 -10.33791 -10.33455
 Alpha  occ. eigenvalues --  -10.33370 -10.33163 -10.32659 -10.32463 -10.32104
 Alpha  occ. eigenvalues --  -10.32047 -10.31990 -10.31860 -10.31833 -10.31526
 Alpha  occ. eigenvalues --  -10.31515 -10.31497 -10.31067 -10.30787 -10.30720
 Alpha  occ. eigenvalues --  -10.30646 -10.30545 -10.30330 -10.30261 -10.30248
 Alpha  occ. eigenvalues --  -10.29958 -10.29886 -10.29852 -10.29804 -10.29517
 Alpha  occ. eigenvalues --  -10.29329 -10.29172 -10.29063 -10.28900 -10.28876
 Alpha  occ. eigenvalues --  -10.28806 -10.28783 -10.28635 -10.28541 -10.28482
 Alpha  occ. eigenvalues --  -10.28434 -10.28431 -10.28359 -10.28241 -10.27940
 Alpha  occ. eigenvalues --  -10.27735  -3.20804  -1.94375  -1.93933  -1.93772
 Alpha  occ. eigenvalues --   -1.18914  -1.17502  -1.11678  -1.10517  -1.09745
 Alpha  occ. eigenvalues --   -1.08489  -1.05898  -1.05087  -1.04757  -1.04002
 Alpha  occ. eigenvalues --   -0.97026  -0.92960  -0.91539  -0.91254  -0.91215
 Alpha  occ. eigenvalues --   -0.90814  -0.89761  -0.89346  -0.89326  -0.88261
 Alpha  occ. eigenvalues --   -0.87992  -0.87669  -0.86657  -0.86186  -0.85349
 Alpha  occ. eigenvalues --   -0.84419  -0.84250  -0.83903  -0.82808  -0.82536
 Alpha  occ. eigenvalues --   -0.81789  -0.80399  -0.80135  -0.79248  -0.78421
 Alpha  occ. eigenvalues --   -0.78150  -0.77355  -0.77116  -0.76873  -0.76146
 Alpha  occ. eigenvalues --   -0.75776  -0.74919  -0.73794  -0.72983  -0.72104
 Alpha  occ. eigenvalues --   -0.71375  -0.70475  -0.69419  -0.68447  -0.68077
 Alpha  occ. eigenvalues --   -0.68041  -0.67318  -0.66990  -0.66250  -0.65704
 Alpha  occ. eigenvalues --   -0.65089  -0.64730  -0.64134  -0.63579  -0.62300
 Alpha  occ. eigenvalues --   -0.62119  -0.61860  -0.61810  -0.60812  -0.60246
 Alpha  occ. eigenvalues --   -0.59376  -0.58897  -0.57969  -0.57528  -0.57235
 Alpha  occ. eigenvalues --   -0.57067  -0.56611  -0.56429  -0.56397  -0.56196
 Alpha  occ. eigenvalues --   -0.55875  -0.55674  -0.55370  -0.55206  -0.55164
 Alpha  occ. eigenvalues --   -0.54552  -0.54419  -0.54162  -0.53939  -0.53840
 Alpha  occ. eigenvalues --   -0.53577  -0.53302  -0.52873  -0.52745  -0.52422
 Alpha  occ. eigenvalues --   -0.52346  -0.52148  -0.51979  -0.51739  -0.51634
 Alpha  occ. eigenvalues --   -0.51354  -0.51230  -0.51101  -0.50840  -0.50784
 Alpha  occ. eigenvalues --   -0.50418  -0.50294  -0.50103  -0.49967  -0.49640
 Alpha  occ. eigenvalues --   -0.49469  -0.49292  -0.48708  -0.48485  -0.48451
 Alpha  occ. eigenvalues --   -0.48286  -0.48032  -0.47999  -0.47831  -0.47564
 Alpha  occ. eigenvalues --   -0.47233  -0.47144  -0.47138  -0.46976  -0.46705
 Alpha  occ. eigenvalues --   -0.46655  -0.46482  -0.46446  -0.46390  -0.46214
 Alpha  occ. eigenvalues --   -0.45598  -0.45442  -0.45240  -0.44887  -0.44861
 Alpha  occ. eigenvalues --   -0.44690  -0.44454  -0.44256  -0.44148  -0.44117
 Alpha  occ. eigenvalues --   -0.44058  -0.43715  -0.43582  -0.43380  -0.43187
 Alpha  occ. eigenvalues --   -0.43129  -0.42993  -0.42760  -0.42475  -0.42399
 Alpha  occ. eigenvalues --   -0.41684  -0.41582  -0.41293  -0.41019  -0.40996
 Alpha  occ. eigenvalues --   -0.40419  -0.39800  -0.39633  -0.39477  -0.39391
 Alpha  occ. eigenvalues --   -0.39241  -0.38726  -0.38658  -0.38274  -0.38262
 Alpha  occ. eigenvalues --   -0.37917  -0.37556  -0.37261  -0.36810  -0.36581
 Alpha  occ. eigenvalues --   -0.35642  -0.35309  -0.35177  -0.33502  -0.33203
 Alpha  occ. eigenvalues --   -0.32706  -0.32261  -0.32073  -0.31948  -0.25816
 Alpha  occ. eigenvalues --   -0.23624
 Alpha virt. eigenvalues --   -0.07608   0.00078   0.01924   0.04016   0.05232
 Alpha virt. eigenvalues --    0.06825   0.07652   0.08011   0.08289   0.09628
 Alpha virt. eigenvalues --    0.10229   0.10753   0.11281   0.11970   0.12352

 Mulliken charges:
               1
     1  Mg   0.958218
     2  C   -0.031082
     3  C   -0.055380
     4  C   -0.072882
     5  C   -0.081886
     6  N   -0.332914
     7  C   -0.006375
     8  C   -0.041739
     9  C   -0.121767
    10  C    0.063892
    11  C    0.021000
    12  C    0.023474
    13  C   -0.001490
    14  C    0.184689
    15  O   -0.266122
    16  O   -0.394285
    17  N   -0.467430
    18  C    0.146854
    19  C   -0.189189
    20  C   -0.063312
    21  C    0.181457
    22  C    0.048165
    23  C    0.030375
    24  O   -0.252954
    25  C    0.002382
    26  N   -0.374591
    27  C    0.003978
    28  C   -0.075206
    29  C   -0.071923
    30  C    0.093837
    31  C    0.043321
    32  C   -0.027284
    33  C   -0.050487
    34  N   -0.475825
    35  C    0.145498
    36  C   -0.216816
    37  C    0.080455
    38  C    0.140975
    39  C    0.087804
    40  C    0.056716
    41  O   -0.242604
    42  C   -0.048670
    43  C    0.267557
    44  O   -0.242777
    45  O   -0.350347
    46  C    0.130096
    47  C    0.236232
    48  C   -0.106471
    49  C   -0.183260
    50  C    0.017772
    51  C    0.057651
    52  C   -0.025973
    53  C   -0.001082
    54  C   -0.191167
    55  C    0.041729
    56  C   -0.022588
    57  C   -0.045160
    58  C   -0.009711
    59  C   -0.178346
    60  C    0.015888
    61  C    0.014042
    62  C   -0.024258
    63  C    0.015128
    64  C   -0.227514
    65  C    0.000439
    66  C    0.004800
    67  H   -0.015421
    68  H    0.027157
    69  H   -0.007067
    70  H    0.049498
    71  H    0.043597
    72  H    0.034216
    73  H    0.055859
    74  H    0.042899
    75  H    0.048819
    76  H    0.052432
    77  H    0.072535
    78  H    0.059512
    79  H    0.060462
    80  H    0.052067
    81  H    0.049651
    82  H    0.066070
    83  H    0.066451
    84  H    0.049980
    85  H    0.028007
    86  H    0.027132
    87  H    0.036606
    88  H    0.051827
    89  H    0.045735
    90  H    0.027090
    91  H    0.036028
    92  H    0.035230
    93  H    0.044694
    94  H    0.042245
    95  H    0.021667
    96  H    0.052117
    97  H    0.063461
    98  H    0.062814
    99  H    0.058281
   100  H    0.057944
   101  H    0.041679
   102  H    0.044745
   103  H    0.065521
   104  H    0.026113
   105  H    0.029776
   106  H    0.051595
   107  H    0.038477
   108  H    0.014631
   109  H    0.036013
   110  H    0.018759
   111  H    0.023152
   112  H    0.006741
   113  H    0.006232
   114  H    0.005909
   115  H    0.009244
   116  H    0.027299
   117  H    0.033790
   118  H    0.002986
   119  H    0.013573
   120  H    0.036368
   121  H    0.036254
   122  H    0.014470
   123  H    0.012348
   124  H    0.019929
   125  H    0.027192
   126  H    0.023727
   127  H    0.032159
   128  H    0.009963
   129  H    0.003732
   130  H    0.018463
   131  H    0.017556
   132  H    0.012108
   133  H    0.001312
   134  H    0.025347
   135  H    0.033934
   136  H    0.033579
   137  H    0.034949
   138  H    0.027430
   139  H    0.028077
   140  H    0.011712
 Sum of Mulliken charges =  -0.00000

 Dipole moment (field-independent basis, Debye):
    X=             -2.1243    Y=              5.3189    Z=             -0.9537  Tot=              5.8062
 Quadrupole moment (field-independent basis, Debye-Ang):
   XX=           -370.7978   YY=           -416.0445   ZZ=           -413.2905
   XY=             -2.0063   XZ=             17.8423   YZ=              5.0251

 Normal termination of Gaussian 16 at Thu Apr 28 17:42:32 2022.
