 Gaussian 16, Revision A.03,
 Gaussian 16:  ES64L-G16RevA.03 25-Dec-2016

 --------------------
 #p ZINDO=(nstates=5)
 --------------------

 ------------------------------
 step_1651_chromophore_25 ZINDO
 ------------------------------
 Symbolic Z-matrix:
 Charge =  0 Multiplicity = 1

                         Standard orientation:
 ---------------------------------------------------------------------
 Center     Atomic      Atomic             Coordinates (Angstroms)
 Number     Number       Type             X           Y           Z
 ---------------------------------------------------------------------
      1         12           0        5.926305    0.412039    0.322052
      2          6           0        3.442161   -2.221748    0.101567
      3          6           0        3.390589    2.652941   -0.295334
      4          6           0        8.274957    2.796305   -0.141970
      5          6           0        8.357948   -2.024176    0.239987
      6          7           0        3.730807    0.226810   -0.185286
      7          6           0        2.895727   -0.904170   -0.014831
      8          6           0        1.442651   -0.563855   -0.106892
      9          6           0        1.425690    1.023542   -0.379959
     10          6           0        2.933560    1.324569   -0.270917
     11          6           0        0.811114    1.513221   -1.752534
     12          6           0        0.678208   -0.940275    1.250268
     13          6           0       -0.261428   -2.169014    1.236742
     14          6           0       -1.671594   -1.953549    1.781553
     15          8           0       -2.069519   -1.930089    2.938184
     16          8           0       -2.588808   -1.689049    0.780098
     17          7           0        5.817638    2.503088    0.078957
     18          6           0        4.685821    3.253427   -0.043331
     19          6           0        5.069866    4.600753   -0.299386
     20          6           0        6.533461    4.653763   -0.224923
     21          6           0        6.955862    3.277591   -0.109277
     22          6           0        3.978638    5.741536   -0.437698
     23          6           0        7.430062    5.885261   -0.374581
     24          8           0        8.665536    5.770396   -0.346591
     25          6           0        6.866472    7.248208   -0.540742
     26          7           0        8.033980    0.379440   -0.052673
     27          6           0        8.803523    1.490644   -0.129320
     28          6           0       10.269666    1.064745   -0.557126
     29          6           0       10.328679   -0.452568   -0.010679
     30          6           0        8.853332   -0.768799    0.013156
     31          6           0       10.588464    1.252301   -2.064621
     32          6           0       10.951977   -0.653406    1.353773
     33          6           0       10.103733   -0.146563    2.574112
     34          7           0        5.929232   -1.612130    0.211034
     35          6           0        7.028645   -2.462411    0.351944
     36          6           0        6.516460   -3.807329    0.437262
     37          6           0        5.145063   -3.738520    0.358137
     38          6           0        4.825418   -2.437511    0.221211
     39          6           0        7.290329   -5.103102    0.667869
     40          6           0        3.991873   -4.502591    0.420053
     41          8           0        3.753403   -5.724941    0.612436
     42          6           0        2.823725   -3.473956    0.183166
     43          6           0        2.190586   -3.946091   -1.004491
     44          8           0        2.658400   -3.949060   -2.134785
     45          8           0        1.013784   -4.504811   -0.597827
     46          6           0        0.132048   -5.009255   -1.629762
     47          6           0       -3.922990   -1.137665    1.137132
     48          6           0       -4.959270   -1.331830    0.065455
     49          6           0       -6.139015   -0.752683    0.052916
     50          6           0       -6.592463    0.359828    0.996369
     51          6           0       -7.199163   -1.203863   -0.976218
     52          6           0       -7.178238   -0.289649   -2.197696
     53          6           0       -8.360377    0.653649   -2.324876
     54          6           0       -9.527218    0.064022   -3.170937
     55          6           0      -10.190966    0.904095   -4.259352
     56          6           0      -10.559593   -0.716042   -2.279652
     57          6           0      -11.348786    0.244810   -1.390930
     58          6           0      -12.894404    0.051958   -1.660103
     59          6           0      -13.686444    0.003738   -0.318324
     60          6           0      -14.957070   -0.871336   -0.422564
     61          6           0      -13.874610    1.496974    0.198481
     62          6           0      -13.796830    1.682152    1.714292
     63          6           0      -12.665567    2.590368    2.276516
     64          6           0      -11.549323    1.786427    2.946731
     65          6           0      -11.857426    1.675859    4.474731
     66          6           0      -10.179490    2.396767    2.778423
     67          1           0        2.631982    3.437115   -0.352188
     68          1           0        9.099903    3.500695   -0.270347
     69          1           0        9.081029   -2.831878    0.376499
     70          1           0        1.047483   -1.012390   -1.018177
     71          1           0        0.979633    1.618944    0.417050
     72          1           0        0.249199    0.719133   -2.243296
     73          1           0        1.586713    1.765915   -2.474675
     74          1           0        0.052203    2.272346   -1.563023
     75          1           0        0.106521   -0.076914    1.589390
     76          1           0        1.395396   -1.165014    2.039247
     77          1           0        0.126327   -2.954025    1.886215
     78          1           0       -0.459818   -2.566204    0.240867
     79          1           0        4.235231    6.504117    0.299006
     80          1           0        2.916527    5.497754   -0.403244
     81          1           0        4.140070    6.070334   -1.464376
     82          1           0        6.295382    7.615549    0.311191
     83          1           0        6.430003    7.228065   -1.539295
     84          1           0        7.762000    7.868647   -0.504852
     85          1           0       10.933147    1.721581    0.006231
     86          1           0       10.931446   -1.108204   -0.638691
     87          1           0       11.617112    1.611007   -2.068931
     88          1           0        9.945291    2.032247   -2.473489
     89          1           0       10.611399    0.322119   -2.632694
     90          1           0       11.853685   -0.046533    1.437961
     91          1           0       11.291683   -1.686999    1.419866
     92          1           0       10.699982    0.412156    3.294253
     93          1           0        9.614726   -0.987495    3.066855
     94          1           0        9.374766    0.588931    2.235560
     95          1           0        8.329218   -4.900834    0.407101
     96          1           0        6.967986   -5.883069   -0.021203
     97          1           0        7.125736   -5.502189    1.668811
     98          1           0        2.153495   -3.386156    1.039226
     99          1           0       -0.405982   -5.909360   -1.332880
    100          1           0        0.670726   -5.271844   -2.541046
    101          1           0       -0.613552   -4.289270   -1.967394
    102          1           0       -3.608470   -0.156665    1.495090
    103          1           0       -4.415261   -1.582876    2.000522
    104          1           0       -4.764707   -2.047201   -0.734291
    105          1           0       -5.757765    0.798911    1.543155
    106          1           0       -7.355168    0.044366    1.709851
    107          1           0       -7.100974    1.193851    0.512910
    108          1           0       -8.188034   -0.974046   -0.580668
    109          1           0       -7.114446   -2.228382   -1.340241
    110          1           0       -7.049663   -0.807523   -3.148292
    111          1           0       -6.341533    0.410577   -2.191187
    112          1           0       -8.116492    1.586773   -2.833133
    113          1           0       -8.728431    0.918216   -1.333563
    114          1           0       -9.064361   -0.757223   -3.717788
    115          1           0      -11.208374    1.122353   -3.934413
    116          1           0      -10.378711    0.246933   -5.108094
    117          1           0       -9.662512    1.832518   -4.475851
    118          1           0       -9.973992   -1.399461   -1.664766
    119          1           0      -11.197468   -1.443757   -2.780291
    120          1           0      -11.209138    1.290941   -1.662237
    121          1           0      -10.901525    0.035249   -0.419396
    122          1           0      -13.176614   -0.698961   -2.398120
    123          1           0      -13.257961    0.943943   -2.171980
    124          1           0      -13.000644   -0.513172    0.352995
    125          1           0      -14.715910   -1.741017    0.189524
    126          1           0      -15.122380   -1.266207   -1.424795
    127          1           0      -15.894424   -0.423656   -0.093822
    128          1           0      -14.807996    1.897326   -0.197221
    129          1           0      -13.201994    2.208601   -0.279520
    130          1           0      -13.715805    0.666614    2.099602
    131          1           0      -14.762204    2.044842    2.070098
    132          1           0      -13.078042    3.369624    2.916702
    133          1           0      -12.286141    3.210754    1.464017
    134          1           0      -11.457559    0.791979    2.508264
    135          1           0      -11.700485    2.644380    4.948564
    136          1           0      -11.149433    0.954641    4.882400
    137          1           0      -12.908453    1.388125    4.450140
    138          1           0       -9.876717    2.918315    3.687028
    139          1           0       -9.985475    2.959735    1.865485
    140          1           0       -9.565278    1.502824    2.669914
 ---------------------------------------------------------------------

 SCF Done:  E(RZINDO/S) =  -474.299702889     A.U. after   20 cycles

 Excitation energies and oscillator strengths:

 Excited State   1:      Singlet-A      1.2370 eV 1002.30 nm  f=0.5769  <S**2>=0.000
     175 ->178        -0.18706
     176 ->177         0.66356
 This state for optimization and/or second-order correction.
 Total Energy, E(CIS/TDA) =  -474.254244015
 Copying the excited state density for this state as the 1-particle RhoCI density.

 Excited State   2:      Singlet-A      1.8467 eV  671.38 nm  f=0.1210  <S**2>=0.000
     175 ->177         0.59044
     176 ->178         0.35178

 Excited State   3:      Singlet-A      2.9068 eV  426.53 nm  f=0.0483  <S**2>=0.000
     170 ->177         0.30682
     170 ->178         0.22363
     170 ->179         0.35072
     170 ->180        -0.25625
     170 ->185         0.14368
     170 ->187         0.15141
     176 ->178         0.17347
     176 ->179         0.10294

 Excited State   4:      Singlet-A      2.9108 eV  425.95 nm  f=0.0082  <S**2>=0.000
     168 ->177         0.31272
     168 ->179        -0.34115
     168 ->180        -0.34173
     168 ->184        -0.10150
     168 ->185        -0.22438
     171 ->177         0.13896

 Excited State   5:      Singlet-A      2.9577 eV  419.19 nm  f=0.4826  <S**2>=0.000
     170 ->179        -0.11414
     171 ->177         0.13434
     175 ->177        -0.23370
     176 ->178         0.47582
     176 ->179         0.30621

 The electronic state is 1-A.
 Alpha  occ. eigenvalues --   -1.87117  -1.80334  -1.78938  -1.74434  -1.72193
 Alpha  occ. eigenvalues --   -1.70262  -1.66840  -1.62109  -1.60300  -1.59248
 Alpha  occ. eigenvalues --   -1.55873  -1.50937  -1.47909  -1.46890  -1.45254
 Alpha  occ. eigenvalues --   -1.44541  -1.42805  -1.38834  -1.38028  -1.37759
 Alpha  occ. eigenvalues --   -1.35900  -1.33336  -1.32517  -1.31342  -1.29361
 Alpha  occ. eigenvalues --   -1.27638  -1.25161  -1.22141  -1.21024  -1.18961
 Alpha  occ. eigenvalues --   -1.17755  -1.16797  -1.15777  -1.15409  -1.13916
 Alpha  occ. eigenvalues --   -1.13795  -1.10860  -1.10754  -1.05168  -1.04166
 Alpha  occ. eigenvalues --   -1.02774  -1.01570  -0.98887  -0.98518  -0.98186
 Alpha  occ. eigenvalues --   -0.97280  -0.95102  -0.93983  -0.93294  -0.92667
 Alpha  occ. eigenvalues --   -0.91726  -0.90648  -0.88206  -0.87624  -0.85266
 Alpha  occ. eigenvalues --   -0.85145  -0.84800  -0.84371  -0.81208  -0.80280
 Alpha  occ. eigenvalues --   -0.80109  -0.79100  -0.77691  -0.77415  -0.75889
 Alpha  occ. eigenvalues --   -0.75791  -0.75254  -0.74250  -0.74173  -0.73367
 Alpha  occ. eigenvalues --   -0.73101  -0.72899  -0.72327  -0.72051  -0.70826
 Alpha  occ. eigenvalues --   -0.70448  -0.69494  -0.68829  -0.68445  -0.68040
 Alpha  occ. eigenvalues --   -0.67829  -0.67716  -0.66578  -0.66456  -0.66357
 Alpha  occ. eigenvalues --   -0.65631  -0.64918  -0.64716  -0.63815  -0.63553
 Alpha  occ. eigenvalues --   -0.63245  -0.63031  -0.62718  -0.62398  -0.62242
 Alpha  occ. eigenvalues --   -0.61897  -0.61359  -0.60951  -0.60027  -0.59937
 Alpha  occ. eigenvalues --   -0.59616  -0.59280  -0.59050  -0.58190  -0.57667
 Alpha  occ. eigenvalues --   -0.57567  -0.57226  -0.57010  -0.56927  -0.56412
 Alpha  occ. eigenvalues --   -0.56043  -0.55743  -0.55636  -0.55212  -0.54781
 Alpha  occ. eigenvalues --   -0.54574  -0.54510  -0.53760  -0.52864  -0.52634
 Alpha  occ. eigenvalues --   -0.52482  -0.52225  -0.52069  -0.51882  -0.51792
 Alpha  occ. eigenvalues --   -0.51452  -0.50650  -0.50401  -0.50206  -0.49898
 Alpha  occ. eigenvalues --   -0.49685  -0.49601  -0.49236  -0.49119  -0.48986
 Alpha  occ. eigenvalues --   -0.48833  -0.48581  -0.48251  -0.48053  -0.47760
 Alpha  occ. eigenvalues --   -0.47527  -0.47399  -0.46845  -0.46652  -0.46451
 Alpha  occ. eigenvalues --   -0.46430  -0.45906  -0.45809  -0.45349  -0.45206
 Alpha  occ. eigenvalues --   -0.45005  -0.44842  -0.44422  -0.44231  -0.43994
 Alpha  occ. eigenvalues --   -0.43486  -0.43265  -0.43031  -0.42305  -0.42136
 Alpha  occ. eigenvalues --   -0.41841  -0.41353  -0.40514  -0.39183  -0.38754
 Alpha  occ. eigenvalues --   -0.38392  -0.37453  -0.35680  -0.35172  -0.34774
 Alpha  occ. eigenvalues --   -0.33366  -0.32765  -0.32465  -0.32159  -0.26534
 Alpha  occ. eigenvalues --   -0.22435
 Alpha virt. eigenvalues --   -0.09242  -0.02314  -0.01014   0.00819   0.01688
 Alpha virt. eigenvalues --    0.01849   0.02525   0.03135   0.04542   0.05122
 Alpha virt. eigenvalues --    0.05991   0.06562   0.07268   0.07349   0.08125

 Mulliken charges:
               1
     1  Mg   0.424763
     2  C   -0.025659
     3  C   -0.090194
     4  C   -0.055359
     5  C   -0.047248
     6  N   -0.289522
     7  C    0.095063
     8  C    0.007524
     9  C   -0.007069
    10  C    0.156577
    11  C   -0.051178
    12  C   -0.016579
    13  C    0.008421
    14  C    0.463448
    15  O   -0.520007
    16  O   -0.295360
    17  N   -0.333588
    18  C    0.120494
    19  C    0.007254
    20  C   -0.044586
    21  C    0.155613
    22  C   -0.048724
    23  C    0.328641
    24  O   -0.531479
    25  C   -0.033501
    26  N   -0.279035
    27  C    0.148696
    28  C    0.004729
    29  C    0.009725
    30  C    0.110020
    31  C   -0.046181
    32  C   -0.025169
    33  C   -0.057850
    34  N   -0.334533
    35  C    0.080551
    36  C    0.023375
    37  C   -0.032203
    38  C    0.109810
    39  C   -0.045111
    40  C    0.334185
    41  O   -0.547619
    42  C    0.069883
    43  C    0.507196
    44  O   -0.530891
    45  O   -0.266131
    46  C    0.070831
    47  C    0.104940
    48  C   -0.071882
    49  C   -0.008087
    50  C   -0.044712
    51  C   -0.024014
    52  C   -0.027070
    53  C   -0.028388
    54  C   -0.018572
    55  C   -0.055614
    56  C   -0.040872
    57  C   -0.039085
    58  C   -0.042259
    59  C   -0.011402
    60  C   -0.057100
    61  C   -0.034827
    62  C   -0.036448
    63  C   -0.029741
    64  C   -0.009896
    65  C   -0.060308
    66  C   -0.062175
    67  H    0.016947
    68  H    0.044230
    69  H    0.022312
    70  H    0.044770
    71  H    0.034468
    72  H    0.016943
    73  H    0.034157
    74  H    0.025009
    75  H    0.030354
    76  H    0.030629
    77  H    0.045402
    78  H    0.041865
    79  H    0.032004
    80  H    0.035850
    81  H    0.026848
    82  H    0.045419
    83  H    0.049235
    84  H    0.033803
    85  H    0.026276
    86  H    0.027686
    87  H    0.016133
    88  H    0.033342
    89  H    0.029967
    90  H    0.009907
    91  H    0.023580
    92  H    0.016341
    93  H    0.023722
    94  H    0.027239
    95  H    0.017840
    96  H    0.033001
    97  H    0.040206
    98  H    0.051524
    99  H    0.037298
   100  H    0.046001
   101  H    0.031078
   102  H    0.047412
   103  H    0.055895
   104  H    0.037588
   105  H    0.019524
   106  H    0.028677
   107  H    0.023640
   108  H    0.027860
   109  H    0.030723
   110  H    0.019689
   111  H    0.008993
   112  H    0.012076
   113  H    0.019611
   114  H    0.001987
   115  H    0.015018
   116  H    0.020518
   117  H    0.027054
   118  H    0.003908
   119  H    0.020801
   120  H    0.021763
   121  H    0.030277
   122  H    0.026622
   123  H    0.007283
   124  H    0.018706
   125  H    0.014292
   126  H    0.018986
   127  H    0.023857
   128  H    0.013436
   129  H    0.017194
   130  H    0.017275
   131  H    0.012987
   132  H    0.017531
   133  H    0.010822
   134  H    0.022555
   135  H    0.025083
   136  H    0.021445
   137  H    0.023554
   138  H    0.022897
   139  H    0.020150
   140  H    0.006416
 Sum of Mulliken charges =  -0.00000

 Dipole moment (field-independent basis, Debye):
    X=             -3.2580    Y=              8.4628    Z=             -0.4698  Tot=              9.0805
 N-N= 4.299330600215D+03 E-N= 0.000000000000D+00  KE=-9.272704826824D+03
 Leave Link  601 at Thu Apr 28 17:55:55 2022, MaxMem=  6710886400 cpu:               2.0 elap:               0.1
 (Enter /sw/apps/gaussian-16.0/g16/l9999.exe)
 1\1\GINC-BP1-COMPUTE150\SP\RZINDO CIS\STO-3G\C55H74Mg1N4O6\OF15641\28-
 Apr-2022\0\\#p ZINDO=(nstates=5)\\step_1651_chromophore_25 ZINDO\\0,1\
 Mg,0,-2.22,34.698,26.151\C,0,-3.584,33.064,29.088\C,0,-0.677,36.914,28
 .282\C,0,-1.489,36.62,23.47\C,0,-4.378,32.818,24.237\N,0,-2.253,35.038
 ,28.386\C,0,-2.694,34.143,29.391\C,0,-2.236,34.543,30.757\C,0,-1.394,3
 5.894,30.511\C,0,-1.432,35.95,28.971\C,0,-1.945,37.219,31.176\C,0,-1.3
 35,33.395,31.419\C,0,-1.952,32.559,32.565\C,0,-1.121,32.434,33.84\O,0,

 Normal termination of Gaussian 16 at Thu Apr 28 17:55:56 2022.
