 Gaussian 16, Revision A.03,
 Gaussian 16:  ES64L-G16RevA.03 25-Dec-2016

 ------------------------------
 #p blyp/Def2SVP td=(nstates=5)
 ------------------------------

 ---------------------------------------------------
 step_1251_chromophore_18 TDDFT with blyp functional
 ---------------------------------------------------
 Symbolic Z-matrix:
 Charge =  0 Multiplicity = 1

                         Standard orientation:
 ---------------------------------------------------------------------
 Center     Atomic      Atomic             Coordinates (Angstroms)
 Number     Number       Type             X           Y           Z
 ---------------------------------------------------------------------
      1         12           0        5.474586    1.067544    0.284107
      2          6           0        4.623658   -2.394417    0.278825
      3          6           0        2.062347    1.817659   -0.158808
      4          6           0        6.210028    4.363865   -0.226303
      5          6           0        8.842976    0.271540    0.443223
      6          7           0        3.524614   -0.131441    0.304661
      7          6           0        3.449968   -1.517924    0.237247
      8          6           0        2.010427   -1.932518    0.085943
      9          6           0        1.205056   -0.595009   -0.101177
     10          6           0        2.284344    0.514646    0.017787
     11          6           0        0.307169   -0.391561   -1.360047
     12          6           0        1.599187   -2.738913    1.333686
     13          6           0        0.492007   -3.773831    1.196654
     14          6           0       -0.188751   -3.886883   -0.153332
     15          8           0        0.216655   -4.580296   -1.044572
     16          8           0       -1.293655   -3.075373   -0.144883
     17          7           0        4.272169    2.872005   -0.096468
     18          6           0        2.901534    2.946767   -0.200602
     19          6           0        2.501675    4.342328   -0.385805
     20          6           0        3.687906    5.115741   -0.532813
     21          6           0        4.780027    4.134000   -0.308086
     22          6           0        1.008743    4.619051   -0.500288
     23          6           0        3.901249    6.598771   -0.747652
     24          8           0        4.967004    7.134956   -0.784055
     25          6           0        2.654214    7.515185   -1.003685
     26          7           0        7.210688    2.212829    0.052163
     27          6           0        7.330340    3.477800   -0.152769
     28          6           0        8.770752    3.978198   -0.078705
     29          6           0        9.535151    2.705420    0.416616
     30          6           0        8.456043    1.623757    0.291788
     31          6           0        9.347611    4.585052   -1.314293
     32          6           0       10.224925    2.800865    1.839196
     33          6           0        9.560525    2.038783    3.037273
     34          7           0        6.543048   -0.674830    0.332842
     35          6           0        7.920786   -0.867110    0.377586
     36          6           0        8.236832   -2.246050    0.379854
     37          6           0        6.982927   -2.873581    0.392053
     38          6           0        5.973669   -1.876351    0.348841
     39          6           0        9.637123   -2.853180    0.335500
     40          6           0        6.354363   -4.213878    0.340469
     41          8           0        6.860052   -5.291009    0.478735
     42          6           0        4.805730   -3.925767    0.254580
     43          6           0        4.310926   -4.570709   -1.050263
     44          8           0        4.433442   -4.128798   -2.209493
     45          8           0        3.579505   -5.763292   -0.724298
     46          6           0        3.078905   -6.291187   -1.977755
     47          6           0       -2.301506   -3.451519   -1.104010
     48          6           0       -3.523698   -2.693531   -0.794855
     49          6           0       -4.676072   -2.696199   -1.455356
     50          6           0       -4.884663   -3.480722   -2.650313
     51          6           0       -5.731966   -1.637971   -1.182950
     52          6           0       -6.638645   -2.245955   -0.122674
     53          6           0       -6.685013   -1.413211    1.259460
     54          6           0       -8.178842   -1.412628    1.869801
     55          6           0       -8.137292   -1.426014    3.419501
     56          6           0       -8.946168   -0.169971    1.390391
     57          6           0      -10.218822   -0.526574    0.658249
     58          6           0      -11.489294   -0.636095    1.553380
     59          6           0      -12.426943    0.537636    1.284348
     60          6           0      -13.011425    1.087565    2.617921
     61          6           0      -13.492177    0.318638    0.229156
     62          6           0      -13.637320    1.406886   -0.876851
     63          6           0      -15.164005    1.678814   -1.240673
     64          6           0      -15.729157    3.032304   -0.640955
     65          6           0      -17.310741    2.967818   -0.727345
     66          6           0      -15.187855    4.251147   -1.425625
     67          1           0        1.002359    1.862049   -0.418970
     68          1           0        6.411198    5.426465   -0.384539
     69          1           0        9.909899    0.075387    0.570400
     70          1           0        1.900388   -2.597447   -0.771152
     71          1           0        0.570391   -0.437063    0.770910
     72          1           0       -0.696017   -0.099889   -1.049311
     73          1           0        0.208930   -1.312338   -1.935065
     74          1           0        0.783549    0.289588   -2.066461
     75          1           0        1.126467   -2.078165    2.059451
     76          1           0        2.478880   -3.272955    1.692051
     77          1           0       -0.386315   -3.569588    1.808879
     78          1           0        0.913399   -4.715507    1.548813
     79          1           0        0.351610    3.821590   -0.153213
     80          1           0        0.901995    4.747468   -1.576795
     81          1           0        0.723457    5.550261   -0.011581
     82          1           0        1.972935    7.332712   -0.172274
     83          1           0        2.155259    7.426859   -1.968160
     84          1           0        2.907769    8.574917   -0.982175
     85          1           0        8.729931    4.685923    0.748506
     86          1           0       10.297551    2.457716   -0.323405
     87          1           0        8.947240    4.125735   -2.217744
     88          1           0       10.426816    4.437354   -1.258797
     89          1           0        9.171646    5.653270   -1.440954
     90          1           0       10.344919    3.843154    2.134646
     91          1           0       11.212216    2.342796    1.791261
     92          1           0       10.193397    1.208310    3.350562
     93          1           0        8.608928    1.547460    2.834185
     94          1           0        9.435956    2.803921    3.802591
     95          1           0        9.695353   -3.721620   -0.320631
     96          1           0        9.755185   -3.087535    1.393350
     97          1           0       10.418508   -2.202323   -0.054260
     98          1           0        4.350014   -4.440611    1.100126
     99          1           0        2.846262   -7.353758   -1.911233
    100          1           0        3.713311   -6.300097   -2.864023
    101          1           0        2.229445   -5.658767   -2.238030
    102          1           0       -2.460262   -4.529738   -1.080229
    103          1           0       -2.118009   -3.144267   -2.133556
    104          1           0       -3.422535   -1.963406    0.007234
    105          1           0       -5.207236   -2.940987   -3.541000
    106          1           0       -5.619981   -4.273025   -2.513938
    107          1           0       -4.034234   -4.071151   -2.989264
    108          1           0       -6.451890   -1.501908   -1.990176
    109          1           0       -5.362501   -0.667787   -0.853293
    110          1           0       -6.125477   -3.164183    0.165875
    111          1           0       -7.636817   -2.557877   -0.427994
    112          1           0       -6.397869   -0.361938    1.272832
    113          1           0       -6.063166   -1.946777    1.978744
    114          1           0       -8.789971   -2.283619    1.630171
    115          1           0       -7.148385   -1.029611    3.650502
    116          1           0       -8.237771   -2.464461    3.731919
    117          1           0       -8.953034   -0.880176    3.893164
    118          1           0       -8.319246    0.414356    0.716362
    119          1           0       -9.226519    0.534522    2.173832
    120          1           0      -10.173475   -1.475781    0.123826
    121          1           0      -10.426569    0.228369   -0.099806
    122          1           0      -11.125310   -0.658243    2.579785
    123          1           0      -12.009172   -1.564914    1.319674
    124          1           0      -11.757389    1.352419    1.008741
    125          1           0      -14.057803    1.391943    2.600416
    126          1           0      -12.542555    1.998170    2.992290
    127          1           0      -13.003040    0.349664    3.420147
    128          1           0      -14.374634    0.076759    0.821476
    129          1           0      -13.227700   -0.607304   -0.280747
    130          1           0      -13.305638    1.062087   -1.856723
    131          1           0      -13.176324    2.330916   -0.528168
    132          1           0      -15.724171    0.827770   -0.853259
    133          1           0      -15.330344    1.626489   -2.316522
    134          1           0      -15.177961    3.153132    0.292529
    135          1           0      -17.704779    3.958112   -0.954719
    136          1           0      -17.720506    2.683298    0.241577
    137          1           0      -17.693775    2.172557   -1.366465
    138          1           0      -14.820866    5.095034   -0.841705
    139          1           0      -15.922724    4.593888   -2.154125
    140          1           0      -14.348470    3.796598   -1.951522
 ---------------------------------------------------------------------

 SCF Done:  E(RB-LYP) =  -3007.35267919     A.U. after   20 cycles

 Excitation energies and oscillator strengths:

 Excited State   1:      Singlet-A      1.7957 eV  690.44 nm  f=0.3291  <S**2>=0.000
     245 -> 248        0.18221
     246 -> 247        0.69327
     246 <- 247       -0.16202
 This state for optimization and/or second-order correction.
 Total Energy, E(TD-HF/TD-DFT) =  -3007.28668704
 Copying the excited state density for this state as the 1-particle RhoCI density.

 Excited State   2:      Singlet-A      1.9769 eV  627.16 nm  f=0.0500  <S**2>=0.000
     243 -> 247       -0.31125
     244 -> 247       -0.29445
     245 -> 247        0.52509
     246 -> 248       -0.17844

 Excited State   3:      Singlet-A      2.0102 eV  616.77 nm  f=0.0012  <S**2>=0.000
     243 -> 247       -0.41376
     244 -> 247        0.56885

 Excited State   4:      Singlet-A      2.0367 eV  608.75 nm  f=0.0339  <S**2>=0.000
     243 -> 247        0.48029
     244 -> 247        0.29784
     245 -> 247        0.38621
     246 -> 248       -0.16387

 Excited State   5:      Singlet-A      2.3391 eV  530.06 nm  f=0.0001  <S**2>=0.000
     242 -> 247        0.70693

 The electronic state is 1-A.
 Alpha  occ. eigenvalues --  -46.27479 -18.83431 -18.81468 -18.78125 -18.77037
 Alpha  occ. eigenvalues --  -18.76042 -18.76028 -14.03328 -14.03071 -14.01117
 Alpha  occ. eigenvalues --  -14.00877 -10.04674 -10.03904 -10.00266  -9.99683
 Alpha  occ. eigenvalues --   -9.98611  -9.97402  -9.96443  -9.96297  -9.96067
 Alpha  occ. eigenvalues --   -9.96057  -9.95582  -9.95433  -9.95146  -9.94647
 Alpha  occ. eigenvalues --   -9.94634  -9.94585  -9.94454  -9.94125  -9.93888
 Alpha  occ. eigenvalues --   -9.93547  -9.93399  -9.93383  -9.93269  -9.93223
 Alpha  occ. eigenvalues --   -9.93221  -9.93205  -9.92952  -9.92870  -9.92709
 Alpha  occ. eigenvalues --   -9.92531  -9.92441  -9.92399  -9.92387  -9.92346
 Alpha  occ. eigenvalues --   -9.92306  -9.92195  -9.92129  -9.91969  -9.91958
 Alpha  occ. eigenvalues --   -9.91905  -9.91813  -9.91685  -9.91615  -9.91568
 Alpha  occ. eigenvalues --   -9.91469  -9.91193  -9.91191  -9.91185  -9.90850
 Alpha  occ. eigenvalues --   -9.90811  -9.90760  -9.90705  -9.90655  -9.90565
 Alpha  occ. eigenvalues --   -9.90496  -2.91964  -1.72410  -1.71806  -1.71705
 Alpha  occ. eigenvalues --   -0.99685  -0.95601  -0.93394  -0.92665  -0.92423
 Alpha  occ. eigenvalues --   -0.88445  -0.87227  -0.86061  -0.84751  -0.83476
 Alpha  occ. eigenvalues --   -0.75173  -0.74362  -0.73440  -0.73111  -0.72234
 Alpha  occ. eigenvalues --   -0.71863  -0.71617  -0.70667  -0.70664  -0.70170
 Alpha  occ. eigenvalues --   -0.69707  -0.69583  -0.68302  -0.67160  -0.66892
 Alpha  occ. eigenvalues --   -0.66330  -0.65601  -0.64962  -0.64355  -0.63983
 Alpha  occ. eigenvalues --   -0.63593  -0.62433  -0.62360  -0.61353  -0.60566
 Alpha  occ. eigenvalues --   -0.60060  -0.59976  -0.59691  -0.59325  -0.59019
 Alpha  occ. eigenvalues --   -0.58705  -0.57755  -0.56549  -0.55686  -0.54933
 Alpha  occ. eigenvalues --   -0.53747  -0.53455  -0.52644  -0.52418  -0.51649
 Alpha  occ. eigenvalues --   -0.51434  -0.51175  -0.50721  -0.50525  -0.50120
 Alpha  occ. eigenvalues --   -0.49664  -0.49156  -0.48698  -0.47503  -0.47380
 Alpha  occ. eigenvalues --   -0.46095  -0.45701  -0.45662  -0.45050  -0.44030
 Alpha  occ. eigenvalues --   -0.43952  -0.43781  -0.43130  -0.43000  -0.42553
 Alpha  occ. eigenvalues --   -0.42303  -0.41871  -0.41528  -0.41331  -0.41191
 Alpha  occ. eigenvalues --   -0.40944  -0.40718  -0.40581  -0.40313  -0.40203
 Alpha  occ. eigenvalues --   -0.40013  -0.39636  -0.39512  -0.39308  -0.39278
 Alpha  occ. eigenvalues --   -0.39157  -0.38639  -0.38581  -0.38435  -0.38138
 Alpha  occ. eigenvalues --   -0.38018  -0.37964  -0.37598  -0.37443  -0.37225
 Alpha  occ. eigenvalues --   -0.37048  -0.36973  -0.36870  -0.36620  -0.36455
 Alpha  occ. eigenvalues --   -0.36153  -0.36103  -0.36047  -0.35881  -0.35603
 Alpha  occ. eigenvalues --   -0.35598  -0.35242  -0.34960  -0.34714  -0.34694
 Alpha  occ. eigenvalues --   -0.34491  -0.34249  -0.34098  -0.33914  -0.33761
 Alpha  occ. eigenvalues --   -0.33705  -0.33669  -0.33242  -0.33100  -0.32949
 Alpha  occ. eigenvalues --   -0.32845  -0.32628  -0.32447  -0.32381  -0.32165
 Alpha  occ. eigenvalues --   -0.32089  -0.32037  -0.31886  -0.31818  -0.31782
 Alpha  occ. eigenvalues --   -0.31615  -0.31380  -0.31194  -0.31088  -0.30888
 Alpha  occ. eigenvalues --   -0.30746  -0.30641  -0.30345  -0.29866  -0.29821
 Alpha  occ. eigenvalues --   -0.29657  -0.29629  -0.29260  -0.29217  -0.29105
 Alpha  occ. eigenvalues --   -0.28831  -0.28478  -0.28114  -0.28037  -0.27760
 Alpha  occ. eigenvalues --   -0.27672  -0.27425  -0.27117  -0.26695  -0.26497
 Alpha  occ. eigenvalues --   -0.26379  -0.25911  -0.25888  -0.25817  -0.25242
 Alpha  occ. eigenvalues --   -0.25106  -0.24581  -0.23925  -0.23853  -0.23762
 Alpha  occ. eigenvalues --   -0.23156  -0.22319  -0.22056  -0.21572  -0.20840
 Alpha  occ. eigenvalues --   -0.20471  -0.20231  -0.18959  -0.18921  -0.17176
 Alpha  occ. eigenvalues --   -0.15734
 Alpha virt. eigenvalues --   -0.11635  -0.06557  -0.05756  -0.04406  -0.03877
 Alpha virt. eigenvalues --   -0.02946  -0.02038  -0.01933  -0.01022   0.00051
 Alpha virt. eigenvalues --    0.01135   0.01672   0.02188   0.02556   0.02839

 Mulliken charges:
               1
     1  Mg   0.690298
     2  C    0.035113
     3  C   -0.009884
     4  C   -0.039261
     5  C   -0.062576
     6  N   -0.245278
     7  C   -0.042686
     8  C    0.018055
     9  C    0.036496
    10  C   -0.065921
    11  C    0.122208
    12  C    0.101439
    13  C    0.153389
    14  C    0.054793
    15  O   -0.157659
    16  O   -0.275257
    17  N   -0.248807
    18  C    0.148734
    19  C   -0.137252
    20  C    0.044250
    21  C    0.038921
    22  C    0.168626
    23  C   -0.068947
    24  O   -0.124499
    25  C    0.087337
    26  N   -0.200049
    27  C    0.009052
    28  C    0.038299
    29  C    0.028060
    30  C    0.017450
    31  C    0.149850
    32  C    0.072059
    33  C    0.047814
    34  N   -0.275439
    35  C    0.107255
    36  C   -0.174583
    37  C    0.046482
    38  C    0.063293
    39  C    0.169526
    40  C   -0.043332
    41  O   -0.096237
    42  C    0.029446
    43  C    0.146134
    44  O   -0.199562
    45  O   -0.284564
    46  C    0.225082
    47  C    0.336401
    48  C   -0.154628
    49  C   -0.118736
    50  C    0.146417
    51  C    0.183813
    52  C    0.036915
    53  C    0.086925
    54  C   -0.101456
    55  C    0.100210
    56  C    0.140277
    57  C    0.033066
    58  C    0.119941
    59  C   -0.095481
    60  C    0.082721
    61  C    0.157582
    62  C    0.081913
    63  C    0.033545
    64  C   -0.085779
    65  C    0.117417
    66  C    0.091809
    67  H   -0.072219
    68  H   -0.047722
    69  H   -0.055531
    70  H    0.004737
    71  H   -0.023925
    72  H   -0.003315
    73  H   -0.007639
    74  H   -0.000704
    75  H   -0.019050
    76  H   -0.011533
    77  H   -0.018862
    78  H   -0.004910
    79  H    0.002355
    80  H    0.008677
    81  H   -0.005097
    82  H    0.000024
    83  H    0.012739
    84  H   -0.016491
    85  H   -0.024436
    86  H   -0.033837
    87  H   -0.008019
    88  H   -0.010983
    89  H   -0.001468
    90  H   -0.016755
    91  H   -0.021638
    92  H   -0.010739
    93  H    0.014105
    94  H   -0.004473
    95  H    0.013280
    96  H    0.016488
    97  H   -0.011202
    98  H    0.005720
    99  H   -0.003427
   100  H    0.002050
   101  H    0.010863
   102  H    0.006082
   103  H    0.015209
   104  H   -0.040808
   105  H   -0.001435
   106  H   -0.015833
   107  H   -0.028195
   108  H   -0.037647
   109  H   -0.019036
   110  H   -0.019224
   111  H   -0.012703
   112  H   -0.018309
   113  H   -0.028318
   114  H   -0.032712
   115  H   -0.018394
   116  H   -0.020154
   117  H   -0.011327
   118  H   -0.047696
   119  H   -0.039622
   120  H   -0.038785
   121  H   -0.036643
   122  H   -0.040086
   123  H   -0.041561
   124  H   -0.042321
   125  H   -0.031251
   126  H   -0.021466
   127  H   -0.022451
   128  H   -0.028990
   129  H   -0.048141
   130  H   -0.022646
   131  H   -0.013072
   132  H   -0.031792
   133  H   -0.035803
   134  H   -0.030921
   135  H   -0.012453
   136  H   -0.020374
   137  H   -0.006961
   138  H   -0.008960
   139  H   -0.019606
   140  H   -0.023199
 Sum of Mulliken charges =  -0.00000

 Dipole moment (field-independent basis, Debye):
    X=             -4.4584    Y=              2.0863    Z=              1.2274  Tot=              5.0731
 Quadrupole moment (field-independent basis, Debye-Ang):
   XX=           -384.7030   YY=           -439.7726   ZZ=           -406.5837
   XY=             26.9885   XZ=             17.1011   YZ=              2.1244

 Normal termination of Gaussian 16 at Wed Apr 27 17:16:21 2022.
