 Gaussian 16, Revision A.03,
 Gaussian 16:  ES64L-G16RevA.03 25-Dec-2016

 -----------------------------------
 #p cam-b3lyp/Def2SVP td=(nstates=5)
 -----------------------------------

 --------------------------------------------------------
 step_1251_chromophore_18 TDDFT with cam-b3lyp functional
 --------------------------------------------------------
 Symbolic Z-matrix:
 Charge =  0 Multiplicity = 1

                         Standard orientation:
 ---------------------------------------------------------------------
 Center     Atomic      Atomic             Coordinates (Angstroms)
 Number     Number       Type             X           Y           Z
 ---------------------------------------------------------------------
      1         12           0        5.474586    1.067544    0.284107
      2          6           0        4.623658   -2.394417    0.278825
      3          6           0        2.062347    1.817659   -0.158808
      4          6           0        6.210028    4.363865   -0.226303
      5          6           0        8.842976    0.271540    0.443223
      6          7           0        3.524614   -0.131441    0.304661
      7          6           0        3.449968   -1.517924    0.237247
      8          6           0        2.010427   -1.932518    0.085943
      9          6           0        1.205056   -0.595009   -0.101177
     10          6           0        2.284344    0.514646    0.017787
     11          6           0        0.307169   -0.391561   -1.360047
     12          6           0        1.599187   -2.738913    1.333686
     13          6           0        0.492007   -3.773831    1.196654
     14          6           0       -0.188751   -3.886883   -0.153332
     15          8           0        0.216655   -4.580296   -1.044572
     16          8           0       -1.293655   -3.075373   -0.144883
     17          7           0        4.272169    2.872005   -0.096468
     18          6           0        2.901534    2.946767   -0.200602
     19          6           0        2.501675    4.342328   -0.385805
     20          6           0        3.687906    5.115741   -0.532813
     21          6           0        4.780027    4.134000   -0.308086
     22          6           0        1.008743    4.619051   -0.500288
     23          6           0        3.901249    6.598771   -0.747652
     24          8           0        4.967004    7.134956   -0.784055
     25          6           0        2.654214    7.515185   -1.003685
     26          7           0        7.210688    2.212829    0.052163
     27          6           0        7.330340    3.477800   -0.152769
     28          6           0        8.770752    3.978198   -0.078705
     29          6           0        9.535151    2.705420    0.416616
     30          6           0        8.456043    1.623757    0.291788
     31          6           0        9.347611    4.585052   -1.314293
     32          6           0       10.224925    2.800865    1.839196
     33          6           0        9.560525    2.038783    3.037273
     34          7           0        6.543048   -0.674830    0.332842
     35          6           0        7.920786   -0.867110    0.377586
     36          6           0        8.236832   -2.246050    0.379854
     37          6           0        6.982927   -2.873581    0.392053
     38          6           0        5.973669   -1.876351    0.348841
     39          6           0        9.637123   -2.853180    0.335500
     40          6           0        6.354363   -4.213878    0.340469
     41          8           0        6.860052   -5.291009    0.478735
     42          6           0        4.805730   -3.925767    0.254580
     43          6           0        4.310926   -4.570709   -1.050263
     44          8           0        4.433442   -4.128798   -2.209493
     45          8           0        3.579505   -5.763292   -0.724298
     46          6           0        3.078905   -6.291187   -1.977755
     47          6           0       -2.301506   -3.451519   -1.104010
     48          6           0       -3.523698   -2.693531   -0.794855
     49          6           0       -4.676072   -2.696199   -1.455356
     50          6           0       -4.884663   -3.480722   -2.650313
     51          6           0       -5.731966   -1.637971   -1.182950
     52          6           0       -6.638645   -2.245955   -0.122674
     53          6           0       -6.685013   -1.413211    1.259460
     54          6           0       -8.178842   -1.412628    1.869801
     55          6           0       -8.137292   -1.426014    3.419501
     56          6           0       -8.946168   -0.169971    1.390391
     57          6           0      -10.218822   -0.526574    0.658249
     58          6           0      -11.489294   -0.636095    1.553380
     59          6           0      -12.426943    0.537636    1.284348
     60          6           0      -13.011425    1.087565    2.617921
     61          6           0      -13.492177    0.318638    0.229156
     62          6           0      -13.637320    1.406886   -0.876851
     63          6           0      -15.164005    1.678814   -1.240673
     64          6           0      -15.729157    3.032304   -0.640955
     65          6           0      -17.310741    2.967818   -0.727345
     66          6           0      -15.187855    4.251147   -1.425625
     67          1           0        1.002359    1.862049   -0.418970
     68          1           0        6.411198    5.426465   -0.384539
     69          1           0        9.909899    0.075387    0.570400
     70          1           0        1.900388   -2.597447   -0.771152
     71          1           0        0.570391   -0.437063    0.770910
     72          1           0       -0.696017   -0.099889   -1.049311
     73          1           0        0.208930   -1.312338   -1.935065
     74          1           0        0.783549    0.289588   -2.066461
     75          1           0        1.126467   -2.078165    2.059451
     76          1           0        2.478880   -3.272955    1.692051
     77          1           0       -0.386315   -3.569588    1.808879
     78          1           0        0.913399   -4.715507    1.548813
     79          1           0        0.351610    3.821590   -0.153213
     80          1           0        0.901995    4.747468   -1.576795
     81          1           0        0.723457    5.550261   -0.011581
     82          1           0        1.972935    7.332712   -0.172274
     83          1           0        2.155259    7.426859   -1.968160
     84          1           0        2.907769    8.574917   -0.982175
     85          1           0        8.729931    4.685923    0.748506
     86          1           0       10.297551    2.457716   -0.323405
     87          1           0        8.947240    4.125735   -2.217744
     88          1           0       10.426816    4.437354   -1.258797
     89          1           0        9.171646    5.653270   -1.440954
     90          1           0       10.344919    3.843154    2.134646
     91          1           0       11.212216    2.342796    1.791261
     92          1           0       10.193397    1.208310    3.350562
     93          1           0        8.608928    1.547460    2.834185
     94          1           0        9.435956    2.803921    3.802591
     95          1           0        9.695353   -3.721620   -0.320631
     96          1           0        9.755185   -3.087535    1.393350
     97          1           0       10.418508   -2.202323   -0.054260
     98          1           0        4.350014   -4.440611    1.100126
     99          1           0        2.846262   -7.353758   -1.911233
    100          1           0        3.713311   -6.300097   -2.864023
    101          1           0        2.229445   -5.658767   -2.238030
    102          1           0       -2.460262   -4.529738   -1.080229
    103          1           0       -2.118009   -3.144267   -2.133556
    104          1           0       -3.422535   -1.963406    0.007234
    105          1           0       -5.207236   -2.940987   -3.541000
    106          1           0       -5.619981   -4.273025   -2.513938
    107          1           0       -4.034234   -4.071151   -2.989264
    108          1           0       -6.451890   -1.501908   -1.990176
    109          1           0       -5.362501   -0.667787   -0.853293
    110          1           0       -6.125477   -3.164183    0.165875
    111          1           0       -7.636817   -2.557877   -0.427994
    112          1           0       -6.397869   -0.361938    1.272832
    113          1           0       -6.063166   -1.946777    1.978744
    114          1           0       -8.789971   -2.283619    1.630171
    115          1           0       -7.148385   -1.029611    3.650502
    116          1           0       -8.237771   -2.464461    3.731919
    117          1           0       -8.953034   -0.880176    3.893164
    118          1           0       -8.319246    0.414356    0.716362
    119          1           0       -9.226519    0.534522    2.173832
    120          1           0      -10.173475   -1.475781    0.123826
    121          1           0      -10.426569    0.228369   -0.099806
    122          1           0      -11.125310   -0.658243    2.579785
    123          1           0      -12.009172   -1.564914    1.319674
    124          1           0      -11.757389    1.352419    1.008741
    125          1           0      -14.057803    1.391943    2.600416
    126          1           0      -12.542555    1.998170    2.992290
    127          1           0      -13.003040    0.349664    3.420147
    128          1           0      -14.374634    0.076759    0.821476
    129          1           0      -13.227700   -0.607304   -0.280747
    130          1           0      -13.305638    1.062087   -1.856723
    131          1           0      -13.176324    2.330916   -0.528168
    132          1           0      -15.724171    0.827770   -0.853259
    133          1           0      -15.330344    1.626489   -2.316522
    134          1           0      -15.177961    3.153132    0.292529
    135          1           0      -17.704779    3.958112   -0.954719
    136          1           0      -17.720506    2.683298    0.241577
    137          1           0      -17.693775    2.172557   -1.366465
    138          1           0      -14.820866    5.095034   -0.841705
    139          1           0      -15.922724    4.593888   -2.154125
    140          1           0      -14.348470    3.796598   -1.951522
 ---------------------------------------------------------------------

 SCF Done:  E(RCAM-B3LYP) =  -3007.14288084     A.U. after   18 cycles

 Excitation energies and oscillator strengths:

 Excited State   1:      Singlet-A      1.6674 eV  743.60 nm  f=0.4086  <S**2>=0.000
     245 -> 248        0.16995
     246 -> 247        0.68627
     245 <- 248        0.10748
 This state for optimization and/or second-order correction.
 Total Energy, E(TD-HF/TD-DFT) =  -3007.08160650
 Copying the excited state density for this state as the 1-particle RhoCI density.

 Excited State   2:      Singlet-A      2.1810 eV  568.47 nm  f=0.1342  <S**2>=0.000
     245 -> 247        0.64829
     246 -> 248       -0.26420

 Excited State   3:      Singlet-A      3.3757 eV  367.29 nm  f=0.0076  <S**2>=0.000
     240 -> 247       -0.12004
     242 -> 247       -0.26271
     244 -> 247        0.62871

 Excited State   4:      Singlet-A      3.4965 eV  354.60 nm  f=0.1296  <S**2>=0.000
     240 -> 247        0.17632
     242 -> 247        0.45846
     244 -> 247        0.27895
     245 -> 247        0.10364
     246 -> 248        0.39045

 Excited State   5:      Singlet-A      3.5903 eV  345.33 nm  f=0.0015  <S**2>=0.000
     241 -> 247        0.60525
     241 -> 249       -0.24796
     241 -> 250        0.20315

 The electronic state is 1-A.
 Alpha  occ. eigenvalues --  -46.89035 -19.26322 -19.24285 -19.21103 -19.20145
 Alpha  occ. eigenvalues --  -19.19507 -19.19022 -14.42259 -14.41814 -14.39768
 Alpha  occ. eigenvalues --  -14.39119 -10.39863 -10.39516 -10.35699 -10.34807
 Alpha  occ. eigenvalues --  -10.32587 -10.31899 -10.30864 -10.30735 -10.30695
 Alpha  occ. eigenvalues --  -10.30630 -10.30204 -10.29391 -10.29342 -10.28924
 Alpha  occ. eigenvalues --  -10.28901 -10.28791 -10.28748 -10.28107 -10.27893
 Alpha  occ. eigenvalues --  -10.27832 -10.27719 -10.27362 -10.27323 -10.27287
 Alpha  occ. eigenvalues --  -10.27191 -10.27136 -10.26772 -10.26725 -10.26652
 Alpha  occ. eigenvalues --  -10.26446 -10.26335 -10.26220 -10.26129 -10.26099
 Alpha  occ. eigenvalues --  -10.26069 -10.26008 -10.25998 -10.25889 -10.25729
 Alpha  occ. eigenvalues --  -10.25669 -10.25564 -10.25554 -10.25547 -10.25177
 Alpha  occ. eigenvalues --  -10.25106 -10.24944 -10.24855 -10.24825 -10.24528
 Alpha  occ. eigenvalues --  -10.24490 -10.24451 -10.24373 -10.24314 -10.24171
 Alpha  occ. eigenvalues --  -10.24125  -3.17419  -1.92343  -1.91837  -1.91745
 Alpha  occ. eigenvalues --   -1.18156  -1.13999  -1.12127  -1.10931  -1.10335
 Alpha  occ. eigenvalues --   -1.06258  -1.04989  -1.03449  -1.02510  -1.00969
 Alpha  occ. eigenvalues --   -0.92123  -0.91312  -0.90289  -0.89827  -0.88906
 Alpha  occ. eigenvalues --   -0.88563  -0.88291  -0.87286  -0.87246  -0.86889
 Alpha  occ. eigenvalues --   -0.86095  -0.85836  -0.84596  -0.83299  -0.82947
 Alpha  occ. eigenvalues --   -0.82453  -0.81498  -0.81074  -0.80240  -0.80002
 Alpha  occ. eigenvalues --   -0.79309  -0.78287  -0.77887  -0.76777  -0.75899
 Alpha  occ. eigenvalues --   -0.75422  -0.75251  -0.75025  -0.74521  -0.74245
 Alpha  occ. eigenvalues --   -0.73755  -0.72730  -0.71426  -0.70471  -0.69528
 Alpha  occ. eigenvalues --   -0.68425  -0.68029  -0.67080  -0.66810  -0.65821
 Alpha  occ. eigenvalues --   -0.65597  -0.65210  -0.64733  -0.64455  -0.64198
 Alpha  occ. eigenvalues --   -0.63563  -0.63106  -0.62612  -0.61096  -0.60942
 Alpha  occ. eigenvalues --   -0.59847  -0.59153  -0.59148  -0.58337  -0.57399
 Alpha  occ. eigenvalues --   -0.57288  -0.57179  -0.56578  -0.56192  -0.55699
 Alpha  occ. eigenvalues --   -0.55208  -0.54714  -0.54648  -0.54425  -0.53922
 Alpha  occ. eigenvalues --   -0.53753  -0.53614  -0.53353  -0.53126  -0.52930
 Alpha  occ. eigenvalues --   -0.52689  -0.52427  -0.52296  -0.52177  -0.51994
 Alpha  occ. eigenvalues --   -0.51674  -0.51220  -0.51006  -0.50938  -0.50522
 Alpha  occ. eigenvalues --   -0.50364  -0.50255  -0.50071  -0.49910  -0.49846
 Alpha  occ. eigenvalues --   -0.49551  -0.49272  -0.49094  -0.48984  -0.48718
 Alpha  occ. eigenvalues --   -0.48497  -0.48200  -0.48144  -0.48078  -0.48065
 Alpha  occ. eigenvalues --   -0.47680  -0.47335  -0.47016  -0.46841  -0.46430
 Alpha  occ. eigenvalues --   -0.46330  -0.46082  -0.45914  -0.45776  -0.45722
 Alpha  occ. eigenvalues --   -0.45509  -0.45404  -0.44949  -0.44755  -0.44648
 Alpha  occ. eigenvalues --   -0.44557  -0.44383  -0.44279  -0.43997  -0.43782
 Alpha  occ. eigenvalues --   -0.43707  -0.43626  -0.43557  -0.43429  -0.43319
 Alpha  occ. eigenvalues --   -0.43229  -0.43081  -0.42875  -0.42556  -0.42207
 Alpha  occ. eigenvalues --   -0.42180  -0.42025  -0.41528  -0.41096  -0.40986
 Alpha  occ. eigenvalues --   -0.40983  -0.40844  -0.40772  -0.40326  -0.40303
 Alpha  occ. eigenvalues --   -0.39864  -0.39473  -0.39141  -0.38969  -0.38654
 Alpha  occ. eigenvalues --   -0.38575  -0.38375  -0.38128  -0.37884  -0.37688
 Alpha  occ. eigenvalues --   -0.37257  -0.36583  -0.36547  -0.36449  -0.36135
 Alpha  occ. eigenvalues --   -0.35658  -0.35387  -0.35119  -0.34390  -0.34280
 Alpha  occ. eigenvalues --   -0.34204  -0.34045  -0.32911  -0.31265  -0.30938
 Alpha  occ. eigenvalues --   -0.30510  -0.30189  -0.29840  -0.29673  -0.23888
 Alpha  occ. eigenvalues --   -0.21000
 Alpha virt. eigenvalues --   -0.08907  -0.01270   0.00831   0.02697   0.03163
 Alpha virt. eigenvalues --    0.03931   0.04860   0.05433   0.06024   0.06357
 Alpha virt. eigenvalues --    0.07982   0.08395   0.08629   0.08948   0.09135

 Mulliken charges:
               1
     1  Mg   0.820830
     2  C    0.005683
     3  C   -0.042644
     4  C   -0.052726
     5  C   -0.062553
     6  N   -0.317244
     7  C    0.006728
     8  C   -0.039985
     9  C   -0.015909
    10  C   -0.030897
    11  C    0.059711
    12  C    0.054479
    13  C    0.089395
    14  C    0.125534
    15  O   -0.196394
    16  O   -0.338097
    17  N   -0.330887
    18  C    0.163597
    19  C   -0.143107
    20  C   -0.024944
    21  C    0.063980
    22  C    0.114123
    23  C    0.007475
    24  O   -0.164632
    25  C    0.016249
    26  N   -0.273684
    27  C    0.036008
    28  C   -0.023770
    29  C   -0.025224
    30  C    0.024780
    31  C    0.089357
    32  C    0.017337
    33  C   -0.011015
    34  N   -0.366558
    35  C    0.105600
    36  C   -0.174363
    37  C   -0.032358
    38  C    0.098895
    39  C    0.121264
    40  C    0.054149
    41  O   -0.136010
    42  C   -0.040173
    43  C    0.233671
    44  O   -0.235564
    45  O   -0.346597
    46  C    0.180139
    47  C    0.300257
    48  C   -0.161198
    49  C   -0.153674
    50  C    0.078778
    51  C    0.116632
    52  C   -0.008359
    53  C    0.034822
    54  C   -0.156284
    55  C    0.045417
    56  C    0.084316
    57  C   -0.020583
    58  C    0.067804
    59  C   -0.151730
    60  C    0.025784
    61  C    0.099548
    62  C    0.025260
    63  C   -0.015035
    64  C   -0.142518
    65  C    0.053986
    66  C    0.033924
    67  H   -0.037123
    68  H   -0.007306
    69  H   -0.019163
    70  H    0.035898
    71  H    0.011389
    72  H    0.020120
    73  H    0.016425
    74  H    0.025896
    75  H    0.011241
    76  H    0.017388
    77  H    0.015173
    78  H    0.028330
    79  H    0.030820
    80  H    0.036083
    81  H    0.020934
    82  H    0.023964
    83  H    0.040738
    84  H    0.018716
    85  H    0.011481
    86  H    0.003013
    87  H    0.017738
    88  H    0.013794
    89  H    0.023551
    90  H    0.010652
    91  H    0.006429
    92  H    0.012724
    93  H    0.035705
    94  H    0.018738
    95  H    0.038664
    96  H    0.041093
    97  H    0.012417
    98  H    0.047542
    99  H    0.020515
   100  H    0.027221
   101  H    0.033778
   102  H    0.033947
   103  H    0.039887
   104  H   -0.006681
   105  H    0.024601
   106  H    0.010697
   107  H   -0.001752
   108  H   -0.003920
   109  H    0.011844
   110  H    0.011005
   111  H    0.012323
   112  H    0.006832
   113  H    0.000517
   114  H   -0.002250
   115  H    0.004934
   116  H    0.004532
   117  H    0.010800
   118  H   -0.017442
   119  H   -0.010876
   120  H   -0.010905
   121  H   -0.007959
   122  H   -0.013018
   123  H   -0.011343
   124  H   -0.010238
   125  H   -0.006713
   126  H    0.003182
   127  H    0.002094
   128  H   -0.000418
   129  H   -0.017436
   130  H    0.007029
   131  H    0.011485
   132  H   -0.003538
   133  H   -0.006950
   134  H   -0.002024
   135  H    0.011687
   136  H    0.004292
   137  H    0.016823
   138  H    0.015511
   139  H    0.004628
   140  H   -0.000559
 Sum of Mulliken charges =  -0.00000

 Dipole moment (field-independent basis, Debye):
    X=             -5.0696    Y=              3.0042    Z=              1.1700  Tot=              6.0079
 Quadrupole moment (field-independent basis, Debye-Ang):
   XX=           -385.8550   YY=           -434.8915   ZZ=           -406.4499
   XY=             30.5301   XZ=             16.9998   YZ=              1.4960

 Normal termination of Gaussian 16 at Wed Apr 27 16:13:57 2022.
