 Gaussian 16, Revision A.03,
 Gaussian 16:  ES64L-G16RevA.03 25-Dec-2016

 ---------------------------------
 #p PBE1PBE/Def2SVP td=(nstates=5)
 ---------------------------------

 ------------------------------------------------------
 step_1251_chromophore_18 TDDFT with PBE1PBE functional
 ------------------------------------------------------
 Symbolic Z-matrix:
 Charge =  0 Multiplicity = 1

                         Standard orientation:
 ---------------------------------------------------------------------
 Center     Atomic      Atomic             Coordinates (Angstroms)
 Number     Number       Type             X           Y           Z
 ---------------------------------------------------------------------
      1         12           0        5.474586    1.067544    0.284107
      2          6           0        4.623658   -2.394417    0.278825
      3          6           0        2.062347    1.817659   -0.158808
      4          6           0        6.210028    4.363865   -0.226303
      5          6           0        8.842976    0.271540    0.443223
      6          7           0        3.524614   -0.131441    0.304661
      7          6           0        3.449968   -1.517924    0.237247
      8          6           0        2.010427   -1.932518    0.085943
      9          6           0        1.205056   -0.595009   -0.101177
     10          6           0        2.284344    0.514646    0.017787
     11          6           0        0.307169   -0.391561   -1.360047
     12          6           0        1.599187   -2.738913    1.333686
     13          6           0        0.492007   -3.773831    1.196654
     14          6           0       -0.188751   -3.886883   -0.153332
     15          8           0        0.216655   -4.580296   -1.044572
     16          8           0       -1.293655   -3.075373   -0.144883
     17          7           0        4.272169    2.872005   -0.096468
     18          6           0        2.901534    2.946767   -0.200602
     19          6           0        2.501675    4.342328   -0.385805
     20          6           0        3.687906    5.115741   -0.532813
     21          6           0        4.780027    4.134000   -0.308086
     22          6           0        1.008743    4.619051   -0.500288
     23          6           0        3.901249    6.598771   -0.747652
     24          8           0        4.967004    7.134956   -0.784055
     25          6           0        2.654214    7.515185   -1.003685
     26          7           0        7.210688    2.212829    0.052163
     27          6           0        7.330340    3.477800   -0.152769
     28          6           0        8.770752    3.978198   -0.078705
     29          6           0        9.535151    2.705420    0.416616
     30          6           0        8.456043    1.623757    0.291788
     31          6           0        9.347611    4.585052   -1.314293
     32          6           0       10.224925    2.800865    1.839196
     33          6           0        9.560525    2.038783    3.037273
     34          7           0        6.543048   -0.674830    0.332842
     35          6           0        7.920786   -0.867110    0.377586
     36          6           0        8.236832   -2.246050    0.379854
     37          6           0        6.982927   -2.873581    0.392053
     38          6           0        5.973669   -1.876351    0.348841
     39          6           0        9.637123   -2.853180    0.335500
     40          6           0        6.354363   -4.213878    0.340469
     41          8           0        6.860052   -5.291009    0.478735
     42          6           0        4.805730   -3.925767    0.254580
     43          6           0        4.310926   -4.570709   -1.050263
     44          8           0        4.433442   -4.128798   -2.209493
     45          8           0        3.579505   -5.763292   -0.724298
     46          6           0        3.078905   -6.291187   -1.977755
     47          6           0       -2.301506   -3.451519   -1.104010
     48          6           0       -3.523698   -2.693531   -0.794855
     49          6           0       -4.676072   -2.696199   -1.455356
     50          6           0       -4.884663   -3.480722   -2.650313
     51          6           0       -5.731966   -1.637971   -1.182950
     52          6           0       -6.638645   -2.245955   -0.122674
     53          6           0       -6.685013   -1.413211    1.259460
     54          6           0       -8.178842   -1.412628    1.869801
     55          6           0       -8.137292   -1.426014    3.419501
     56          6           0       -8.946168   -0.169971    1.390391
     57          6           0      -10.218822   -0.526574    0.658249
     58          6           0      -11.489294   -0.636095    1.553380
     59          6           0      -12.426943    0.537636    1.284348
     60          6           0      -13.011425    1.087565    2.617921
     61          6           0      -13.492177    0.318638    0.229156
     62          6           0      -13.637320    1.406886   -0.876851
     63          6           0      -15.164005    1.678814   -1.240673
     64          6           0      -15.729157    3.032304   -0.640955
     65          6           0      -17.310741    2.967818   -0.727345
     66          6           0      -15.187855    4.251147   -1.425625
     67          1           0        1.002359    1.862049   -0.418970
     68          1           0        6.411198    5.426465   -0.384539
     69          1           0        9.909899    0.075387    0.570400
     70          1           0        1.900388   -2.597447   -0.771152
     71          1           0        0.570391   -0.437063    0.770910
     72          1           0       -0.696017   -0.099889   -1.049311
     73          1           0        0.208930   -1.312338   -1.935065
     74          1           0        0.783549    0.289588   -2.066461
     75          1           0        1.126467   -2.078165    2.059451
     76          1           0        2.478880   -3.272955    1.692051
     77          1           0       -0.386315   -3.569588    1.808879
     78          1           0        0.913399   -4.715507    1.548813
     79          1           0        0.351610    3.821590   -0.153213
     80          1           0        0.901995    4.747468   -1.576795
     81          1           0        0.723457    5.550261   -0.011581
     82          1           0        1.972935    7.332712   -0.172274
     83          1           0        2.155259    7.426859   -1.968160
     84          1           0        2.907769    8.574917   -0.982175
     85          1           0        8.729931    4.685923    0.748506
     86          1           0       10.297551    2.457716   -0.323405
     87          1           0        8.947240    4.125735   -2.217744
     88          1           0       10.426816    4.437354   -1.258797
     89          1           0        9.171646    5.653270   -1.440954
     90          1           0       10.344919    3.843154    2.134646
     91          1           0       11.212216    2.342796    1.791261
     92          1           0       10.193397    1.208310    3.350562
     93          1           0        8.608928    1.547460    2.834185
     94          1           0        9.435956    2.803921    3.802591
     95          1           0        9.695353   -3.721620   -0.320631
     96          1           0        9.755185   -3.087535    1.393350
     97          1           0       10.418508   -2.202323   -0.054260
     98          1           0        4.350014   -4.440611    1.100126
     99          1           0        2.846262   -7.353758   -1.911233
    100          1           0        3.713311   -6.300097   -2.864023
    101          1           0        2.229445   -5.658767   -2.238030
    102          1           0       -2.460262   -4.529738   -1.080229
    103          1           0       -2.118009   -3.144267   -2.133556
    104          1           0       -3.422535   -1.963406    0.007234
    105          1           0       -5.207236   -2.940987   -3.541000
    106          1           0       -5.619981   -4.273025   -2.513938
    107          1           0       -4.034234   -4.071151   -2.989264
    108          1           0       -6.451890   -1.501908   -1.990176
    109          1           0       -5.362501   -0.667787   -0.853293
    110          1           0       -6.125477   -3.164183    0.165875
    111          1           0       -7.636817   -2.557877   -0.427994
    112          1           0       -6.397869   -0.361938    1.272832
    113          1           0       -6.063166   -1.946777    1.978744
    114          1           0       -8.789971   -2.283619    1.630171
    115          1           0       -7.148385   -1.029611    3.650502
    116          1           0       -8.237771   -2.464461    3.731919
    117          1           0       -8.953034   -0.880176    3.893164
    118          1           0       -8.319246    0.414356    0.716362
    119          1           0       -9.226519    0.534522    2.173832
    120          1           0      -10.173475   -1.475781    0.123826
    121          1           0      -10.426569    0.228369   -0.099806
    122          1           0      -11.125310   -0.658243    2.579785
    123          1           0      -12.009172   -1.564914    1.319674
    124          1           0      -11.757389    1.352419    1.008741
    125          1           0      -14.057803    1.391943    2.600416
    126          1           0      -12.542555    1.998170    2.992290
    127          1           0      -13.003040    0.349664    3.420147
    128          1           0      -14.374634    0.076759    0.821476
    129          1           0      -13.227700   -0.607304   -0.280747
    130          1           0      -13.305638    1.062087   -1.856723
    131          1           0      -13.176324    2.330916   -0.528168
    132          1           0      -15.724171    0.827770   -0.853259
    133          1           0      -15.330344    1.626489   -2.316522
    134          1           0      -15.177961    3.153132    0.292529
    135          1           0      -17.704779    3.958112   -0.954719
    136          1           0      -17.720506    2.683298    0.241577
    137          1           0      -17.693775    2.172557   -1.366465
    138          1           0      -14.820866    5.095034   -0.841705
    139          1           0      -15.922724    4.593888   -2.154125
    140          1           0      -14.348470    3.796598   -1.951522
 ---------------------------------------------------------------------

 SCF Done:  E(RPBE1PBE) =  -3005.33176888     A.U. after   15 cycles

 Excitation energies and oscillator strengths:

 Excited State   1:      Singlet-A      1.8287 eV  677.97 nm  f=0.3956  <S**2>=0.000
     245 -> 248        0.16547
     246 -> 247        0.69462
     246 <- 247       -0.11829
 This state for optimization and/or second-order correction.
 Total Energy, E(TD-HF/TD-DFT) =  -3005.26456374
 Copying the excited state density for this state as the 1-particle RhoCI density.

 Excited State   2:      Singlet-A      2.1987 eV  563.89 nm  f=0.1246  <S**2>=0.000
     245 -> 247        0.65759
     246 -> 248       -0.24602

 Excited State   3:      Singlet-A      3.0236 eV  410.06 nm  f=0.0001  <S**2>=0.000
     242 -> 247        0.57684
     242 -> 249       -0.12100
     243 -> 247       -0.37468

 Excited State   4:      Singlet-A      3.0622 eV  404.89 nm  f=0.0010  <S**2>=0.000
     242 -> 247        0.37290
     243 -> 247        0.59064

 Excited State   5:      Singlet-A      3.1060 eV  399.18 nm  f=0.0006  <S**2>=0.000
     240 -> 247        0.67379
     240 -> 249        0.13440

 The electronic state is 1-A.
 Alpha  occ. eigenvalues --  -46.92429 -19.26993 -19.25040 -19.21338 -19.20455
 Alpha  occ. eigenvalues --  -19.19533 -19.19394 -14.41676 -14.41464 -14.39316
 Alpha  occ. eigenvalues --  -14.38880 -10.36918 -10.36648 -10.32671 -10.32110
 Alpha  occ. eigenvalues --  -10.29969 -10.29742 -10.28613 -10.28424 -10.28298
 Alpha  occ. eigenvalues --  -10.28258 -10.27694 -10.27318 -10.26870 -10.26810
 Alpha  occ. eigenvalues --  -10.26655 -10.26591 -10.26242 -10.25904 -10.25666
 Alpha  occ. eigenvalues --  -10.25427 -10.25401 -10.25190 -10.25165 -10.24880
 Alpha  occ. eigenvalues --  -10.24856 -10.24663 -10.24414 -10.24327 -10.24240
 Alpha  occ. eigenvalues --  -10.24007 -10.23949 -10.23901 -10.23768 -10.23617
 Alpha  occ. eigenvalues --  -10.23559 -10.23464 -10.23441 -10.23373 -10.23253
 Alpha  occ. eigenvalues --  -10.23151 -10.23110 -10.23086 -10.22967 -10.22872
 Alpha  occ. eigenvalues --  -10.22565 -10.22534 -10.22460 -10.22404 -10.22219
 Alpha  occ. eigenvalues --  -10.22089 -10.22002 -10.21859 -10.21781 -10.21548
 Alpha  occ. eigenvalues --  -10.21530  -3.14400  -1.87265  -1.86735  -1.86649
 Alpha  occ. eigenvalues --   -1.12966  -1.08815  -1.06723  -1.05851  -1.05204
 Alpha  occ. eigenvalues --   -1.01154  -0.99585  -0.98295  -0.97030  -0.95558
 Alpha  occ. eigenvalues --   -0.86292  -0.85732  -0.84383  -0.84076  -0.83193
 Alpha  occ. eigenvalues --   -0.82663  -0.82593  -0.81544  -0.81344  -0.81103
 Alpha  occ. eigenvalues --   -0.80499  -0.80117  -0.78811  -0.77513  -0.77226
 Alpha  occ. eigenvalues --   -0.76698  -0.75734  -0.75239  -0.74368  -0.74186
 Alpha  occ. eigenvalues --   -0.73684  -0.72445  -0.72255  -0.71095  -0.70094
 Alpha  occ. eigenvalues --   -0.69594  -0.69493  -0.69149  -0.68889  -0.68430
 Alpha  occ. eigenvalues --   -0.68058  -0.67215  -0.65825  -0.64815  -0.63878
 Alpha  occ. eigenvalues --   -0.62829  -0.62254  -0.61562  -0.61045  -0.60271
 Alpha  occ. eigenvalues --   -0.59931  -0.59626  -0.59195  -0.58951  -0.58317
 Alpha  occ. eigenvalues --   -0.58156  -0.57250  -0.56794  -0.55730  -0.55382
 Alpha  occ. eigenvalues --   -0.54299  -0.53797  -0.53705  -0.52964  -0.52017
 Alpha  occ. eigenvalues --   -0.51744  -0.51645  -0.51150  -0.50730  -0.50253
 Alpha  occ. eigenvalues --   -0.49726  -0.49284  -0.49147  -0.48925  -0.48488
 Alpha  occ. eigenvalues --   -0.48264  -0.48170  -0.47814  -0.47607  -0.47527
 Alpha  occ. eigenvalues --   -0.47261  -0.46874  -0.46766  -0.46558  -0.46474
 Alpha  occ. eigenvalues --   -0.46197  -0.45874  -0.45626  -0.45444  -0.45114
 Alpha  occ. eigenvalues --   -0.45018  -0.44819  -0.44618  -0.44461  -0.44327
 Alpha  occ. eigenvalues --   -0.44170  -0.43859  -0.43700  -0.43610  -0.43436
 Alpha  occ. eigenvalues --   -0.43156  -0.42826  -0.42753  -0.42645  -0.42525
 Alpha  occ. eigenvalues --   -0.42308  -0.42081  -0.41635  -0.41483  -0.41209
 Alpha  occ. eigenvalues --   -0.41030  -0.40733  -0.40620  -0.40549  -0.40392
 Alpha  occ. eigenvalues --   -0.40269  -0.40051  -0.39784  -0.39560  -0.39432
 Alpha  occ. eigenvalues --   -0.39137  -0.39093  -0.39031  -0.38658  -0.38561
 Alpha  occ. eigenvalues --   -0.38422  -0.38337  -0.38311  -0.38158  -0.38068
 Alpha  occ. eigenvalues --   -0.37968  -0.37806  -0.37664  -0.37436  -0.37082
 Alpha  occ. eigenvalues --   -0.37010  -0.36827  -0.36310  -0.36057  -0.35824
 Alpha  occ. eigenvalues --   -0.35688  -0.35632  -0.35580  -0.35249  -0.35104
 Alpha  occ. eigenvalues --   -0.34765  -0.34412  -0.34099  -0.33731  -0.33480
 Alpha  occ. eigenvalues --   -0.33408  -0.33222  -0.32980  -0.32697  -0.32676
 Alpha  occ. eigenvalues --   -0.32043  -0.31641  -0.31490  -0.31327  -0.31221
 Alpha  occ. eigenvalues --   -0.30561  -0.30350  -0.30016  -0.29565  -0.29210
 Alpha  occ. eigenvalues --   -0.29102  -0.28931  -0.28509  -0.26600  -0.25892
 Alpha  occ. eigenvalues --   -0.25806  -0.25596  -0.25395  -0.25125  -0.20833
 Alpha  occ. eigenvalues --   -0.18651
 Alpha virt. eigenvalues --   -0.11293  -0.04829  -0.03419  -0.01764  -0.00645
 Alpha virt. eigenvalues --    0.00081   0.00411   0.00989   0.01818   0.02869
 Alpha virt. eigenvalues --    0.03854   0.04672   0.05133   0.05542   0.05828

 Mulliken charges:
               1
     1  Mg   0.966859
     2  C    0.008569
     3  C   -0.053255
     4  C   -0.047252
     5  C   -0.049047
     6  N   -0.414829
     7  C    0.076594
     8  C   -0.121811
     9  C   -0.085563
    10  C    0.012908
    11  C   -0.003770
    12  C    0.005604
    13  C    0.020168
    14  C    0.188591
    15  O   -0.231858
    16  O   -0.370251
    17  N   -0.438889
    18  C    0.193529
    19  C   -0.174426
    20  C   -0.074277
    21  C    0.097666
    22  C    0.056503
    23  C    0.057495
    24  O   -0.203760
    25  C   -0.054280
    26  N   -0.386386
    27  C    0.084071
    28  C   -0.110249
    29  C   -0.090907
    30  C    0.049470
    31  C    0.030752
    32  C   -0.042518
    33  C   -0.084229
    34  N   -0.498038
    35  C    0.127543
    36  C   -0.194664
    37  C   -0.081293
    38  C    0.150954
    39  C    0.069200
    40  C    0.153132
    41  O   -0.181922
    42  C   -0.149232
    43  C    0.315459
    44  O   -0.266570
    45  O   -0.374779
    46  C    0.120847
    47  C    0.260294
    48  C   -0.154793
    49  C   -0.229405
    50  C    0.023174
    51  C    0.055986
    52  C   -0.063081
    53  C   -0.023471
    54  C   -0.237680
    55  C   -0.015194
    56  C    0.032525
    57  C   -0.086334
    58  C    0.013019
    59  C   -0.238990
    60  C   -0.030744
    61  C    0.046805
    62  C   -0.041646
    63  C   -0.067775
    64  C   -0.234930
    65  C   -0.009251
    66  C   -0.025733
    67  H   -0.003041
    68  H    0.025119
    69  H    0.011208
    70  H    0.076118
    71  H    0.048435
    72  H    0.047129
    73  H    0.045461
    74  H    0.053994
    75  H    0.043153
    76  H    0.053264
    77  H    0.047503
    78  H    0.060152
    79  H    0.055570
    80  H    0.064601
    81  H    0.048248
    82  H    0.050529
    83  H    0.065806
    84  H    0.045814
    85  H    0.049469
    86  H    0.040541
    87  H    0.045649
    88  H    0.041524
    89  H    0.050933
    90  H    0.042504
    91  H    0.038718
    92  H    0.040058
    93  H    0.066119
    94  H    0.046964
    95  H    0.065838
    96  H    0.069760
    97  H    0.039019
    98  H    0.083534
    99  H    0.043801
   100  H    0.050361
   101  H    0.060843
   102  H    0.060044
   103  H    0.065342
   104  H    0.023407
   105  H    0.051138
   106  H    0.039088
   107  H    0.024739
   108  H    0.029461
   109  H    0.043012
   110  H    0.046898
   111  H    0.042660
   112  H    0.036852
   113  H    0.033632
   114  H    0.034552
   115  H    0.033024
   116  H    0.032953
   117  H    0.037247
   118  H    0.015939
   119  H    0.021698
   120  H    0.021803
   121  H    0.025405
   122  H    0.022114
   123  H    0.021481
   124  H    0.028946
   125  H    0.020650
   126  H    0.030403
   127  H    0.029172
   128  H    0.030773
   129  H    0.016643
   130  H    0.039634
   131  H    0.042643
   132  H    0.029647
   133  H    0.025200
   134  H    0.036184
   135  H    0.038743
   136  H    0.032948
   137  H    0.042961
   138  H    0.042741
   139  H    0.032279
   140  H    0.028606
 Sum of Mulliken charges =  -0.00000

 Dipole moment (field-independent basis, Debye):
    X=             -4.8760    Y=              2.6000    Z=              1.2197  Tot=              5.6589
 Quadrupole moment (field-independent basis, Debye-Ang):
   XX=           -378.4233   YY=           -433.0003   ZZ=           -403.8947
   XY=             29.4532   XZ=             17.6567   YZ=              1.8534

 Normal termination of Gaussian 16 at Wed Apr 27 16:31:37 2022.
