 Gaussian 16, Revision A.03,
 Gaussian 16:  ES64L-G16RevA.03 25-Dec-2016

 --------------------------------
 #p wB97XD/Def2SVP td=(nstates=5)
 --------------------------------

 -----------------------------------------------------
 step_1251_chromophore_18 TDDFT with wB97XD functional
 -----------------------------------------------------
 Symbolic Z-matrix:
 Charge =  0 Multiplicity = 1

                         Standard orientation:
 ---------------------------------------------------------------------
 Center     Atomic      Atomic             Coordinates (Angstroms)
 Number     Number       Type             X           Y           Z
 ---------------------------------------------------------------------
      1         12           0        5.474586    1.067544    0.284107
      2          6           0        4.623658   -2.394417    0.278825
      3          6           0        2.062347    1.817659   -0.158808
      4          6           0        6.210028    4.363865   -0.226303
      5          6           0        8.842976    0.271540    0.443223
      6          7           0        3.524614   -0.131441    0.304661
      7          6           0        3.449968   -1.517924    0.237247
      8          6           0        2.010427   -1.932518    0.085943
      9          6           0        1.205056   -0.595009   -0.101177
     10          6           0        2.284344    0.514646    0.017787
     11          6           0        0.307169   -0.391561   -1.360047
     12          6           0        1.599187   -2.738913    1.333686
     13          6           0        0.492007   -3.773831    1.196654
     14          6           0       -0.188751   -3.886883   -0.153332
     15          8           0        0.216655   -4.580296   -1.044572
     16          8           0       -1.293655   -3.075373   -0.144883
     17          7           0        4.272169    2.872005   -0.096468
     18          6           0        2.901534    2.946767   -0.200602
     19          6           0        2.501675    4.342328   -0.385805
     20          6           0        3.687906    5.115741   -0.532813
     21          6           0        4.780027    4.134000   -0.308086
     22          6           0        1.008743    4.619051   -0.500288
     23          6           0        3.901249    6.598771   -0.747652
     24          8           0        4.967004    7.134956   -0.784055
     25          6           0        2.654214    7.515185   -1.003685
     26          7           0        7.210688    2.212829    0.052163
     27          6           0        7.330340    3.477800   -0.152769
     28          6           0        8.770752    3.978198   -0.078705
     29          6           0        9.535151    2.705420    0.416616
     30          6           0        8.456043    1.623757    0.291788
     31          6           0        9.347611    4.585052   -1.314293
     32          6           0       10.224925    2.800865    1.839196
     33          6           0        9.560525    2.038783    3.037273
     34          7           0        6.543048   -0.674830    0.332842
     35          6           0        7.920786   -0.867110    0.377586
     36          6           0        8.236832   -2.246050    0.379854
     37          6           0        6.982927   -2.873581    0.392053
     38          6           0        5.973669   -1.876351    0.348841
     39          6           0        9.637123   -2.853180    0.335500
     40          6           0        6.354363   -4.213878    0.340469
     41          8           0        6.860052   -5.291009    0.478735
     42          6           0        4.805730   -3.925767    0.254580
     43          6           0        4.310926   -4.570709   -1.050263
     44          8           0        4.433442   -4.128798   -2.209493
     45          8           0        3.579505   -5.763292   -0.724298
     46          6           0        3.078905   -6.291187   -1.977755
     47          6           0       -2.301506   -3.451519   -1.104010
     48          6           0       -3.523698   -2.693531   -0.794855
     49          6           0       -4.676072   -2.696199   -1.455356
     50          6           0       -4.884663   -3.480722   -2.650313
     51          6           0       -5.731966   -1.637971   -1.182950
     52          6           0       -6.638645   -2.245955   -0.122674
     53          6           0       -6.685013   -1.413211    1.259460
     54          6           0       -8.178842   -1.412628    1.869801
     55          6           0       -8.137292   -1.426014    3.419501
     56          6           0       -8.946168   -0.169971    1.390391
     57          6           0      -10.218822   -0.526574    0.658249
     58          6           0      -11.489294   -0.636095    1.553380
     59          6           0      -12.426943    0.537636    1.284348
     60          6           0      -13.011425    1.087565    2.617921
     61          6           0      -13.492177    0.318638    0.229156
     62          6           0      -13.637320    1.406886   -0.876851
     63          6           0      -15.164005    1.678814   -1.240673
     64          6           0      -15.729157    3.032304   -0.640955
     65          6           0      -17.310741    2.967818   -0.727345
     66          6           0      -15.187855    4.251147   -1.425625
     67          1           0        1.002359    1.862049   -0.418970
     68          1           0        6.411198    5.426465   -0.384539
     69          1           0        9.909899    0.075387    0.570400
     70          1           0        1.900388   -2.597447   -0.771152
     71          1           0        0.570391   -0.437063    0.770910
     72          1           0       -0.696017   -0.099889   -1.049311
     73          1           0        0.208930   -1.312338   -1.935065
     74          1           0        0.783549    0.289588   -2.066461
     75          1           0        1.126467   -2.078165    2.059451
     76          1           0        2.478880   -3.272955    1.692051
     77          1           0       -0.386315   -3.569588    1.808879
     78          1           0        0.913399   -4.715507    1.548813
     79          1           0        0.351610    3.821590   -0.153213
     80          1           0        0.901995    4.747468   -1.576795
     81          1           0        0.723457    5.550261   -0.011581
     82          1           0        1.972935    7.332712   -0.172274
     83          1           0        2.155259    7.426859   -1.968160
     84          1           0        2.907769    8.574917   -0.982175
     85          1           0        8.729931    4.685923    0.748506
     86          1           0       10.297551    2.457716   -0.323405
     87          1           0        8.947240    4.125735   -2.217744
     88          1           0       10.426816    4.437354   -1.258797
     89          1           0        9.171646    5.653270   -1.440954
     90          1           0       10.344919    3.843154    2.134646
     91          1           0       11.212216    2.342796    1.791261
     92          1           0       10.193397    1.208310    3.350562
     93          1           0        8.608928    1.547460    2.834185
     94          1           0        9.435956    2.803921    3.802591
     95          1           0        9.695353   -3.721620   -0.320631
     96          1           0        9.755185   -3.087535    1.393350
     97          1           0       10.418508   -2.202323   -0.054260
     98          1           0        4.350014   -4.440611    1.100126
     99          1           0        2.846262   -7.353758   -1.911233
    100          1           0        3.713311   -6.300097   -2.864023
    101          1           0        2.229445   -5.658767   -2.238030
    102          1           0       -2.460262   -4.529738   -1.080229
    103          1           0       -2.118009   -3.144267   -2.133556
    104          1           0       -3.422535   -1.963406    0.007234
    105          1           0       -5.207236   -2.940987   -3.541000
    106          1           0       -5.619981   -4.273025   -2.513938
    107          1           0       -4.034234   -4.071151   -2.989264
    108          1           0       -6.451890   -1.501908   -1.990176
    109          1           0       -5.362501   -0.667787   -0.853293
    110          1           0       -6.125477   -3.164183    0.165875
    111          1           0       -7.636817   -2.557877   -0.427994
    112          1           0       -6.397869   -0.361938    1.272832
    113          1           0       -6.063166   -1.946777    1.978744
    114          1           0       -8.789971   -2.283619    1.630171
    115          1           0       -7.148385   -1.029611    3.650502
    116          1           0       -8.237771   -2.464461    3.731919
    117          1           0       -8.953034   -0.880176    3.893164
    118          1           0       -8.319246    0.414356    0.716362
    119          1           0       -9.226519    0.534522    2.173832
    120          1           0      -10.173475   -1.475781    0.123826
    121          1           0      -10.426569    0.228369   -0.099806
    122          1           0      -11.125310   -0.658243    2.579785
    123          1           0      -12.009172   -1.564914    1.319674
    124          1           0      -11.757389    1.352419    1.008741
    125          1           0      -14.057803    1.391943    2.600416
    126          1           0      -12.542555    1.998170    2.992290
    127          1           0      -13.003040    0.349664    3.420147
    128          1           0      -14.374634    0.076759    0.821476
    129          1           0      -13.227700   -0.607304   -0.280747
    130          1           0      -13.305638    1.062087   -1.856723
    131          1           0      -13.176324    2.330916   -0.528168
    132          1           0      -15.724171    0.827770   -0.853259
    133          1           0      -15.330344    1.626489   -2.316522
    134          1           0      -15.177961    3.153132    0.292529
    135          1           0      -17.704779    3.958112   -0.954719
    136          1           0      -17.720506    2.683298    0.241577
    137          1           0      -17.693775    2.172557   -1.366465
    138          1           0      -14.820866    5.095034   -0.841705
    139          1           0      -15.922724    4.593888   -2.154125
    140          1           0      -14.348470    3.796598   -1.951522
 ---------------------------------------------------------------------

 SCF Done:  E(RwB97XD) =  -3007.84117756     A.U. after   19 cycles

 Excitation energies and oscillator strengths:

 Excited State   1:      Singlet-A      1.6090 eV  770.54 nm  f=0.4072  <S**2>=0.000
     245 -> 248        0.17510
     246 -> 247        0.68400
     245 <- 248        0.11661
 This state for optimization and/or second-order correction.
 Total Energy, E(TD-HF/TD-DFT) =  -3007.78204618
 Copying the excited state density for this state as the 1-particle RhoCI density.

 Excited State   2:      Singlet-A      2.1257 eV  583.25 nm  f=0.1307  <S**2>=0.000
     245 -> 247        0.64612
     246 -> 248       -0.26727

 Excited State   3:      Singlet-A      3.3990 eV  364.76 nm  f=0.0132  <S**2>=0.000
     241 -> 247        0.10376
     242 -> 247       -0.32696
     243 -> 247        0.10631
     244 -> 247        0.56881
     246 -> 248       -0.10786

 Excited State   4:      Singlet-A      3.5162 eV  352.61 nm  f=0.1826  <S**2>=0.000
     239 -> 247       -0.11763
     240 -> 247        0.11785
     241 -> 247       -0.11407
     242 -> 247        0.35854
     244 -> 247        0.33405
     245 -> 247        0.12339
     246 -> 248        0.42936

 Excited State   5:      Singlet-A      3.6455 eV  340.10 nm  f=0.0013  <S**2>=0.000
     241 -> 247        0.55569
     241 -> 249       -0.25706
     241 -> 250        0.21379
     242 -> 247        0.18615

 The electronic state is 1-A.
 Alpha  occ. eigenvalues --  -46.95358 -19.31521 -19.29515 -19.25984 -19.25073
 Alpha  occ. eigenvalues --  -19.24558 -19.24020 -14.46866 -14.46410 -14.44417
 Alpha  occ. eigenvalues --  -14.43685 -10.43651 -10.43384 -10.39709 -10.38784
 Alpha  occ. eigenvalues --  -10.36458 -10.35914 -10.34895 -10.34863 -10.34702
 Alpha  occ. eigenvalues --  -10.34698 -10.34315 -10.33615 -10.33316 -10.32938
 Alpha  occ. eigenvalues --  -10.32916 -10.32718 -10.32663 -10.32156 -10.32071
 Alpha  occ. eigenvalues --  -10.31860 -10.31786 -10.31391 -10.31347 -10.31337
 Alpha  occ. eigenvalues --  -10.31169 -10.31140 -10.30745 -10.30593 -10.30591
 Alpha  occ. eigenvalues --  -10.30589 -10.30361 -10.30175 -10.30104 -10.29977
 Alpha  occ. eigenvalues --  -10.29911 -10.29895 -10.29827 -10.29822 -10.29722
 Alpha  occ. eigenvalues --  -10.29606 -10.29487 -10.29469 -10.29403 -10.29156
 Alpha  occ. eigenvalues --  -10.28926 -10.28881 -10.28791 -10.28649 -10.28489
 Alpha  occ. eigenvalues --  -10.28456 -10.28367 -10.28225 -10.28205 -10.27980
 Alpha  occ. eigenvalues --  -10.27955  -3.21205  -1.94816  -1.94289  -1.94196
 Alpha  occ. eigenvalues --   -1.20303  -1.16141  -1.14387  -1.13135  -1.12498
 Alpha  occ. eigenvalues --   -1.08449  -1.07004  -1.05449  -1.04593  -1.02954
 Alpha  occ. eigenvalues --   -0.93944  -0.93242  -0.92045  -0.91663  -0.90784
 Alpha  occ. eigenvalues --   -0.90332  -0.90234  -0.89232  -0.89015  -0.88850
 Alpha  occ. eigenvalues --   -0.88005  -0.87710  -0.86471  -0.85171  -0.84811
 Alpha  occ. eigenvalues --   -0.84350  -0.83382  -0.83003  -0.82066  -0.81906
 Alpha  occ. eigenvalues --   -0.81269  -0.80256  -0.79783  -0.78682  -0.77749
 Alpha  occ. eigenvalues --   -0.77206  -0.77196  -0.76834  -0.76442  -0.76088
 Alpha  occ. eigenvalues --   -0.75657  -0.74706  -0.73387  -0.72401  -0.71442
 Alpha  occ. eigenvalues --   -0.70426  -0.69897  -0.69104  -0.68685  -0.67789
 Alpha  occ. eigenvalues --   -0.67485  -0.67149  -0.66673  -0.66394  -0.66003
 Alpha  occ. eigenvalues --   -0.65576  -0.64919  -0.64441  -0.63079  -0.62859
 Alpha  occ. eigenvalues --   -0.61892  -0.61149  -0.61081  -0.60305  -0.59392
 Alpha  occ. eigenvalues --   -0.59197  -0.59070  -0.58530  -0.58102  -0.57709
 Alpha  occ. eigenvalues --   -0.57135  -0.56660  -0.56562  -0.56322  -0.55833
 Alpha  occ. eigenvalues --   -0.55644  -0.55546  -0.55226  -0.55031  -0.54832
 Alpha  occ. eigenvalues --   -0.54569  -0.54375  -0.54221  -0.54101  -0.53879
 Alpha  occ. eigenvalues --   -0.53554  -0.53132  -0.52922  -0.52802  -0.52431
 Alpha  occ. eigenvalues --   -0.52292  -0.52130  -0.52005  -0.51902  -0.51747
 Alpha  occ. eigenvalues --   -0.51460  -0.51154  -0.50992  -0.50885  -0.50665
 Alpha  occ. eigenvalues --   -0.50408  -0.50112  -0.50050  -0.50018  -0.49937
 Alpha  occ. eigenvalues --   -0.49560  -0.49239  -0.48979  -0.48773  -0.48360
 Alpha  occ. eigenvalues --   -0.48207  -0.47972  -0.47839  -0.47718  -0.47626
 Alpha  occ. eigenvalues --   -0.47420  -0.47266  -0.46877  -0.46708  -0.46583
 Alpha  occ. eigenvalues --   -0.46399  -0.46300  -0.46195  -0.45870  -0.45734
 Alpha  occ. eigenvalues --   -0.45651  -0.45520  -0.45450  -0.45291  -0.45181
 Alpha  occ. eigenvalues --   -0.45168  -0.45042  -0.44789  -0.44468  -0.44129
 Alpha  occ. eigenvalues --   -0.44085  -0.43911  -0.43401  -0.43065  -0.42855
 Alpha  occ. eigenvalues --   -0.42819  -0.42741  -0.42632  -0.42202  -0.42176
 Alpha  occ. eigenvalues --   -0.41766  -0.41354  -0.41032  -0.40809  -0.40489
 Alpha  occ. eigenvalues --   -0.40467  -0.40270  -0.40013  -0.39752  -0.39627
 Alpha  occ. eigenvalues --   -0.39097  -0.38652  -0.38442  -0.38293  -0.38123
 Alpha  occ. eigenvalues --   -0.37507  -0.37363  -0.36963  -0.36376  -0.36124
 Alpha  occ. eigenvalues --   -0.36108  -0.35960  -0.35152  -0.33310  -0.33132
 Alpha  occ. eigenvalues --   -0.32460  -0.32415  -0.31856  -0.31820  -0.25808
 Alpha  occ. eigenvalues --   -0.22799
 Alpha virt. eigenvalues --   -0.07276   0.00640   0.02866   0.04799   0.06201
 Alpha virt. eigenvalues --    0.06267   0.07039   0.07732   0.08571   0.09076
 Alpha virt. eigenvalues --    0.10479   0.11478   0.11959   0.12330   0.12564

 Mulliken charges:
               1
     1  Mg   0.956612
     2  C   -0.006606
     3  C   -0.065061
     4  C   -0.060026
     5  C   -0.067106
     6  N   -0.386647
     7  C    0.053210
     8  C   -0.090383
     9  C   -0.064032
    10  C    0.004093
    11  C    0.008724
    12  C    0.017554
    13  C    0.034676
    14  C    0.173106
    15  O   -0.226903
    16  O   -0.366217
    17  N   -0.408112
    18  C    0.185353
    19  C   -0.162722
    20  C   -0.068181
    21  C    0.088788
    22  C    0.069224
    23  C    0.054525
    24  O   -0.197507
    25  C   -0.041995
    26  N   -0.349744
    27  C    0.063977
    28  C   -0.080054
    29  C   -0.070291
    30  C    0.041096
    31  C    0.038777
    32  C   -0.030681
    33  C   -0.064954
    34  N   -0.458579
    35  C    0.116378
    36  C   -0.188365
    37  C   -0.079517
    38  C    0.134361
    39  C    0.079690
    40  C    0.132714
    41  O   -0.174094
    42  C   -0.107910
    43  C    0.295427
    44  O   -0.262834
    45  O   -0.375831
    46  C    0.139549
    47  C    0.270590
    48  C   -0.170352
    49  C   -0.196723
    50  C    0.031691
    51  C    0.066241
    52  C   -0.046157
    53  C   -0.006520
    54  C   -0.211007
    55  C   -0.001533
    56  C    0.045240
    57  C   -0.063811
    58  C    0.028104
    59  C   -0.204695
    60  C   -0.019888
    61  C    0.058229
    62  C   -0.023942
    63  C   -0.051179
    64  C   -0.204407
    65  C    0.003137
    66  C   -0.014641
    67  H   -0.014850
    68  H    0.020079
    69  H    0.007005
    70  H    0.060034
    71  H    0.037599
    72  H    0.042711
    73  H    0.038761
    74  H    0.047578
    75  H    0.035678
    76  H    0.040457
    77  H    0.041122
    78  H    0.056431
    79  H    0.053253
    80  H    0.059779
    81  H    0.043314
    82  H    0.043009
    83  H    0.062935
    84  H    0.044833
    85  H    0.038968
    86  H    0.029860
    87  H    0.040437
    88  H    0.035533
    89  H    0.046349
    90  H    0.034841
    91  H    0.031601
    92  H    0.034698
    93  H    0.054985
    94  H    0.041715
    95  H    0.061615
    96  H    0.063841
    97  H    0.033175
    98  H    0.077593
    99  H    0.040156
   100  H    0.044848
   101  H    0.053417
   102  H    0.055442
   103  H    0.059035
   104  H    0.019842
   105  H    0.046558
   106  H    0.033615
   107  H    0.019263
   108  H    0.023240
   109  H    0.036407
   110  H    0.034007
   111  H    0.034701
   112  H    0.027391
   113  H    0.024747
   114  H    0.021248
   115  H    0.025908
   116  H    0.027664
   117  H    0.030999
   118  H    0.006827
   119  H    0.011227
   120  H    0.012180
   121  H    0.014664
   122  H    0.007694
   123  H    0.013679
   124  H    0.012306
   125  H    0.013970
   126  H    0.025425
   127  H    0.023075
   128  H    0.020934
   129  H    0.007911
   130  H    0.033210
   131  H    0.031317
   132  H    0.019048
   133  H    0.016589
   134  H    0.023390
   135  H    0.033044
   136  H    0.026783
   137  H    0.037462
   138  H    0.038534
   139  H    0.026014
   140  H    0.019431
 Sum of Mulliken charges =  -0.00000

 Dipole moment (field-independent basis, Debye):
    X=             -5.1713    Y=              3.1730    Z=              1.1690  Tot=              6.1787
 Quadrupole moment (field-independent basis, Debye-Ang):
   XX=           -381.1464   YY=           -430.4032   ZZ=           -403.5065
   XY=             31.2210   XZ=             17.4091   YZ=              1.4428

 Normal termination of Gaussian 16 at Wed Apr 27 17:03:50 2022.
