 Gaussian 16, Revision A.03,
 Gaussian 16:  ES64L-G16RevA.03 25-Dec-2016

 --------------------
 #p ZINDO=(nstates=5)
 --------------------

 ------------------------------
 step_1251_chromophore_18 ZINDO
 ------------------------------
 Symbolic Z-matrix:
 Charge =  0 Multiplicity = 1

                         Standard orientation:
 ---------------------------------------------------------------------
 Center     Atomic      Atomic             Coordinates (Angstroms)
 Number     Number       Type             X           Y           Z
 ---------------------------------------------------------------------
      1         12           0        5.474586    1.067544    0.284107
      2          6           0        4.623658   -2.394417    0.278825
      3          6           0        2.062347    1.817659   -0.158808
      4          6           0        6.210028    4.363865   -0.226303
      5          6           0        8.842976    0.271540    0.443223
      6          7           0        3.524614   -0.131441    0.304661
      7          6           0        3.449968   -1.517924    0.237247
      8          6           0        2.010427   -1.932518    0.085943
      9          6           0        1.205056   -0.595009   -0.101177
     10          6           0        2.284344    0.514646    0.017787
     11          6           0        0.307169   -0.391561   -1.360047
     12          6           0        1.599187   -2.738913    1.333686
     13          6           0        0.492007   -3.773831    1.196654
     14          6           0       -0.188751   -3.886883   -0.153332
     15          8           0        0.216655   -4.580296   -1.044572
     16          8           0       -1.293655   -3.075373   -0.144883
     17          7           0        4.272169    2.872005   -0.096468
     18          6           0        2.901534    2.946767   -0.200602
     19          6           0        2.501675    4.342328   -0.385805
     20          6           0        3.687906    5.115741   -0.532813
     21          6           0        4.780027    4.134000   -0.308086
     22          6           0        1.008743    4.619051   -0.500288
     23          6           0        3.901249    6.598771   -0.747652
     24          8           0        4.967004    7.134956   -0.784055
     25          6           0        2.654214    7.515185   -1.003685
     26          7           0        7.210688    2.212829    0.052163
     27          6           0        7.330340    3.477800   -0.152769
     28          6           0        8.770752    3.978198   -0.078705
     29          6           0        9.535151    2.705420    0.416616
     30          6           0        8.456043    1.623757    0.291788
     31          6           0        9.347611    4.585052   -1.314293
     32          6           0       10.224925    2.800865    1.839196
     33          6           0        9.560525    2.038783    3.037273
     34          7           0        6.543048   -0.674830    0.332842
     35          6           0        7.920786   -0.867110    0.377586
     36          6           0        8.236832   -2.246050    0.379854
     37          6           0        6.982927   -2.873581    0.392053
     38          6           0        5.973669   -1.876351    0.348841
     39          6           0        9.637123   -2.853180    0.335500
     40          6           0        6.354363   -4.213878    0.340469
     41          8           0        6.860052   -5.291009    0.478735
     42          6           0        4.805730   -3.925767    0.254580
     43          6           0        4.310926   -4.570709   -1.050263
     44          8           0        4.433442   -4.128798   -2.209493
     45          8           0        3.579505   -5.763292   -0.724298
     46          6           0        3.078905   -6.291187   -1.977755
     47          6           0       -2.301506   -3.451519   -1.104010
     48          6           0       -3.523698   -2.693531   -0.794855
     49          6           0       -4.676072   -2.696199   -1.455356
     50          6           0       -4.884663   -3.480722   -2.650313
     51          6           0       -5.731966   -1.637971   -1.182950
     52          6           0       -6.638645   -2.245955   -0.122674
     53          6           0       -6.685013   -1.413211    1.259460
     54          6           0       -8.178842   -1.412628    1.869801
     55          6           0       -8.137292   -1.426014    3.419501
     56          6           0       -8.946168   -0.169971    1.390391
     57          6           0      -10.218822   -0.526574    0.658249
     58          6           0      -11.489294   -0.636095    1.553380
     59          6           0      -12.426943    0.537636    1.284348
     60          6           0      -13.011425    1.087565    2.617921
     61          6           0      -13.492177    0.318638    0.229156
     62          6           0      -13.637320    1.406886   -0.876851
     63          6           0      -15.164005    1.678814   -1.240673
     64          6           0      -15.729157    3.032304   -0.640955
     65          6           0      -17.310741    2.967818   -0.727345
     66          6           0      -15.187855    4.251147   -1.425625
     67          1           0        1.002359    1.862049   -0.418970
     68          1           0        6.411198    5.426465   -0.384539
     69          1           0        9.909899    0.075387    0.570400
     70          1           0        1.900388   -2.597447   -0.771152
     71          1           0        0.570391   -0.437063    0.770910
     72          1           0       -0.696017   -0.099889   -1.049311
     73          1           0        0.208930   -1.312338   -1.935065
     74          1           0        0.783549    0.289588   -2.066461
     75          1           0        1.126467   -2.078165    2.059451
     76          1           0        2.478880   -3.272955    1.692051
     77          1           0       -0.386315   -3.569588    1.808879
     78          1           0        0.913399   -4.715507    1.548813
     79          1           0        0.351610    3.821590   -0.153213
     80          1           0        0.901995    4.747468   -1.576795
     81          1           0        0.723457    5.550261   -0.011581
     82          1           0        1.972935    7.332712   -0.172274
     83          1           0        2.155259    7.426859   -1.968160
     84          1           0        2.907769    8.574917   -0.982175
     85          1           0        8.729931    4.685923    0.748506
     86          1           0       10.297551    2.457716   -0.323405
     87          1           0        8.947240    4.125735   -2.217744
     88          1           0       10.426816    4.437354   -1.258797
     89          1           0        9.171646    5.653270   -1.440954
     90          1           0       10.344919    3.843154    2.134646
     91          1           0       11.212216    2.342796    1.791261
     92          1           0       10.193397    1.208310    3.350562
     93          1           0        8.608928    1.547460    2.834185
     94          1           0        9.435956    2.803921    3.802591
     95          1           0        9.695353   -3.721620   -0.320631
     96          1           0        9.755185   -3.087535    1.393350
     97          1           0       10.418508   -2.202323   -0.054260
     98          1           0        4.350014   -4.440611    1.100126
     99          1           0        2.846262   -7.353758   -1.911233
    100          1           0        3.713311   -6.300097   -2.864023
    101          1           0        2.229445   -5.658767   -2.238030
    102          1           0       -2.460262   -4.529738   -1.080229
    103          1           0       -2.118009   -3.144267   -2.133556
    104          1           0       -3.422535   -1.963406    0.007234
    105          1           0       -5.207236   -2.940987   -3.541000
    106          1           0       -5.619981   -4.273025   -2.513938
    107          1           0       -4.034234   -4.071151   -2.989264
    108          1           0       -6.451890   -1.501908   -1.990176
    109          1           0       -5.362501   -0.667787   -0.853293
    110          1           0       -6.125477   -3.164183    0.165875
    111          1           0       -7.636817   -2.557877   -0.427994
    112          1           0       -6.397869   -0.361938    1.272832
    113          1           0       -6.063166   -1.946777    1.978744
    114          1           0       -8.789971   -2.283619    1.630171
    115          1           0       -7.148385   -1.029611    3.650502
    116          1           0       -8.237771   -2.464461    3.731919
    117          1           0       -8.953034   -0.880176    3.893164
    118          1           0       -8.319246    0.414356    0.716362
    119          1           0       -9.226519    0.534522    2.173832
    120          1           0      -10.173475   -1.475781    0.123826
    121          1           0      -10.426569    0.228369   -0.099806
    122          1           0      -11.125310   -0.658243    2.579785
    123          1           0      -12.009172   -1.564914    1.319674
    124          1           0      -11.757389    1.352419    1.008741
    125          1           0      -14.057803    1.391943    2.600416
    126          1           0      -12.542555    1.998170    2.992290
    127          1           0      -13.003040    0.349664    3.420147
    128          1           0      -14.374634    0.076759    0.821476
    129          1           0      -13.227700   -0.607304   -0.280747
    130          1           0      -13.305638    1.062087   -1.856723
    131          1           0      -13.176324    2.330916   -0.528168
    132          1           0      -15.724171    0.827770   -0.853259
    133          1           0      -15.330344    1.626489   -2.316522
    134          1           0      -15.177961    3.153132    0.292529
    135          1           0      -17.704779    3.958112   -0.954719
    136          1           0      -17.720506    2.683298    0.241577
    137          1           0      -17.693775    2.172557   -1.366465
    138          1           0      -14.820866    5.095034   -0.841705
    139          1           0      -15.922724    4.593888   -2.154125
    140          1           0      -14.348470    3.796598   -1.951522
 ---------------------------------------------------------------------

 SCF Done:  E(RZINDO/S) =  -474.181443474     A.U. after   19 cycles

 Excitation energies and oscillator strengths:

 Excited State   1:      Singlet-A      1.2303 eV 1007.76 nm  f=0.6323  <S**2>=0.000
     175 ->178         0.18035
     176 ->177         0.66526
 This state for optimization and/or second-order correction.
 Total Energy, E(CIS/TDA) =  -474.136230786
 Copying the excited state density for this state as the 1-particle RhoCI density.

 Excited State   2:      Singlet-A      1.9073 eV  650.07 nm  f=0.0944  <S**2>=0.000
     175 ->177         0.57547
     176 ->178        -0.37972

 Excited State   3:      Singlet-A      3.0007 eV  413.19 nm  f=0.0172  <S**2>=0.000
     168 ->177         0.32749
     168 ->178        -0.12287
     168 ->179        -0.38690
     168 ->180        -0.28868
     168 ->183         0.10908
     168 ->186        -0.18450
     168 ->187        -0.12167

 Excited State   4:      Singlet-A      3.0546 eV  405.89 nm  f=1.1361  <S**2>=0.000
     171 ->177        -0.11020
     175 ->177         0.35667
     176 ->178         0.55917

 Excited State   5:      Singlet-A      3.0987 eV  400.11 nm  f=0.0057  <S**2>=0.000
     170 ->177         0.32833
     170 ->179         0.32286
     170 ->180        -0.30071
     170 ->183         0.16089
     170 ->186         0.25831
     170 ->189         0.10484
     170 ->202        -0.10708

 The electronic state is 1-A.
 Alpha  occ. eigenvalues --   -1.83110  -1.80761  -1.78395  -1.75222  -1.69553
 Alpha  occ. eigenvalues --   -1.69507  -1.66262  -1.61134  -1.60273  -1.57953
 Alpha  occ. eigenvalues --   -1.57190  -1.52631  -1.50365  -1.46930  -1.45973
 Alpha  occ. eigenvalues --   -1.44595  -1.41860  -1.39819  -1.38873  -1.38083
 Alpha  occ. eigenvalues --   -1.36538  -1.33506  -1.32469  -1.31575  -1.28510
 Alpha  occ. eigenvalues --   -1.28293  -1.23474  -1.22310  -1.20964  -1.17372
 Alpha  occ. eigenvalues --   -1.16257  -1.16057  -1.14500  -1.13975  -1.13457
 Alpha  occ. eigenvalues --   -1.12327  -1.11273  -1.09839  -1.04618  -1.02888
 Alpha  occ. eigenvalues --   -1.02459  -1.01036  -0.97906  -0.97430  -0.96992
 Alpha  occ. eigenvalues --   -0.95697  -0.94961  -0.93889  -0.93295  -0.92898
 Alpha  occ. eigenvalues --   -0.91067  -0.89618  -0.89334  -0.87843  -0.87172
 Alpha  occ. eigenvalues --   -0.86738  -0.85437  -0.83031  -0.81936  -0.80742
 Alpha  occ. eigenvalues --   -0.79869  -0.78138  -0.77154  -0.76140  -0.75424
 Alpha  occ. eigenvalues --   -0.75259  -0.74608  -0.74462  -0.74254  -0.73863
 Alpha  occ. eigenvalues --   -0.73124  -0.72380  -0.72056  -0.71749  -0.71455
 Alpha  occ. eigenvalues --   -0.70128  -0.69669  -0.69219  -0.68393  -0.68068
 Alpha  occ. eigenvalues --   -0.67940  -0.66845  -0.66461  -0.66149  -0.65633
 Alpha  occ. eigenvalues --   -0.65305  -0.64843  -0.64257  -0.64086  -0.63614
 Alpha  occ. eigenvalues --   -0.62918  -0.62510  -0.62439  -0.62167  -0.61851
 Alpha  occ. eigenvalues --   -0.61771  -0.61405  -0.61110  -0.60628  -0.60097
 Alpha  occ. eigenvalues --   -0.59590  -0.59196  -0.58997  -0.58538  -0.58092
 Alpha  occ. eigenvalues --   -0.58079  -0.57556  -0.57308  -0.56920  -0.55932
 Alpha  occ. eigenvalues --   -0.55789  -0.55570  -0.55249  -0.54534  -0.54279
 Alpha  occ. eigenvalues --   -0.54025  -0.53767  -0.53570  -0.52872  -0.52781
 Alpha  occ. eigenvalues --   -0.52203  -0.51985  -0.51858  -0.51703  -0.51488
 Alpha  occ. eigenvalues --   -0.51060  -0.50750  -0.50388  -0.50325  -0.50066
 Alpha  occ. eigenvalues --   -0.49946  -0.49761  -0.49700  -0.49268  -0.48673
 Alpha  occ. eigenvalues --   -0.48518  -0.48214  -0.48025  -0.47925  -0.47847
 Alpha  occ. eigenvalues --   -0.47480  -0.47263  -0.47167  -0.46956  -0.46317
 Alpha  occ. eigenvalues --   -0.46017  -0.45974  -0.45386  -0.45266  -0.45189
 Alpha  occ. eigenvalues --   -0.45041  -0.44778  -0.44685  -0.44606  -0.44529
 Alpha  occ. eigenvalues --   -0.43615  -0.43512  -0.43391  -0.42732  -0.42363
 Alpha  occ. eigenvalues --   -0.42293  -0.41770  -0.41287  -0.38547  -0.38254
 Alpha  occ. eigenvalues --   -0.37918  -0.37002  -0.35788  -0.34459  -0.34101
 Alpha  occ. eigenvalues --   -0.33694  -0.32054  -0.31838  -0.31497  -0.26359
 Alpha  occ. eigenvalues --   -0.21698
 Alpha virt. eigenvalues --   -0.08730  -0.01533  -0.00170   0.01355   0.02222
 Alpha virt. eigenvalues --    0.02752   0.02902   0.03156   0.04399   0.05114
 Alpha virt. eigenvalues --    0.06245   0.06388   0.06701   0.07436   0.08401

 Mulliken charges:
               1
     1  Mg   0.424141
     2  C   -0.069003
     3  C   -0.072778
     4  C   -0.078537
     5  C   -0.059403
     6  N   -0.322431
     7  C    0.134096
     8  C    0.016689
     9  C    0.002251
    10  C    0.136462
    11  C   -0.051073
    12  C   -0.018573
    13  C   -0.003702
    14  C    0.476087
    15  O   -0.509915
    16  O   -0.274998
    17  N   -0.327447
    18  C    0.127831
    19  C    0.018514
    20  C   -0.038442
    21  C    0.130243
    22  C   -0.041903
    23  C    0.333601
    24  O   -0.495241
    25  C   -0.038839
    26  N   -0.238562
    27  C    0.172750
    28  C    0.012945
    29  C   -0.005397
    30  C    0.084887
    31  C   -0.040893
    32  C   -0.031671
    33  C   -0.060489
    34  N   -0.310189
    35  C    0.060319
    36  C    0.029752
    37  C   -0.072494
    38  C    0.118039
    39  C   -0.040687
    40  C    0.331773
    41  O   -0.509567
    42  C    0.065398
    43  C    0.476351
    44  O   -0.510004
    45  O   -0.265149
    46  C    0.072964
    47  C    0.110532
    48  C   -0.092344
    49  C    0.005906
    50  C   -0.038261
    51  C   -0.021277
    52  C   -0.038001
    53  C   -0.044218
    54  C   -0.023656
    55  C   -0.064477
    56  C   -0.027467
    57  C   -0.039498
    58  C   -0.033564
    59  C   -0.006113
    60  C   -0.065934
    61  C   -0.028160
    62  C   -0.041838
    63  C   -0.046345
    64  C   -0.020720
    65  C   -0.056072
    66  C   -0.064770
    67  H    0.020473
    68  H    0.039073
    69  H    0.038595
    70  H    0.048809
    71  H    0.027084
    72  H    0.023665
    73  H    0.021869
    74  H    0.027200
    75  H    0.026846
    76  H    0.032508
    77  H    0.025975
    78  H    0.038644
    79  H    0.034167
    80  H    0.033077
    81  H    0.026917
    82  H    0.027841
    83  H    0.040264
    84  H    0.032061
    85  H    0.030850
    86  H    0.025701
    87  H    0.024703
    88  H    0.017777
    89  H    0.022411
    90  H    0.022034
    91  H    0.017783
    92  H    0.020185
    93  H    0.029145
    94  H    0.018559
    95  H    0.035715
    96  H    0.038665
    97  H    0.022937
    98  H    0.054951
    99  H    0.024177
   100  H    0.043585
   101  H    0.045694
   102  H    0.051292
   103  H    0.054944
   104  H    0.023357
   105  H    0.025756
   106  H    0.023637
   107  H    0.013257
   108  H    0.019949
   109  H    0.030124
   110  H    0.016573
   111  H    0.029373
   112  H    0.032346
   113  H    0.016297
   114  H    0.025608
   115  H    0.021865
   116  H    0.013145
   117  H    0.022686
   118  H    0.007986
   119  H    0.020186
   120  H    0.012809
   121  H    0.010989
   122  H    0.021175
   123  H    0.017399
   124  H    0.014222
   125  H    0.009568
   126  H    0.014746
   127  H    0.014390
   128  H    0.026703
   129  H    0.010393
   130  H    0.026031
   131  H    0.029850
   132  H    0.011470
   133  H    0.017761
   134  H    0.033958
   135  H    0.023152
   136  H    0.009831
   137  H    0.029365
   138  H    0.022516
   139  H    0.019026
   140  H    0.014895
 Sum of Mulliken charges =  -0.00000

 Dipole moment (field-independent basis, Debye):
    X=             -7.9428    Y=              5.3788    Z=              2.4386  Tot=              9.8978
 N-N= 4.276134493510D+03 E-N= 0.000000000000D+00  KE=-9.226656070970D+03
 Leave Link  601 at Wed Apr 27 17:16:28 2022, MaxMem=  6710886400 cpu:               0.8 elap:               0.1
 (Enter /sw/apps/gaussian-16.0/g16/l9999.exe)
 1\1\GINC-BP1-COMPUTE070\SP\RZINDO CIS\STO-3G\C55H74Mg1N4O6\OF15641\27-
 Apr-2022\0\\#p ZINDO=(nstates=5)\\step_1251_chromophore_18 ZINDO\\0,1\
 Mg,0,34.034,49.758,25.231\C,0,34.467,48.081,28.347\C,0,32.463,52.39,26
 .965\C,0,33.118,51.224,22.285\C,0,35.336,47.026,23.544\N,0,33.716,50.3
 01,27.432\C,0,33.907,49.427,28.496\C,0,33.423,50.075,29.766\C,0,32.744
 ,51.421,29.319\C,0,32.953,51.456,27.781\C,0,31.262,51.716,29.705\C,0,3
 4.628,50.267,30.708\C,0,34.379,50.293,32.209\C,0,32.939,50.204,32.675\

 Normal termination of Gaussian 16 at Wed Apr 27 17:16:28 2022.
