 Gaussian 16, Revision A.03,
 Gaussian 16:  ES64L-G16RevA.03 25-Dec-2016

 ------------------------------
 #p blyp/Def2SVP td=(nstates=5)
 ------------------------------

 -------------------------------------------------
 step_301_chromophore_7 TDDFT with blyp functional
 -------------------------------------------------
 Symbolic Z-matrix:
 Charge =  0 Multiplicity = 1

                         Standard orientation:
 ---------------------------------------------------------------------
 Center     Atomic      Atomic             Coordinates (Angstroms)
 Number     Number       Type             X           Y           Z
 ---------------------------------------------------------------------
      1         12           0        6.064668    0.688943    0.391101
      2          6           0        3.769878   -1.977267    0.047533
      3          6           0        3.671131    2.591217   -1.203669
      4          6           0        8.341726    3.079851    0.324937
      5          6           0        8.412567   -1.613389    1.509010
      6          7           0        3.927202    0.384211   -0.300104
      7          6           0        3.147641   -0.778678   -0.247778
      8          6           0        1.763264   -0.642728   -0.777761
      9          6           0        1.932615    0.688484   -1.555766
     10          6           0        3.246063    1.265808   -1.013147
     11          6           0        1.973799    0.502563   -3.089488
     12          6           0        0.713667   -0.835812    0.281842
     13          6           0       -0.436222   -1.760305   -0.144747
     14          6           0       -1.805681   -1.640355    0.516906
     15          8           0       -2.009331   -1.291405    1.632550
     16          8           0       -2.732649   -2.180385   -0.360739
     17          7           0        6.015543    2.538866   -0.328902
     18          6           0        4.932459    3.174992   -0.886471
     19          6           0        5.228657    4.579473   -1.142768
     20          6           0        6.607751    4.672028   -0.889954
     21          6           0        7.085430    3.437606   -0.245322
     22          6           0        4.259740    5.542522   -1.785704
     23          6           0        7.602939    5.825838   -1.222649
     24          8           0        8.769536    5.853642   -0.891595
     25          6           0        7.007094    7.107448   -1.737580
     26          7           0        8.099444    0.701932    0.844483
     27          6           0        8.794248    1.911462    0.890273
     28          6           0       10.155624    1.685618    1.420088
     29          6           0       10.208056    0.141690    1.854521
     30          6           0        8.788176   -0.297710    1.491232
     31          6           0       11.270656    2.084817    0.476383
     32          6           0       10.578259   -0.155637    3.318925
     33          6           0       11.665180   -1.238072    3.547209
     34          7           0        6.181326   -1.420879    0.667437
     35          6           0        7.185819   -2.185799    1.085243
     36          6           0        6.813621   -3.558124    1.030038
     37          6           0        5.444777   -3.536239    0.740084
     38          6           0        5.071623   -2.199124    0.512810
     39          6           0        7.680212   -4.739339    1.437842
     40          6           0        4.320246   -4.344389    0.545974
     41          8           0        4.204957   -5.582941    0.725567
     42          6           0        3.116299   -3.405429    0.152723
     43          6           0        2.484278   -3.961591   -1.059850
     44          8           0        2.885766   -3.857179   -2.210478
     45          8           0        1.387431   -4.724191   -0.741364
     46          6           0        0.815564   -5.578334   -1.810598
     47          6           0       -4.033381   -2.544366    0.193273
     48          6           0       -5.297205   -2.503640   -0.760514
     49          6           0       -5.632693   -1.579827   -1.721729
     50          6           0       -4.718624   -0.546082   -2.357059
     51          6           0       -7.031327   -1.542136   -2.400795
     52          6           0       -8.194560   -1.109360   -1.505007
     53          6           0       -8.882597    0.084562   -2.208929
     54          6           0      -10.113076   -0.308056   -3.179765
     55          6           0       -9.781942   -0.031762   -4.662622
     56          6           0      -11.313782    0.584342   -2.772693
     57          6           0      -12.258033   -0.197969   -1.848567
     58          6           0      -12.262644    0.368713   -0.381965
     59          6           0      -13.602256    1.082289    0.060344
     60          6           0      -13.497978    2.591041    0.051457
     61          6           0      -14.007938    0.367828    1.438137
     62          6           0      -12.939855    0.704756    2.588680
     63          6           0      -13.755209    0.884648    3.914401
     64          6           0      -14.373904    2.321238    4.173999
     65          6           0      -13.856905    2.950739    5.474187
     66          6           0      -15.927952    2.229073    4.127768
     67          1           0        2.897833    3.219459   -1.650334
     68          1           0        9.150881    3.806240    0.427463
     69          1           0        9.098227   -2.315316    1.988931
     70          1           0        1.737152   -1.516249   -1.428863
     71          1           0        1.056704    1.293044   -1.321754
     72          1           0        0.909142    0.580267   -3.309091
     73          1           0        2.356732   -0.412704   -3.541523
     74          1           0        2.520467    1.352135   -3.498308
     75          1           0        0.206942    0.113812    0.453343
     76          1           0        1.209988   -1.290647    1.138361
     77          1           0       -0.149944   -2.804304   -0.019687
     78          1           0       -0.631246   -1.715258   -1.216639
     79          1           0        4.005368    6.349009   -1.098476
     80          1           0        3.465392    4.955208   -2.246864
     81          1           0        4.760832    5.934975   -2.670460
     82          1           0        6.199558    7.476011   -1.105899
     83          1           0        6.594169    6.958337   -2.735537
     84          1           0        7.855633    7.774801   -1.889105
     85          1           0       10.156501    2.389838    2.252491
     86          1           0       10.777684   -0.551769    1.235289
     87          1           0       12.199159    1.558156    0.696947
     88          1           0       11.519176    3.107453    0.760181
     89          1           0       11.016625    1.913373   -0.569394
     90          1           0        9.645787   -0.466377    3.790742
     91          1           0       10.830480    0.792711    3.792473
     92          1           0       12.289564   -0.925028    4.384391
     93          1           0       12.257824   -1.370550    2.642288
     94          1           0       11.173041   -2.171734    3.820126
     95          1           0        8.590147   -4.935901    0.871355
     96          1           0        7.088620   -5.654139    1.401339
     97          1           0        7.943712   -4.662288    2.492418
     98          1           0        2.399733   -3.468459    0.970722
     99          1           0        0.261929   -6.482290   -1.556034
    100          1           0        1.570486   -5.973003   -2.490230
    101          1           0        0.130983   -5.108130   -2.517134
    102          1           0       -4.323319   -1.866503    0.996728
    103          1           0       -3.909252   -3.608145    0.398740
    104          1           0       -5.933485   -3.371416   -0.586205
    105          1           0       -4.525495   -0.789576   -3.401119
    106          1           0       -3.793486   -0.397468   -1.798226
    107          1           0       -5.249320    0.404335   -2.315472
    108          1           0       -7.287553   -2.511742   -2.826573
    109          1           0       -7.002968   -0.869274   -3.257986
    110          1           0       -7.789905   -0.940334   -0.507150
    111          1           0       -8.913558   -1.923190   -1.406905
    112          1           0       -8.238896    0.841322   -2.655794
    113          1           0       -9.285875    0.659769   -1.375982
    114          1           0      -10.384119   -1.351720   -3.017898
    115          1           0      -10.475518   -0.546362   -5.326953
    116          1           0       -8.783094   -0.330563   -4.982333
    117          1           0       -9.731439    1.053229   -4.745541
    118          1           0      -11.889464    0.756846   -3.681619
    119          1           0      -10.865069    1.514288   -2.423809
    120          1           0      -12.149715   -1.277970   -1.946236
    121          1           0      -13.253355   -0.178919   -2.293206
    122          1           0      -11.411610    1.040622   -0.272288
    123          1           0      -11.944173   -0.505898    0.184612
    124          1           0      -14.387933    0.870039   -0.664809
    125          1           0      -12.496954    2.967370   -0.157527
    126          1           0      -13.784855    2.942218    1.043157
    127          1           0      -14.209216    2.987971   -0.672922
    128          1           0      -14.131784   -0.713337    1.378410
    129          1           0      -14.990185    0.728795    1.745205
    130          1           0      -12.438284    1.608422    2.242039
    131          1           0      -12.303642   -0.158925    2.784484
    132          1           0      -13.069643    0.651247    4.728447
    133          1           0      -14.512955    0.105173    3.988496
    134          1           0      -14.080608    2.900108    3.298364
    135          1           0      -14.616536    3.290200    6.178636
    136          1           0      -13.296692    3.834629    5.169462
    137          1           0      -13.210842    2.256865    6.012419
    138          1           0      -16.428528    1.266357    4.031959
    139          1           0      -16.283862    2.764487    3.246742
    140          1           0      -16.290165    2.815065    4.972433
 ---------------------------------------------------------------------

 SCF Done:  E(RB-LYP) =  -3007.36245864     A.U. after   21 cycles

 Excitation energies and oscillator strengths:

 Excited State   1:      Singlet-A      1.7970 eV  689.97 nm  f=0.2761  <S**2>=0.000
     244 -> 247        0.22729
     245 -> 248       -0.16658
     246 -> 247        0.65856
     246 <- 247       -0.14720
 This state for optimization and/or second-order correction.
 Total Energy, E(TD-HF/TD-DFT) =  -3007.29642155
 Copying the excited state density for this state as the 1-particle RhoCI density.

 Excited State   2:      Singlet-A      1.8567 eV  667.78 nm  f=0.0418  <S**2>=0.000
     244 -> 247        0.66891
     246 -> 247       -0.22163

 Excited State   3:      Singlet-A      1.9985 eV  620.37 nm  f=0.0271  <S**2>=0.000
     243 -> 247        0.58542
     245 -> 247       -0.37372
     246 -> 248       -0.10377

 Excited State   4:      Singlet-A      2.0645 eV  600.56 nm  f=0.0634  <S**2>=0.000
     243 -> 247        0.39357
     245 -> 247        0.53527
     246 -> 248        0.20628

 Excited State   5:      Singlet-A      2.1377 eV  579.99 nm  f=0.0001  <S**2>=0.000
     242 -> 247        0.70654

 The electronic state is 1-A.
 Alpha  occ. eigenvalues --  -46.26293 -18.82591 -18.81538 -18.77162 -18.76507
 Alpha  occ. eigenvalues --  -18.76236 -18.75163 -14.03329 -14.02469 -14.01400
 Alpha  occ. eigenvalues --  -14.00337 -10.04013 -10.03856 -10.00137  -9.99145
 Alpha  occ. eigenvalues --   -9.98132  -9.97565  -9.96641  -9.96402  -9.96226
 Alpha  occ. eigenvalues --   -9.96110  -9.96041  -9.95758  -9.94675  -9.94470
 Alpha  occ. eigenvalues --   -9.94370  -9.94198  -9.94147  -9.93776  -9.93746
 Alpha  occ. eigenvalues --   -9.93689  -9.93645  -9.93395  -9.93287  -9.93142
 Alpha  occ. eigenvalues --   -9.93133  -9.93121  -9.93035  -9.92862  -9.92528
 Alpha  occ. eigenvalues --   -9.92498  -9.92392  -9.92377  -9.92212  -9.92111
 Alpha  occ. eigenvalues --   -9.92099  -9.92077  -9.92053  -9.92015  -9.91887
 Alpha  occ. eigenvalues --   -9.91876  -9.91855  -9.91456  -9.91362  -9.91362
 Alpha  occ. eigenvalues --   -9.91345  -9.91223  -9.90992  -9.90991  -9.90867
 Alpha  occ. eigenvalues --   -9.90856  -9.90711  -9.90706  -9.90684  -9.90526
 Alpha  occ. eigenvalues --   -9.90448  -2.91082  -1.71508  -1.70957  -1.70799
 Alpha  occ. eigenvalues --   -0.98025  -0.97554  -0.92536  -0.91062  -0.89413
 Alpha  occ. eigenvalues --   -0.89178  -0.87083  -0.86379  -0.85272  -0.84496
 Alpha  occ. eigenvalues --   -0.75762  -0.73791  -0.73026  -0.72448  -0.72068
 Alpha  occ. eigenvalues --   -0.71939  -0.71306  -0.71182  -0.70649  -0.70122
 Alpha  occ. eigenvalues --   -0.69420  -0.69337  -0.67876  -0.67815  -0.67251
 Alpha  occ. eigenvalues --   -0.66188  -0.65711  -0.65413  -0.65048  -0.64629
 Alpha  occ. eigenvalues --   -0.64166  -0.62741  -0.62620  -0.62102  -0.61023
 Alpha  occ. eigenvalues --   -0.60189  -0.59973  -0.59820  -0.59463  -0.58586
 Alpha  occ. eigenvalues --   -0.58056  -0.57791  -0.56872  -0.55585  -0.54833
 Alpha  occ. eigenvalues --   -0.54490  -0.53263  -0.52702  -0.52606  -0.51861
 Alpha  occ. eigenvalues --   -0.51363  -0.51314  -0.50917  -0.50817  -0.49734
 Alpha  occ. eigenvalues --   -0.49375  -0.49293  -0.48902  -0.47985  -0.46558
 Alpha  occ. eigenvalues --   -0.46196  -0.45574  -0.45230  -0.45000  -0.44475
 Alpha  occ. eigenvalues --   -0.44012  -0.43759  -0.43409  -0.43271  -0.42321
 Alpha  occ. eigenvalues --   -0.42036  -0.41480  -0.41321  -0.41089  -0.40916
 Alpha  occ. eigenvalues --   -0.40591  -0.40445  -0.40323  -0.40073  -0.39877
 Alpha  occ. eigenvalues --   -0.39667  -0.39626  -0.39496  -0.39183  -0.39022
 Alpha  occ. eigenvalues --   -0.38965  -0.38498  -0.38326  -0.38191  -0.38096
 Alpha  occ. eigenvalues --   -0.38035  -0.37791  -0.37700  -0.37571  -0.37247
 Alpha  occ. eigenvalues --   -0.37158  -0.36960  -0.36650  -0.36558  -0.36445
 Alpha  occ. eigenvalues --   -0.36368  -0.36217  -0.35988  -0.35707  -0.35616
 Alpha  occ. eigenvalues --   -0.35345  -0.35265  -0.35172  -0.34909  -0.34791
 Alpha  occ. eigenvalues --   -0.34492  -0.34404  -0.34111  -0.33971  -0.33926
 Alpha  occ. eigenvalues --   -0.33907  -0.33571  -0.33481  -0.33255  -0.32924
 Alpha  occ. eigenvalues --   -0.32828  -0.32620  -0.32572  -0.32416  -0.32274
 Alpha  occ. eigenvalues --   -0.32022  -0.31971  -0.31722  -0.31561  -0.31481
 Alpha  occ. eigenvalues --   -0.31350  -0.31304  -0.30999  -0.30933  -0.30670
 Alpha  occ. eigenvalues --   -0.30569  -0.30501  -0.30229  -0.29768  -0.29579
 Alpha  occ. eigenvalues --   -0.29542  -0.29376  -0.29320  -0.29239  -0.28825
 Alpha  occ. eigenvalues --   -0.28803  -0.28479  -0.28398  -0.27943  -0.27747
 Alpha  occ. eigenvalues --   -0.27503  -0.27360  -0.26673  -0.26658  -0.26518
 Alpha  occ. eigenvalues --   -0.26131  -0.26083  -0.25759  -0.25278  -0.25210
 Alpha  occ. eigenvalues --   -0.24911  -0.24858  -0.23895  -0.23836  -0.23025
 Alpha  occ. eigenvalues --   -0.22566  -0.22449  -0.22351  -0.21712  -0.21205
 Alpha  occ. eigenvalues --   -0.20381  -0.19595  -0.19065  -0.18440  -0.17471
 Alpha  occ. eigenvalues --   -0.15931
 Alpha virt. eigenvalues --   -0.11740  -0.06801  -0.06325  -0.04744  -0.02825
 Alpha virt. eigenvalues --   -0.02585  -0.01991  -0.01852  -0.01343   0.00024
 Alpha virt. eigenvalues --    0.01330   0.01623   0.02579   0.02792   0.03092

 Mulliken charges:
               1
     1  Mg   0.700290
     2  C    0.035553
     3  C   -0.095961
     4  C   -0.032446
     5  C   -0.087008
     6  N   -0.183003
     7  C   -0.124271
     8  C    0.016991
     9  C    0.018678
    10  C    0.021136
    11  C    0.127911
    12  C    0.224853
    13  C    0.025725
    14  C    0.078284
    15  O   -0.144043
    16  O   -0.287942
    17  N   -0.343888
    18  C    0.171979
    19  C   -0.174597
    20  C    0.015933
    21  C    0.153891
    22  C    0.201504
    23  C   -0.062866
    24  O   -0.145299
    25  C    0.124369
    26  N   -0.277735
    27  C   -0.009269
    28  C    0.062117
    29  C    0.011539
    30  C    0.049767
    31  C    0.140969
    32  C    0.090700
    33  C    0.069655
    34  N   -0.225677
    35  C    0.098521
    36  C   -0.168332
    37  C    0.160993
    38  C    0.051204
    39  C    0.158729
    40  C   -0.088449
    41  O   -0.170059
    42  C    0.056206
    43  C    0.106603
    44  O   -0.185298
    45  O   -0.266073
    46  C    0.227258
    47  C    0.285582
    48  C   -0.117424
    49  C   -0.134161
    50  C    0.150906
    51  C    0.107569
    52  C    0.100662
    53  C    0.075004
    54  C   -0.071910
    55  C    0.111126
    56  C    0.108747
    57  C    0.073812
    58  C    0.101662
    59  C   -0.060695
    60  C    0.137743
    61  C    0.063610
    62  C    0.060263
    63  C    0.081038
    64  C   -0.088332
    65  C    0.116007
    66  C    0.100980
    67  H   -0.063013
    68  H   -0.052458
    69  H   -0.070352
    70  H   -0.011594
    71  H   -0.036456
    72  H   -0.011296
    73  H    0.022363
    74  H   -0.015718
    75  H   -0.022589
    76  H   -0.011790
    77  H    0.017275
    78  H   -0.012596
    79  H    0.020778
    80  H   -0.013623
    81  H   -0.011753
    82  H    0.015277
    83  H   -0.005434
    84  H   -0.008535
    85  H   -0.024170
    86  H   -0.016109
    87  H   -0.018362
    88  H   -0.003703
    89  H    0.009355
    90  H   -0.024294
    91  H   -0.029139
    92  H   -0.006331
    93  H   -0.003191
    94  H    0.002597
    95  H   -0.002755
    96  H   -0.003172
    97  H   -0.004180
    98  H    0.005137
    99  H    0.010849
   100  H    0.009777
   101  H    0.000237
   102  H    0.027003
   103  H   -0.002599
   104  H   -0.030190
   105  H    0.011577
   106  H   -0.015926
   107  H   -0.015738
   108  H   -0.026003
   109  H   -0.034338
   110  H   -0.028614
   111  H   -0.031237
   112  H   -0.035139
   113  H   -0.048039
   114  H   -0.040911
   115  H   -0.008295
   116  H   -0.027998
   117  H   -0.017854
   118  H   -0.048303
   119  H   -0.021524
   120  H   -0.044413
   121  H   -0.050209
   122  H   -0.030508
   123  H   -0.033493
   124  H   -0.037251
   125  H   -0.014195
   126  H   -0.026885
   127  H   -0.014441
   128  H   -0.028255
   129  H   -0.036312
   130  H   -0.019694
   131  H   -0.020688
   132  H   -0.049745
   133  H   -0.033447
   134  H   -0.025250
   135  H   -0.015665
   136  H   -0.015855
   137  H   -0.012029
   138  H   -0.004660
   139  H   -0.027215
   140  H   -0.028020
 Sum of Mulliken charges =  -0.00000

 Dipole moment (field-independent basis, Debye):
    X=             -2.0501    Y=              3.1495    Z=             -0.8838  Tot=              3.8605
 Quadrupole moment (field-independent basis, Debye-Ang):
   XX=           -379.2015   YY=           -417.7730   ZZ=           -404.2903
   XY=              7.2365   XZ=             28.1088   YZ=             -0.9471

 Normal termination of Gaussian 16 at Fri Apr 29 14:20:36 2022.
