 Gaussian 16, Revision A.03,
 Gaussian 16:  ES64L-G16RevA.03 25-Dec-2016

 -----------------------------------
 #p cam-b3lyp/Def2SVP td=(nstates=5)
 -----------------------------------

 ------------------------------------------------------
 step_301_chromophore_7 TDDFT with cam-b3lyp functional
 ------------------------------------------------------
 Symbolic Z-matrix:
 Charge =  0 Multiplicity = 1

                         Standard orientation:
 ---------------------------------------------------------------------
 Center     Atomic      Atomic             Coordinates (Angstroms)
 Number     Number       Type             X           Y           Z
 ---------------------------------------------------------------------
      1         12           0        6.064668    0.688943    0.391101
      2          6           0        3.769878   -1.977267    0.047533
      3          6           0        3.671131    2.591217   -1.203669
      4          6           0        8.341726    3.079851    0.324937
      5          6           0        8.412567   -1.613389    1.509010
      6          7           0        3.927202    0.384211   -0.300104
      7          6           0        3.147641   -0.778678   -0.247778
      8          6           0        1.763264   -0.642728   -0.777761
      9          6           0        1.932615    0.688484   -1.555766
     10          6           0        3.246063    1.265808   -1.013147
     11          6           0        1.973799    0.502563   -3.089488
     12          6           0        0.713667   -0.835812    0.281842
     13          6           0       -0.436222   -1.760305   -0.144747
     14          6           0       -1.805681   -1.640355    0.516906
     15          8           0       -2.009331   -1.291405    1.632550
     16          8           0       -2.732649   -2.180385   -0.360739
     17          7           0        6.015543    2.538866   -0.328902
     18          6           0        4.932459    3.174992   -0.886471
     19          6           0        5.228657    4.579473   -1.142768
     20          6           0        6.607751    4.672028   -0.889954
     21          6           0        7.085430    3.437606   -0.245322
     22          6           0        4.259740    5.542522   -1.785704
     23          6           0        7.602939    5.825838   -1.222649
     24          8           0        8.769536    5.853642   -0.891595
     25          6           0        7.007094    7.107448   -1.737580
     26          7           0        8.099444    0.701932    0.844483
     27          6           0        8.794248    1.911462    0.890273
     28          6           0       10.155624    1.685618    1.420088
     29          6           0       10.208056    0.141690    1.854521
     30          6           0        8.788176   -0.297710    1.491232
     31          6           0       11.270656    2.084817    0.476383
     32          6           0       10.578259   -0.155637    3.318925
     33          6           0       11.665180   -1.238072    3.547209
     34          7           0        6.181326   -1.420879    0.667437
     35          6           0        7.185819   -2.185799    1.085243
     36          6           0        6.813621   -3.558124    1.030038
     37          6           0        5.444777   -3.536239    0.740084
     38          6           0        5.071623   -2.199124    0.512810
     39          6           0        7.680212   -4.739339    1.437842
     40          6           0        4.320246   -4.344389    0.545974
     41          8           0        4.204957   -5.582941    0.725567
     42          6           0        3.116299   -3.405429    0.152723
     43          6           0        2.484278   -3.961591   -1.059850
     44          8           0        2.885766   -3.857179   -2.210478
     45          8           0        1.387431   -4.724191   -0.741364
     46          6           0        0.815564   -5.578334   -1.810598
     47          6           0       -4.033381   -2.544366    0.193273
     48          6           0       -5.297205   -2.503640   -0.760514
     49          6           0       -5.632693   -1.579827   -1.721729
     50          6           0       -4.718624   -0.546082   -2.357059
     51          6           0       -7.031327   -1.542136   -2.400795
     52          6           0       -8.194560   -1.109360   -1.505007
     53          6           0       -8.882597    0.084562   -2.208929
     54          6           0      -10.113076   -0.308056   -3.179765
     55          6           0       -9.781942   -0.031762   -4.662622
     56          6           0      -11.313782    0.584342   -2.772693
     57          6           0      -12.258033   -0.197969   -1.848567
     58          6           0      -12.262644    0.368713   -0.381965
     59          6           0      -13.602256    1.082289    0.060344
     60          6           0      -13.497978    2.591041    0.051457
     61          6           0      -14.007938    0.367828    1.438137
     62          6           0      -12.939855    0.704756    2.588680
     63          6           0      -13.755209    0.884648    3.914401
     64          6           0      -14.373904    2.321238    4.173999
     65          6           0      -13.856905    2.950739    5.474187
     66          6           0      -15.927952    2.229073    4.127768
     67          1           0        2.897833    3.219459   -1.650334
     68          1           0        9.150881    3.806240    0.427463
     69          1           0        9.098227   -2.315316    1.988931
     70          1           0        1.737152   -1.516249   -1.428863
     71          1           0        1.056704    1.293044   -1.321754
     72          1           0        0.909142    0.580267   -3.309091
     73          1           0        2.356732   -0.412704   -3.541523
     74          1           0        2.520467    1.352135   -3.498308
     75          1           0        0.206942    0.113812    0.453343
     76          1           0        1.209988   -1.290647    1.138361
     77          1           0       -0.149944   -2.804304   -0.019687
     78          1           0       -0.631246   -1.715258   -1.216639
     79          1           0        4.005368    6.349009   -1.098476
     80          1           0        3.465392    4.955208   -2.246864
     81          1           0        4.760832    5.934975   -2.670460
     82          1           0        6.199558    7.476011   -1.105899
     83          1           0        6.594169    6.958337   -2.735537
     84          1           0        7.855633    7.774801   -1.889105
     85          1           0       10.156501    2.389838    2.252491
     86          1           0       10.777684   -0.551769    1.235289
     87          1           0       12.199159    1.558156    0.696947
     88          1           0       11.519176    3.107453    0.760181
     89          1           0       11.016625    1.913373   -0.569394
     90          1           0        9.645787   -0.466377    3.790742
     91          1           0       10.830480    0.792711    3.792473
     92          1           0       12.289564   -0.925028    4.384391
     93          1           0       12.257824   -1.370550    2.642288
     94          1           0       11.173041   -2.171734    3.820126
     95          1           0        8.590147   -4.935901    0.871355
     96          1           0        7.088620   -5.654139    1.401339
     97          1           0        7.943712   -4.662288    2.492418
     98          1           0        2.399733   -3.468459    0.970722
     99          1           0        0.261929   -6.482290   -1.556034
    100          1           0        1.570486   -5.973003   -2.490230
    101          1           0        0.130983   -5.108130   -2.517134
    102          1           0       -4.323319   -1.866503    0.996728
    103          1           0       -3.909252   -3.608145    0.398740
    104          1           0       -5.933485   -3.371416   -0.586205
    105          1           0       -4.525495   -0.789576   -3.401119
    106          1           0       -3.793486   -0.397468   -1.798226
    107          1           0       -5.249320    0.404335   -2.315472
    108          1           0       -7.287553   -2.511742   -2.826573
    109          1           0       -7.002968   -0.869274   -3.257986
    110          1           0       -7.789905   -0.940334   -0.507150
    111          1           0       -8.913558   -1.923190   -1.406905
    112          1           0       -8.238896    0.841322   -2.655794
    113          1           0       -9.285875    0.659769   -1.375982
    114          1           0      -10.384119   -1.351720   -3.017898
    115          1           0      -10.475518   -0.546362   -5.326953
    116          1           0       -8.783094   -0.330563   -4.982333
    117          1           0       -9.731439    1.053229   -4.745541
    118          1           0      -11.889464    0.756846   -3.681619
    119          1           0      -10.865069    1.514288   -2.423809
    120          1           0      -12.149715   -1.277970   -1.946236
    121          1           0      -13.253355   -0.178919   -2.293206
    122          1           0      -11.411610    1.040622   -0.272288
    123          1           0      -11.944173   -0.505898    0.184612
    124          1           0      -14.387933    0.870039   -0.664809
    125          1           0      -12.496954    2.967370   -0.157527
    126          1           0      -13.784855    2.942218    1.043157
    127          1           0      -14.209216    2.987971   -0.672922
    128          1           0      -14.131784   -0.713337    1.378410
    129          1           0      -14.990185    0.728795    1.745205
    130          1           0      -12.438284    1.608422    2.242039
    131          1           0      -12.303642   -0.158925    2.784484
    132          1           0      -13.069643    0.651247    4.728447
    133          1           0      -14.512955    0.105173    3.988496
    134          1           0      -14.080608    2.900108    3.298364
    135          1           0      -14.616536    3.290200    6.178636
    136          1           0      -13.296692    3.834629    5.169462
    137          1           0      -13.210842    2.256865    6.012419
    138          1           0      -16.428528    1.266357    4.031959
    139          1           0      -16.283862    2.764487    3.246742
    140          1           0      -16.290165    2.815065    4.972433
 ---------------------------------------------------------------------

 SCF Done:  E(RCAM-B3LYP) =  -3007.15870827     A.U. after   17 cycles

 Excitation energies and oscillator strengths:

 Excited State   1:      Singlet-A      1.7045 eV  727.40 nm  f=0.3899  <S**2>=0.000
     245 -> 248       -0.16574
     246 -> 247        0.68871
     245 <- 248       -0.10388
 This state for optimization and/or second-order correction.
 Total Energy, E(TD-HF/TD-DFT) =  -3007.09606950
 Copying the excited state density for this state as the 1-particle RhoCI density.

 Excited State   2:      Singlet-A      2.2611 eV  548.33 nm  f=0.1309  <S**2>=0.000
     245 -> 247        0.64516
     246 -> 248        0.27336

 Excited State   3:      Singlet-A      3.3873 eV  366.03 nm  f=0.0003  <S**2>=0.000
     241 -> 247       -0.27141
     243 -> 247        0.62594

 Excited State   4:      Singlet-A      3.4503 eV  359.34 nm  f=0.0004  <S**2>=0.000
     242 -> 247        0.55515
     242 -> 249       -0.33871
     242 -> 250        0.20096

 Excited State   5:      Singlet-A      3.5345 eV  350.78 nm  f=0.1093  <S**2>=0.000
     239 -> 247       -0.10308
     240 -> 247        0.10658
     241 -> 247        0.52014
     243 -> 247        0.18159
     245 -> 247        0.10572
     246 -> 248       -0.37410

 The electronic state is 1-A.
 Alpha  occ. eigenvalues --  -46.87792 -19.25514 -19.24387 -19.20162 -19.19786
 Alpha  occ. eigenvalues --  -19.19615 -19.17963 -14.42396 -14.41178 -14.40088
 Alpha  occ. eigenvalues --  -14.38498 -10.39461 -10.39116 -10.35637 -10.34242
 Alpha  occ. eigenvalues --  -10.32231 -10.31610 -10.31547 -10.31132 -10.31062
 Alpha  occ. eigenvalues --  -10.30742 -10.30324 -10.29793 -10.29278 -10.28658
 Alpha  occ. eigenvalues --  -10.28565 -10.28343 -10.28055 -10.28022 -10.28007
 Alpha  occ. eigenvalues --  -10.27973 -10.27645 -10.27559 -10.27557 -10.27435
 Alpha  occ. eigenvalues --  -10.27337 -10.26937 -10.26879 -10.26794 -10.26457
 Alpha  occ. eigenvalues --  -10.26449 -10.26277 -10.26185 -10.26089 -10.25873
 Alpha  occ. eigenvalues --  -10.25799 -10.25791 -10.25777 -10.25744 -10.25722
 Alpha  occ. eigenvalues --  -10.25513 -10.25255 -10.25125 -10.25097 -10.25096
 Alpha  occ. eigenvalues --  -10.25090 -10.24991 -10.24620 -10.24581 -10.24571
 Alpha  occ. eigenvalues --  -10.24543 -10.24423 -10.24345 -10.24289 -10.24130
 Alpha  occ. eigenvalues --  -10.24060  -3.16492  -1.91391  -1.90938  -1.90809
 Alpha  occ. eigenvalues --   -1.16547  -1.16069  -1.11286  -1.08941  -1.07363
 Alpha  occ. eigenvalues --   -1.07117  -1.04857  -1.03767  -1.03095  -1.02072
 Alpha  occ. eigenvalues --   -0.92759  -0.90610  -0.89883  -0.89260  -0.88847
 Alpha  occ. eigenvalues --   -0.88459  -0.87997  -0.87947  -0.87474  -0.86656
 Alpha  occ. eigenvalues --   -0.85892  -0.85556  -0.84101  -0.83885  -0.83439
 Alpha  occ. eigenvalues --   -0.82345  -0.81865  -0.81374  -0.80917  -0.80540
 Alpha  occ. eigenvalues --   -0.79986  -0.78773  -0.78198  -0.77513  -0.76350
 Alpha  occ. eigenvalues --   -0.75500  -0.75341  -0.75154  -0.74769  -0.73667
 Alpha  occ. eigenvalues --   -0.73123  -0.72812  -0.71789  -0.70402  -0.69242
 Alpha  occ. eigenvalues --   -0.69092  -0.67804  -0.67246  -0.67124  -0.65881
 Alpha  occ. eigenvalues --   -0.65681  -0.65616  -0.65086  -0.64612  -0.63779
 Alpha  occ. eigenvalues --   -0.63298  -0.63073  -0.62441  -0.61783  -0.60186
 Alpha  occ. eigenvalues --   -0.60058  -0.59071  -0.58554  -0.58465  -0.58005
 Alpha  occ. eigenvalues --   -0.57350  -0.57237  -0.56659  -0.56486  -0.55548
 Alpha  occ. eigenvalues --   -0.55314  -0.54447  -0.54175  -0.54135  -0.53704
 Alpha  occ. eigenvalues --   -0.53567  -0.53462  -0.53167  -0.53005  -0.52632
 Alpha  occ. eigenvalues --   -0.52379  -0.52213  -0.52035  -0.51916  -0.51642
 Alpha  occ. eigenvalues --   -0.51511  -0.50956  -0.50877  -0.50658  -0.50479
 Alpha  occ. eigenvalues --   -0.50441  -0.50330  -0.49998  -0.49866  -0.49655
 Alpha  occ. eigenvalues --   -0.49447  -0.49322  -0.49249  -0.48977  -0.48694
 Alpha  occ. eigenvalues --   -0.48567  -0.48441  -0.48215  -0.48076  -0.47941
 Alpha  occ. eigenvalues --   -0.47681  -0.47534  -0.47193  -0.46732  -0.46643
 Alpha  occ. eigenvalues --   -0.46528  -0.46123  -0.45936  -0.45744  -0.45630
 Alpha  occ. eigenvalues --   -0.45590  -0.45374  -0.45218  -0.45117  -0.44577
 Alpha  occ. eigenvalues --   -0.44411  -0.44383  -0.44113  -0.43954  -0.43830
 Alpha  occ. eigenvalues --   -0.43666  -0.43515  -0.43427  -0.43107  -0.43055
 Alpha  occ. eigenvalues --   -0.42879  -0.42687  -0.42562  -0.42492  -0.42229
 Alpha  occ. eigenvalues --   -0.41977  -0.41852  -0.41736  -0.41337  -0.41000
 Alpha  occ. eigenvalues --   -0.40867  -0.40672  -0.40477  -0.40362  -0.40005
 Alpha  occ. eigenvalues --   -0.39868  -0.39421  -0.39348  -0.38968  -0.38751
 Alpha  occ. eigenvalues --   -0.38436  -0.38399  -0.37683  -0.37650  -0.37309
 Alpha  occ. eigenvalues --   -0.37086  -0.36833  -0.36748  -0.36635  -0.36170
 Alpha  occ. eigenvalues --   -0.35771  -0.35448  -0.34595  -0.34330  -0.34240
 Alpha  occ. eigenvalues --   -0.33999  -0.32882  -0.32860  -0.32028  -0.31380
 Alpha  occ. eigenvalues --   -0.30778  -0.30277  -0.29305  -0.29275  -0.24302
 Alpha  occ. eigenvalues --   -0.21254
 Alpha virt. eigenvalues --   -0.08877  -0.01471   0.00236   0.02125   0.03017
 Alpha virt. eigenvalues --    0.04768   0.04862   0.05592   0.06173   0.06580
 Alpha virt. eigenvalues --    0.08037   0.08710   0.08896   0.09050   0.09294

 Mulliken charges:
               1
     1  Mg   0.833801
     2  C    0.026750
     3  C   -0.108244
     4  C   -0.058953
     5  C   -0.088934
     6  N   -0.248048
     7  C   -0.083177
     8  C   -0.035676
     9  C   -0.038364
    10  C    0.035340
    11  C    0.073513
    12  C    0.166042
    13  C   -0.038780
    14  C    0.161917
    15  O   -0.184345
    16  O   -0.353501
    17  N   -0.435796
    18  C    0.185337
    19  C   -0.173441
    20  C   -0.050931
    21  C    0.180309
    22  C    0.140135
    23  C    0.020499
    24  O   -0.182691
    25  C    0.037963
    26  N   -0.352323
    27  C    0.024545
    28  C   -0.001862
    29  C   -0.047189
    30  C    0.071213
    31  C    0.078976
    32  C    0.035038
    33  C    0.007953
    34  N   -0.312412
    35  C    0.098051
    36  C   -0.159959
    37  C    0.074088
    38  C    0.076629
    39  C    0.104913
    40  C    0.009177
    41  O   -0.212297
    42  C   -0.026021
    43  C    0.194507
    44  O   -0.221511
    45  O   -0.330743
    46  C    0.187547
    47  C    0.258969
    48  C   -0.144921
    49  C   -0.153771
    50  C    0.090071
    51  C    0.054359
    52  C    0.044639
    53  C    0.018532
    54  C   -0.124187
    55  C    0.053952
    56  C    0.049642
    57  C    0.021798
    58  C    0.047490
    59  C   -0.114969
    60  C    0.077890
    61  C    0.018740
    62  C    0.003390
    63  C    0.030656
    64  C   -0.147975
    65  C    0.057184
    66  C    0.041077
    67  H   -0.026677
    68  H   -0.012190
    69  H   -0.036925
    70  H    0.021176
    71  H   -0.000135
    72  H    0.013196
    73  H    0.048030
    74  H    0.008787
    75  H    0.007627
    76  H    0.021139
    77  H    0.046532
    78  H    0.020078
    79  H    0.048872
    80  H    0.016199
    81  H    0.016140
    82  H    0.042138
    83  H    0.023013
    84  H    0.028445
    85  H    0.011037
    86  H    0.019069
    87  H    0.008280
    88  H    0.019960
    89  H    0.035076
    90  H    0.007086
    91  H   -0.000681
    92  H    0.018004
    93  H    0.018368
    94  H    0.024139
    95  H    0.021675
    96  H    0.025336
    97  H    0.018889
    98  H    0.047351
    99  H    0.034909
   100  H    0.035425
   101  H    0.021953
   102  H    0.055664
   103  H    0.024264
   104  H    0.002667
   105  H    0.035311
   106  H    0.009104
   107  H    0.006767
   108  H    0.004415
   109  H   -0.006424
   110  H    0.002857
   111  H   -0.003012
   112  H   -0.007058
   113  H   -0.018612
   114  H   -0.010497
   115  H    0.016208
   116  H   -0.004066
   117  H    0.004673
   118  H   -0.015001
   119  H    0.004923
   120  H   -0.014603
   121  H   -0.020275
   122  H   -0.007104
   123  H   -0.004575
   124  H   -0.004696
   125  H    0.009882
   126  H   -0.007600
   127  H    0.011202
   128  H    0.000525
   129  H   -0.010023
   130  H    0.006296
   131  H    0.007876
   132  H   -0.019676
   133  H   -0.005722
   134  H    0.003860
   135  H    0.008350
   136  H    0.008017
   137  H    0.011392
   138  H    0.018023
   139  H   -0.003312
   140  H   -0.002950
 Sum of Mulliken charges =  -0.00000

 Dipole moment (field-independent basis, Debye):
    X=             -2.3721    Y=              4.3461    Z=             -1.3737  Tot=              5.1384
 Quadrupole moment (field-independent basis, Debye-Ang):
   XX=           -379.8506   YY=           -412.5684   ZZ=           -403.7333
   XY=             15.3763   XZ=             26.9182   YZ=             -2.3867

 Normal termination of Gaussian 16 at Fri Apr 29 13:27:04 2022.
