 Gaussian 16, Revision A.03,
 Gaussian 16:  ES64L-G16RevA.03 25-Dec-2016

 ---------------------------------
 #p PBE1PBE/Def2SVP td=(nstates=5)
 ---------------------------------

 ----------------------------------------------------
 step_301_chromophore_7 TDDFT with PBE1PBE functional
 ----------------------------------------------------
 Symbolic Z-matrix:
 Charge =  0 Multiplicity = 1

                         Standard orientation:
 ---------------------------------------------------------------------
 Center     Atomic      Atomic             Coordinates (Angstroms)
 Number     Number       Type             X           Y           Z
 ---------------------------------------------------------------------
      1         12           0        6.064668    0.688943    0.391101
      2          6           0        3.769878   -1.977267    0.047533
      3          6           0        3.671131    2.591217   -1.203669
      4          6           0        8.341726    3.079851    0.324937
      5          6           0        8.412567   -1.613389    1.509010
      6          7           0        3.927202    0.384211   -0.300104
      7          6           0        3.147641   -0.778678   -0.247778
      8          6           0        1.763264   -0.642728   -0.777761
      9          6           0        1.932615    0.688484   -1.555766
     10          6           0        3.246063    1.265808   -1.013147
     11          6           0        1.973799    0.502563   -3.089488
     12          6           0        0.713667   -0.835812    0.281842
     13          6           0       -0.436222   -1.760305   -0.144747
     14          6           0       -1.805681   -1.640355    0.516906
     15          8           0       -2.009331   -1.291405    1.632550
     16          8           0       -2.732649   -2.180385   -0.360739
     17          7           0        6.015543    2.538866   -0.328902
     18          6           0        4.932459    3.174992   -0.886471
     19          6           0        5.228657    4.579473   -1.142768
     20          6           0        6.607751    4.672028   -0.889954
     21          6           0        7.085430    3.437606   -0.245322
     22          6           0        4.259740    5.542522   -1.785704
     23          6           0        7.602939    5.825838   -1.222649
     24          8           0        8.769536    5.853642   -0.891595
     25          6           0        7.007094    7.107448   -1.737580
     26          7           0        8.099444    0.701932    0.844483
     27          6           0        8.794248    1.911462    0.890273
     28          6           0       10.155624    1.685618    1.420088
     29          6           0       10.208056    0.141690    1.854521
     30          6           0        8.788176   -0.297710    1.491232
     31          6           0       11.270656    2.084817    0.476383
     32          6           0       10.578259   -0.155637    3.318925
     33          6           0       11.665180   -1.238072    3.547209
     34          7           0        6.181326   -1.420879    0.667437
     35          6           0        7.185819   -2.185799    1.085243
     36          6           0        6.813621   -3.558124    1.030038
     37          6           0        5.444777   -3.536239    0.740084
     38          6           0        5.071623   -2.199124    0.512810
     39          6           0        7.680212   -4.739339    1.437842
     40          6           0        4.320246   -4.344389    0.545974
     41          8           0        4.204957   -5.582941    0.725567
     42          6           0        3.116299   -3.405429    0.152723
     43          6           0        2.484278   -3.961591   -1.059850
     44          8           0        2.885766   -3.857179   -2.210478
     45          8           0        1.387431   -4.724191   -0.741364
     46          6           0        0.815564   -5.578334   -1.810598
     47          6           0       -4.033381   -2.544366    0.193273
     48          6           0       -5.297205   -2.503640   -0.760514
     49          6           0       -5.632693   -1.579827   -1.721729
     50          6           0       -4.718624   -0.546082   -2.357059
     51          6           0       -7.031327   -1.542136   -2.400795
     52          6           0       -8.194560   -1.109360   -1.505007
     53          6           0       -8.882597    0.084562   -2.208929
     54          6           0      -10.113076   -0.308056   -3.179765
     55          6           0       -9.781942   -0.031762   -4.662622
     56          6           0      -11.313782    0.584342   -2.772693
     57          6           0      -12.258033   -0.197969   -1.848567
     58          6           0      -12.262644    0.368713   -0.381965
     59          6           0      -13.602256    1.082289    0.060344
     60          6           0      -13.497978    2.591041    0.051457
     61          6           0      -14.007938    0.367828    1.438137
     62          6           0      -12.939855    0.704756    2.588680
     63          6           0      -13.755209    0.884648    3.914401
     64          6           0      -14.373904    2.321238    4.173999
     65          6           0      -13.856905    2.950739    5.474187
     66          6           0      -15.927952    2.229073    4.127768
     67          1           0        2.897833    3.219459   -1.650334
     68          1           0        9.150881    3.806240    0.427463
     69          1           0        9.098227   -2.315316    1.988931
     70          1           0        1.737152   -1.516249   -1.428863
     71          1           0        1.056704    1.293044   -1.321754
     72          1           0        0.909142    0.580267   -3.309091
     73          1           0        2.356732   -0.412704   -3.541523
     74          1           0        2.520467    1.352135   -3.498308
     75          1           0        0.206942    0.113812    0.453343
     76          1           0        1.209988   -1.290647    1.138361
     77          1           0       -0.149944   -2.804304   -0.019687
     78          1           0       -0.631246   -1.715258   -1.216639
     79          1           0        4.005368    6.349009   -1.098476
     80          1           0        3.465392    4.955208   -2.246864
     81          1           0        4.760832    5.934975   -2.670460
     82          1           0        6.199558    7.476011   -1.105899
     83          1           0        6.594169    6.958337   -2.735537
     84          1           0        7.855633    7.774801   -1.889105
     85          1           0       10.156501    2.389838    2.252491
     86          1           0       10.777684   -0.551769    1.235289
     87          1           0       12.199159    1.558156    0.696947
     88          1           0       11.519176    3.107453    0.760181
     89          1           0       11.016625    1.913373   -0.569394
     90          1           0        9.645787   -0.466377    3.790742
     91          1           0       10.830480    0.792711    3.792473
     92          1           0       12.289564   -0.925028    4.384391
     93          1           0       12.257824   -1.370550    2.642288
     94          1           0       11.173041   -2.171734    3.820126
     95          1           0        8.590147   -4.935901    0.871355
     96          1           0        7.088620   -5.654139    1.401339
     97          1           0        7.943712   -4.662288    2.492418
     98          1           0        2.399733   -3.468459    0.970722
     99          1           0        0.261929   -6.482290   -1.556034
    100          1           0        1.570486   -5.973003   -2.490230
    101          1           0        0.130983   -5.108130   -2.517134
    102          1           0       -4.323319   -1.866503    0.996728
    103          1           0       -3.909252   -3.608145    0.398740
    104          1           0       -5.933485   -3.371416   -0.586205
    105          1           0       -4.525495   -0.789576   -3.401119
    106          1           0       -3.793486   -0.397468   -1.798226
    107          1           0       -5.249320    0.404335   -2.315472
    108          1           0       -7.287553   -2.511742   -2.826573
    109          1           0       -7.002968   -0.869274   -3.257986
    110          1           0       -7.789905   -0.940334   -0.507150
    111          1           0       -8.913558   -1.923190   -1.406905
    112          1           0       -8.238896    0.841322   -2.655794
    113          1           0       -9.285875    0.659769   -1.375982
    114          1           0      -10.384119   -1.351720   -3.017898
    115          1           0      -10.475518   -0.546362   -5.326953
    116          1           0       -8.783094   -0.330563   -4.982333
    117          1           0       -9.731439    1.053229   -4.745541
    118          1           0      -11.889464    0.756846   -3.681619
    119          1           0      -10.865069    1.514288   -2.423809
    120          1           0      -12.149715   -1.277970   -1.946236
    121          1           0      -13.253355   -0.178919   -2.293206
    122          1           0      -11.411610    1.040622   -0.272288
    123          1           0      -11.944173   -0.505898    0.184612
    124          1           0      -14.387933    0.870039   -0.664809
    125          1           0      -12.496954    2.967370   -0.157527
    126          1           0      -13.784855    2.942218    1.043157
    127          1           0      -14.209216    2.987971   -0.672922
    128          1           0      -14.131784   -0.713337    1.378410
    129          1           0      -14.990185    0.728795    1.745205
    130          1           0      -12.438284    1.608422    2.242039
    131          1           0      -12.303642   -0.158925    2.784484
    132          1           0      -13.069643    0.651247    4.728447
    133          1           0      -14.512955    0.105173    3.988496
    134          1           0      -14.080608    2.900108    3.298364
    135          1           0      -14.616536    3.290200    6.178636
    136          1           0      -13.296692    3.834629    5.169462
    137          1           0      -13.210842    2.256865    6.012419
    138          1           0      -16.428528    1.266357    4.031959
    139          1           0      -16.283862    2.764487    3.246742
    140          1           0      -16.290165    2.815065    4.972433
 ---------------------------------------------------------------------

 SCF Done:  E(RPBE1PBE) =  -3005.34582998     A.U. after   15 cycles

 Excitation energies and oscillator strengths:

 Excited State   1:      Singlet-A      1.8449 eV  672.05 nm  f=0.3769  <S**2>=0.000
     245 -> 248       -0.16253
     246 -> 247        0.69605
     246 <- 247       -0.11299
 This state for optimization and/or second-order correction.
 Total Energy, E(TD-HF/TD-DFT) =  -3005.27803235
 Copying the excited state density for this state as the 1-particle RhoCI density.

 Excited State   2:      Singlet-A      2.2607 eV  548.42 nm  f=0.1258  <S**2>=0.000
     245 -> 247        0.65540
     246 -> 248        0.24997

 Excited State   3:      Singlet-A      2.9144 eV  425.41 nm  f=0.0002  <S**2>=0.000
     242 -> 247        0.67255
     242 -> 249       -0.18818

 Excited State   4:      Singlet-A      3.0305 eV  409.12 nm  f=0.0018  <S**2>=0.000
     241 -> 247       -0.18663
     243 -> 247        0.66793

 Excited State   5:      Singlet-A      3.1059 eV  399.19 nm  f=0.0035  <S**2>=0.000
     240 -> 247        0.11956
     241 -> 247        0.65199
     243 -> 247        0.17105

 The electronic state is 1-A.
 Alpha  occ. eigenvalues --  -46.91187 -19.26188 -19.25110 -19.20412 -19.19858
 Alpha  occ. eigenvalues --  -19.19774 -19.18453 -14.41784 -14.40802 -14.39631
 Alpha  occ. eigenvalues --  -14.38290 -10.36498 -10.36143 -10.32572 -10.31575
 Alpha  occ. eigenvalues --  -10.29657 -10.28994 -10.28814 -10.28617 -10.28446
 Alpha  occ. eigenvalues --  -10.28254 -10.28247 -10.27728 -10.26583 -10.26387
 Alpha  occ. eigenvalues --  -10.26349 -10.26283 -10.26039 -10.25844 -10.25446
 Alpha  occ. eigenvalues --  -10.25427 -10.25368 -10.25220 -10.25178 -10.25163
 Alpha  occ. eigenvalues --  -10.25019 -10.24937 -10.24576 -10.24335 -10.24078
 Alpha  occ. eigenvalues --  -10.24039 -10.23799 -10.23688 -10.23617 -10.23605
 Alpha  occ. eigenvalues --  -10.23491 -10.23478 -10.23306 -10.23233 -10.23196
 Alpha  occ. eigenvalues --  -10.22917 -10.22897 -10.22724 -10.22678 -10.22660
 Alpha  occ. eigenvalues --  -10.22645 -10.22583 -10.22178 -10.22117 -10.22116
 Alpha  occ. eigenvalues --  -10.22016 -10.22015 -10.21958 -10.21929 -10.21682
 Alpha  occ. eigenvalues --  -10.21463  -3.13462  -1.86303  -1.85827  -1.85703
 Alpha  occ. eigenvalues --   -1.11367  -1.10852  -1.05823  -1.03846  -1.02255
 Alpha  occ. eigenvalues --   -1.01988  -0.99469  -0.98632  -0.97568  -0.96665
 Alpha  occ. eigenvalues --   -0.87234  -0.84910  -0.83969  -0.83515  -0.82925
 Alpha  occ. eigenvalues --   -0.82783  -0.82145  -0.82095  -0.81664  -0.80770
 Alpha  occ. eigenvalues --   -0.80122  -0.80051  -0.78326  -0.78288  -0.77674
 Alpha  occ. eigenvalues --   -0.76506  -0.75977  -0.75600  -0.75215  -0.74787
 Alpha  occ. eigenvalues --   -0.74142  -0.72891  -0.72516  -0.71880  -0.70716
 Alpha  occ. eigenvalues --   -0.69837  -0.69429  -0.69311  -0.68911  -0.68020
 Alpha  occ. eigenvalues --   -0.67453  -0.67143  -0.66208  -0.64724  -0.63806
 Alpha  occ. eigenvalues --   -0.63556  -0.62046  -0.61553  -0.61288  -0.60351
 Alpha  occ. eigenvalues --   -0.60044  -0.59825  -0.59605  -0.59244  -0.57913
 Alpha  occ. eigenvalues --   -0.57620  -0.57461  -0.57116  -0.56004  -0.54693
 Alpha  occ. eigenvalues --   -0.54444  -0.53682  -0.53168  -0.52933  -0.52494
 Alpha  occ. eigenvalues --   -0.51943  -0.51720  -0.51130  -0.50967  -0.50110
 Alpha  occ. eigenvalues --   -0.49893  -0.49004  -0.48756  -0.48651  -0.48235
 Alpha  occ. eigenvalues --   -0.48004  -0.47914  -0.47539  -0.47485  -0.47108
 Alpha  occ. eigenvalues --   -0.46887  -0.46756  -0.46610  -0.46496  -0.46194
 Alpha  occ. eigenvalues --   -0.46093  -0.45456  -0.45341  -0.45204  -0.45046
 Alpha  occ. eigenvalues --   -0.44996  -0.44900  -0.44550  -0.44503  -0.44144
 Alpha  occ. eigenvalues --   -0.43998  -0.43866  -0.43800  -0.43576  -0.43390
 Alpha  occ. eigenvalues --   -0.43229  -0.43014  -0.42861  -0.42705  -0.42518
 Alpha  occ. eigenvalues --   -0.42286  -0.42123  -0.41832  -0.41389  -0.41313
 Alpha  occ. eigenvalues --   -0.41201  -0.40941  -0.40620  -0.40491  -0.40380
 Alpha  occ. eigenvalues --   -0.40235  -0.40092  -0.39971  -0.39874  -0.39323
 Alpha  occ. eigenvalues --   -0.39194  -0.39070  -0.38949  -0.38685  -0.38617
 Alpha  occ. eigenvalues --   -0.38391  -0.38237  -0.38099  -0.38072  -0.37843
 Alpha  occ. eigenvalues --   -0.37654  -0.37410  -0.37364  -0.37280  -0.36955
 Alpha  occ. eigenvalues --   -0.36756  -0.36691  -0.36570  -0.36199  -0.35825
 Alpha  occ. eigenvalues --   -0.35781  -0.35550  -0.35354  -0.35159  -0.34828
 Alpha  occ. eigenvalues --   -0.34793  -0.34211  -0.34110  -0.33898  -0.33585
 Alpha  occ. eigenvalues --   -0.33386  -0.33249  -0.32642  -0.32546  -0.32155
 Alpha  occ. eigenvalues --   -0.32075  -0.31775  -0.31664  -0.31632  -0.31127
 Alpha  occ. eigenvalues --   -0.30687  -0.30340  -0.29477  -0.29423  -0.29127
 Alpha  occ. eigenvalues --   -0.28975  -0.28452  -0.27843  -0.27418  -0.26475
 Alpha  occ. eigenvalues --   -0.25877  -0.25304  -0.25195  -0.24551  -0.21181
 Alpha  occ. eigenvalues --   -0.18870
 Alpha virt. eigenvalues --   -0.11346  -0.05046  -0.04027  -0.02205   0.00134
 Alpha virt. eigenvalues --    0.00335   0.00382   0.01280   0.01607   0.02938
 Alpha virt. eigenvalues --    0.04203   0.04544   0.05419   0.05751   0.06040

 Mulliken charges:
               1
     1  Mg   0.985697
     2  C    0.030694
     3  C   -0.095417
     4  C   -0.056289
     5  C   -0.076357
     6  N   -0.351496
     7  C   -0.015752
     8  C   -0.103236
     9  C   -0.123591
    10  C    0.072147
    11  C    0.019419
    12  C    0.109818
    13  C   -0.116864
    14  C    0.232615
    15  O   -0.219841
    16  O   -0.384420
    17  N   -0.553677
    18  C    0.203672
    19  C   -0.195109
    20  C   -0.102955
    21  C    0.209555
    22  C    0.073660
    23  C    0.077597
    24  O   -0.221518
    25  C   -0.039283
    26  N   -0.453092
    27  C    0.060350
    28  C   -0.084854
    29  C   -0.126518
    30  C    0.111231
    31  C    0.019346
    32  C   -0.019623
    33  C   -0.066771
    34  N   -0.439583
    35  C    0.119918
    36  C   -0.164476
    37  C    0.012966
    38  C    0.124751
    39  C    0.051165
    40  C    0.102339
    41  O   -0.254913
    42  C   -0.133632
    43  C    0.281372
    44  O   -0.257887
    45  O   -0.364263
    46  C    0.131087
    47  C    0.220260
    48  C   -0.161001
    49  C   -0.191784
    50  C    0.018547
    51  C   -0.002773
    52  C   -0.017656
    53  C   -0.040250
    54  C   -0.204945
    55  C   -0.009555
    56  C   -0.011689
    57  C   -0.031080
    58  C   -0.005438
    59  C   -0.198570
    60  C    0.011347
    61  C   -0.039221
    62  C   -0.064741
    63  C   -0.022353
    64  C   -0.245690
    65  C   -0.001136
    66  C   -0.018968
    67  H    0.004404
    68  H    0.021165
    69  H   -0.002222
    70  H    0.069228
    71  H    0.035852
    72  H    0.041213
    73  H    0.072548
    74  H    0.038257
    75  H    0.041909
    76  H    0.055097
    77  H    0.083527
    78  H    0.052199
    79  H    0.074759
    80  H    0.042438
    81  H    0.044138
    82  H    0.068909
    83  H    0.050109
    84  H    0.055304
    85  H    0.048348
    86  H    0.056056
    87  H    0.037099
    88  H    0.046942
    89  H    0.062628
    90  H    0.040696
    91  H    0.032762
    92  H    0.046539
    93  H    0.045452
    94  H    0.050577
    95  H    0.050104
    96  H    0.054463
    97  H    0.047487
    98  H    0.084032
    99  H    0.057131
   100  H    0.056840
   101  H    0.044216
   102  H    0.080905
   103  H    0.050938
   104  H    0.031915
   105  H    0.063016
   106  H    0.039630
   107  H    0.036489
   108  H    0.037003
   109  H    0.026591
   110  H    0.035230
   111  H    0.029642
   112  H    0.024775
   113  H    0.017417
   114  H    0.025913
   115  H    0.044382
   116  H    0.025065
   117  H    0.032581
   118  H    0.019956
   119  H    0.036306
   120  H    0.015210
   121  H    0.011565
   122  H    0.024411
   123  H    0.027685
   124  H    0.032815
   125  H    0.036395
   126  H    0.025601
   127  H    0.039177
   128  H    0.033433
   129  H    0.026275
   130  H    0.040092
   131  H    0.040399
   132  H    0.013411
   133  H    0.026685
   134  H    0.047708
   135  H    0.034549
   136  H    0.035426
   137  H    0.037549
   138  H    0.043077
   139  H    0.024287
   140  H    0.025004
 Sum of Mulliken charges =  -0.00000

 Dipole moment (field-independent basis, Debye):
    X=             -2.2654    Y=              3.7307    Z=             -1.1784  Tot=              4.5210
 Quadrupole moment (field-independent basis, Debye-Ang):
   XX=           -372.4943   YY=           -410.4909   ZZ=           -400.8825
   XY=             11.2916   XZ=             29.6530   YZ=             -2.5532

 Normal termination of Gaussian 16 at Fri Apr 29 13:42:55 2022.
