 Gaussian 16, Revision A.03,
 Gaussian 16:  ES64L-G16RevA.03 25-Dec-2016

 --------------------------------
 #p wB97XD/Def2SVP td=(nstates=5)
 --------------------------------

 ---------------------------------------------------
 step_301_chromophore_7 TDDFT with wB97XD functional
 ---------------------------------------------------
 Symbolic Z-matrix:
 Charge =  0 Multiplicity = 1

                         Standard orientation:
 ---------------------------------------------------------------------
 Center     Atomic      Atomic             Coordinates (Angstroms)
 Number     Number       Type             X           Y           Z
 ---------------------------------------------------------------------
      1         12           0        6.064668    0.688943    0.391101
      2          6           0        3.769878   -1.977267    0.047533
      3          6           0        3.671131    2.591217   -1.203669
      4          6           0        8.341726    3.079851    0.324937
      5          6           0        8.412567   -1.613389    1.509010
      6          7           0        3.927202    0.384211   -0.300104
      7          6           0        3.147641   -0.778678   -0.247778
      8          6           0        1.763264   -0.642728   -0.777761
      9          6           0        1.932615    0.688484   -1.555766
     10          6           0        3.246063    1.265808   -1.013147
     11          6           0        1.973799    0.502563   -3.089488
     12          6           0        0.713667   -0.835812    0.281842
     13          6           0       -0.436222   -1.760305   -0.144747
     14          6           0       -1.805681   -1.640355    0.516906
     15          8           0       -2.009331   -1.291405    1.632550
     16          8           0       -2.732649   -2.180385   -0.360739
     17          7           0        6.015543    2.538866   -0.328902
     18          6           0        4.932459    3.174992   -0.886471
     19          6           0        5.228657    4.579473   -1.142768
     20          6           0        6.607751    4.672028   -0.889954
     21          6           0        7.085430    3.437606   -0.245322
     22          6           0        4.259740    5.542522   -1.785704
     23          6           0        7.602939    5.825838   -1.222649
     24          8           0        8.769536    5.853642   -0.891595
     25          6           0        7.007094    7.107448   -1.737580
     26          7           0        8.099444    0.701932    0.844483
     27          6           0        8.794248    1.911462    0.890273
     28          6           0       10.155624    1.685618    1.420088
     29          6           0       10.208056    0.141690    1.854521
     30          6           0        8.788176   -0.297710    1.491232
     31          6           0       11.270656    2.084817    0.476383
     32          6           0       10.578259   -0.155637    3.318925
     33          6           0       11.665180   -1.238072    3.547209
     34          7           0        6.181326   -1.420879    0.667437
     35          6           0        7.185819   -2.185799    1.085243
     36          6           0        6.813621   -3.558124    1.030038
     37          6           0        5.444777   -3.536239    0.740084
     38          6           0        5.071623   -2.199124    0.512810
     39          6           0        7.680212   -4.739339    1.437842
     40          6           0        4.320246   -4.344389    0.545974
     41          8           0        4.204957   -5.582941    0.725567
     42          6           0        3.116299   -3.405429    0.152723
     43          6           0        2.484278   -3.961591   -1.059850
     44          8           0        2.885766   -3.857179   -2.210478
     45          8           0        1.387431   -4.724191   -0.741364
     46          6           0        0.815564   -5.578334   -1.810598
     47          6           0       -4.033381   -2.544366    0.193273
     48          6           0       -5.297205   -2.503640   -0.760514
     49          6           0       -5.632693   -1.579827   -1.721729
     50          6           0       -4.718624   -0.546082   -2.357059
     51          6           0       -7.031327   -1.542136   -2.400795
     52          6           0       -8.194560   -1.109360   -1.505007
     53          6           0       -8.882597    0.084562   -2.208929
     54          6           0      -10.113076   -0.308056   -3.179765
     55          6           0       -9.781942   -0.031762   -4.662622
     56          6           0      -11.313782    0.584342   -2.772693
     57          6           0      -12.258033   -0.197969   -1.848567
     58          6           0      -12.262644    0.368713   -0.381965
     59          6           0      -13.602256    1.082289    0.060344
     60          6           0      -13.497978    2.591041    0.051457
     61          6           0      -14.007938    0.367828    1.438137
     62          6           0      -12.939855    0.704756    2.588680
     63          6           0      -13.755209    0.884648    3.914401
     64          6           0      -14.373904    2.321238    4.173999
     65          6           0      -13.856905    2.950739    5.474187
     66          6           0      -15.927952    2.229073    4.127768
     67          1           0        2.897833    3.219459   -1.650334
     68          1           0        9.150881    3.806240    0.427463
     69          1           0        9.098227   -2.315316    1.988931
     70          1           0        1.737152   -1.516249   -1.428863
     71          1           0        1.056704    1.293044   -1.321754
     72          1           0        0.909142    0.580267   -3.309091
     73          1           0        2.356732   -0.412704   -3.541523
     74          1           0        2.520467    1.352135   -3.498308
     75          1           0        0.206942    0.113812    0.453343
     76          1           0        1.209988   -1.290647    1.138361
     77          1           0       -0.149944   -2.804304   -0.019687
     78          1           0       -0.631246   -1.715258   -1.216639
     79          1           0        4.005368    6.349009   -1.098476
     80          1           0        3.465392    4.955208   -2.246864
     81          1           0        4.760832    5.934975   -2.670460
     82          1           0        6.199558    7.476011   -1.105899
     83          1           0        6.594169    6.958337   -2.735537
     84          1           0        7.855633    7.774801   -1.889105
     85          1           0       10.156501    2.389838    2.252491
     86          1           0       10.777684   -0.551769    1.235289
     87          1           0       12.199159    1.558156    0.696947
     88          1           0       11.519176    3.107453    0.760181
     89          1           0       11.016625    1.913373   -0.569394
     90          1           0        9.645787   -0.466377    3.790742
     91          1           0       10.830480    0.792711    3.792473
     92          1           0       12.289564   -0.925028    4.384391
     93          1           0       12.257824   -1.370550    2.642288
     94          1           0       11.173041   -2.171734    3.820126
     95          1           0        8.590147   -4.935901    0.871355
     96          1           0        7.088620   -5.654139    1.401339
     97          1           0        7.943712   -4.662288    2.492418
     98          1           0        2.399733   -3.468459    0.970722
     99          1           0        0.261929   -6.482290   -1.556034
    100          1           0        1.570486   -5.973003   -2.490230
    101          1           0        0.130983   -5.108130   -2.517134
    102          1           0       -4.323319   -1.866503    0.996728
    103          1           0       -3.909252   -3.608145    0.398740
    104          1           0       -5.933485   -3.371416   -0.586205
    105          1           0       -4.525495   -0.789576   -3.401119
    106          1           0       -3.793486   -0.397468   -1.798226
    107          1           0       -5.249320    0.404335   -2.315472
    108          1           0       -7.287553   -2.511742   -2.826573
    109          1           0       -7.002968   -0.869274   -3.257986
    110          1           0       -7.789905   -0.940334   -0.507150
    111          1           0       -8.913558   -1.923190   -1.406905
    112          1           0       -8.238896    0.841322   -2.655794
    113          1           0       -9.285875    0.659769   -1.375982
    114          1           0      -10.384119   -1.351720   -3.017898
    115          1           0      -10.475518   -0.546362   -5.326953
    116          1           0       -8.783094   -0.330563   -4.982333
    117          1           0       -9.731439    1.053229   -4.745541
    118          1           0      -11.889464    0.756846   -3.681619
    119          1           0      -10.865069    1.514288   -2.423809
    120          1           0      -12.149715   -1.277970   -1.946236
    121          1           0      -13.253355   -0.178919   -2.293206
    122          1           0      -11.411610    1.040622   -0.272288
    123          1           0      -11.944173   -0.505898    0.184612
    124          1           0      -14.387933    0.870039   -0.664809
    125          1           0      -12.496954    2.967370   -0.157527
    126          1           0      -13.784855    2.942218    1.043157
    127          1           0      -14.209216    2.987971   -0.672922
    128          1           0      -14.131784   -0.713337    1.378410
    129          1           0      -14.990185    0.728795    1.745205
    130          1           0      -12.438284    1.608422    2.242039
    131          1           0      -12.303642   -0.158925    2.784484
    132          1           0      -13.069643    0.651247    4.728447
    133          1           0      -14.512955    0.105173    3.988496
    134          1           0      -14.080608    2.900108    3.298364
    135          1           0      -14.616536    3.290200    6.178636
    136          1           0      -13.296692    3.834629    5.169462
    137          1           0      -13.210842    2.256865    6.012419
    138          1           0      -16.428528    1.266357    4.031959
    139          1           0      -16.283862    2.764487    3.246742
    140          1           0      -16.290165    2.815065    4.972433
 ---------------------------------------------------------------------

 SCF Done:  E(RwB97XD) =  -3007.85649364     A.U. after   18 cycles

 Excitation energies and oscillator strengths:

 Excited State   1:      Singlet-A      1.6590 eV  747.36 nm  f=0.3893  <S**2>=0.000
     245 -> 248       -0.16957
     246 -> 247        0.68648
     245 <- 248       -0.11157
 This state for optimization and/or second-order correction.
 Total Energy, E(TD-HF/TD-DFT) =  -3007.79552761
 Copying the excited state density for this state as the 1-particle RhoCI density.

 Excited State   2:      Singlet-A      2.2087 eV  561.35 nm  f=0.1275  <S**2>=0.000
     245 -> 247        0.64308
     246 -> 248        0.27478

 Excited State   3:      Singlet-A      3.4229 eV  362.22 nm  f=0.0006  <S**2>=0.000
     241 -> 247       -0.35936
     243 -> 247        0.57937

 Excited State   4:      Singlet-A      3.4959 eV  354.66 nm  f=0.0021  <S**2>=0.000
     242 -> 247        0.52973
     242 -> 249       -0.35978
     242 -> 250       -0.22201

 Excited State   5:      Singlet-A      3.5484 eV  349.41 nm  f=0.1378  <S**2>=0.000
     239 -> 247       -0.12893
     241 -> 247        0.45528
     243 -> 247        0.25755
     245 -> 247        0.11504
     246 -> 248       -0.40610

 The electronic state is 1-A.
 Alpha  occ. eigenvalues --  -46.94140 -19.30702 -19.29641 -19.25083 -19.24849
 Alpha  occ. eigenvalues --  -19.24519 -19.22977 -14.47025 -14.45773 -14.44753
 Alpha  occ. eigenvalues --  -14.43043 -10.43279 -10.42916 -10.39654 -10.38214
 Alpha  occ. eigenvalues --  -10.36133 -10.35775 -10.35279 -10.35207 -10.35186
 Alpha  occ. eigenvalues --  -10.34809 -10.34299 -10.33741 -10.33512 -10.32678
 Alpha  occ. eigenvalues --  -10.32620 -10.32248 -10.32198 -10.32125 -10.31983
 Alpha  occ. eigenvalues --  -10.31963 -10.31687 -10.31677 -10.31579 -10.31476
 Alpha  occ. eigenvalues --  -10.31384 -10.30909 -10.30893 -10.30724 -10.30515
 Alpha  occ. eigenvalues --  -10.30425 -10.30154 -10.30100 -10.30003 -10.29876
 Alpha  occ. eigenvalues --  -10.29774 -10.29764 -10.29757 -10.29615 -10.29534
 Alpha  occ. eigenvalues --  -10.29349 -10.29086 -10.29064 -10.29050 -10.29028
 Alpha  occ. eigenvalues --  -10.29027 -10.28941 -10.28540 -10.28477 -10.28461
 Alpha  occ. eigenvalues --  -10.28399 -10.28359 -10.28280 -10.28103 -10.28087
 Alpha  occ. eigenvalues --  -10.27892  -3.20257  -1.93851  -1.93376  -1.93246
 Alpha  occ. eigenvalues --   -1.18717  -1.18198  -1.13549  -1.11158  -1.09526
 Alpha  occ. eigenvalues --   -1.09281  -1.06869  -1.05759  -1.05176  -1.04095
 Alpha  occ. eigenvalues --   -0.94696  -0.92482  -0.91654  -0.91216  -0.90617
 Alpha  occ. eigenvalues --   -0.90327  -0.89899  -0.89778  -0.89447  -0.88441
 Alpha  occ. eigenvalues --   -0.87793  -0.87456  -0.85986  -0.85776  -0.85323
 Alpha  occ. eigenvalues --   -0.84279  -0.83732  -0.83253  -0.82867  -0.82439
 Alpha  occ. eigenvalues --   -0.81814  -0.80791  -0.80089  -0.79413  -0.78248
 Alpha  occ. eigenvalues --   -0.77456  -0.77131  -0.76999  -0.76598  -0.75584
 Alpha  occ. eigenvalues --   -0.75004  -0.74735  -0.73769  -0.72344  -0.71161
 Alpha  occ. eigenvalues --   -0.71064  -0.69683  -0.69246  -0.68977  -0.67807
 Alpha  occ. eigenvalues --   -0.67661  -0.67475  -0.67090  -0.66600  -0.65597
 Alpha  occ. eigenvalues --   -0.65123  -0.65065  -0.64416  -0.63632  -0.62137
 Alpha  occ. eigenvalues --   -0.62114  -0.61070  -0.60480  -0.60420  -0.59926
 Alpha  occ. eigenvalues --   -0.59333  -0.59190  -0.58536  -0.58447  -0.57496
 Alpha  occ. eigenvalues --   -0.57287  -0.56387  -0.56118  -0.56025  -0.55661
 Alpha  occ. eigenvalues --   -0.55439  -0.55400  -0.55077  -0.54934  -0.54574
 Alpha  occ. eigenvalues --   -0.54269  -0.54107  -0.53928  -0.53831  -0.53550
 Alpha  occ. eigenvalues --   -0.53420  -0.52942  -0.52745  -0.52591  -0.52377
 Alpha  occ. eigenvalues --   -0.52351  -0.52242  -0.51868  -0.51762  -0.51623
 Alpha  occ. eigenvalues --   -0.51358  -0.51230  -0.51170  -0.50906  -0.50587
 Alpha  occ. eigenvalues --   -0.50457  -0.50337  -0.50136  -0.50042  -0.49900
 Alpha  occ. eigenvalues --   -0.49598  -0.49403  -0.49083  -0.48610  -0.48565
 Alpha  occ. eigenvalues --   -0.48435  -0.48032  -0.47830  -0.47681  -0.47509
 Alpha  occ. eigenvalues --   -0.47472  -0.47273  -0.47148  -0.47012  -0.46475
 Alpha  occ. eigenvalues --   -0.46324  -0.46266  -0.46056  -0.45819  -0.45699
 Alpha  occ. eigenvalues --   -0.45640  -0.45463  -0.45283  -0.45004  -0.44912
 Alpha  occ. eigenvalues --   -0.44795  -0.44559  -0.44493  -0.44432  -0.44220
 Alpha  occ. eigenvalues --   -0.43837  -0.43783  -0.43643  -0.43260  -0.42899
 Alpha  occ. eigenvalues --   -0.42796  -0.42603  -0.42314  -0.42252  -0.41883
 Alpha  occ. eigenvalues --   -0.41782  -0.41267  -0.41192  -0.40865  -0.40623
 Alpha  occ. eigenvalues --   -0.40296  -0.40292  -0.39658  -0.39583  -0.39145
 Alpha  occ. eigenvalues --   -0.39107  -0.38738  -0.38702  -0.38620  -0.38110
 Alpha  occ. eigenvalues --   -0.37636  -0.37301  -0.36494  -0.36279  -0.36133
 Alpha  occ. eigenvalues --   -0.35932  -0.35104  -0.34709  -0.34198  -0.33462
 Alpha  occ. eigenvalues --   -0.32975  -0.32193  -0.31426  -0.31307  -0.26241
 Alpha  occ. eigenvalues --   -0.23073
 Alpha virt. eigenvalues --   -0.07218   0.00458   0.02287   0.04251   0.06098
 Alpha virt. eigenvalues --    0.07020   0.07044   0.07988   0.08498   0.09339
 Alpha virt. eigenvalues --    0.10603   0.11425   0.12079   0.12421   0.12704

 Mulliken charges:
               1
     1  Mg   0.973777
     2  C    0.025394
     3  C   -0.116069
     4  C   -0.075147
     5  C   -0.094458
     6  N   -0.315953
     7  C   -0.048152
     8  C   -0.070085
     9  C   -0.096631
    10  C    0.060637
    11  C    0.027600
    12  C    0.119328
    13  C   -0.092272
    14  C    0.220986
    15  O   -0.217044
    16  O   -0.382895
    17  N   -0.523036
    18  C    0.200615
    19  C   -0.185589
    20  C   -0.095063
    21  C    0.206060
    22  C    0.089103
    23  C    0.071833
    24  O   -0.213930
    25  C   -0.026745
    26  N   -0.424745
    27  C    0.052079
    28  C   -0.057089
    29  C   -0.098777
    30  C    0.099950
    31  C    0.028315
    32  C   -0.009276
    33  C   -0.048959
    34  N   -0.399009
    35  C    0.108935
    36  C   -0.167372
    37  C    0.022182
    38  C    0.106231
    39  C    0.060832
    40  C    0.082083
    41  O   -0.246963
    42  C   -0.093970
    43  C    0.256001
    44  O   -0.250928
    45  O   -0.361510
    46  C    0.147522
    47  C    0.232813
    48  C   -0.171172
    49  C   -0.180618
    50  C    0.039005
    51  C    0.015760
    52  C   -0.000901
    53  C   -0.021758
    54  C   -0.178634
    55  C    0.004981
    56  C    0.007509
    57  C   -0.017669
    58  C    0.010158
    59  C   -0.168073
    60  C    0.025202
    61  C   -0.020437
    62  C   -0.046750
    63  C   -0.003691
    64  C   -0.214322
    65  C    0.011901
    66  C   -0.006636
    67  H   -0.001639
    68  H    0.014881
    69  H   -0.011056
    70  H    0.044242
    71  H    0.027508
    72  H    0.035661
    73  H    0.070327
    74  H    0.030550
    75  H    0.033245
    76  H    0.047077
    77  H    0.070717
    78  H    0.044641
    79  H    0.072787
    80  H    0.039422
    81  H    0.038010
    82  H    0.063885
    83  H    0.044551
    84  H    0.055009
    85  H    0.037872
    86  H    0.043522
    87  H    0.031783
    88  H    0.041607
    89  H    0.057509
    90  H    0.031768
    91  H    0.024384
    92  H    0.041129
    93  H    0.038537
    94  H    0.044917
    95  H    0.044419
    96  H    0.049643
    97  H    0.040430
    98  H    0.076377
    99  H    0.053713
   100  H    0.052322
   101  H    0.039503
   102  H    0.076348
   103  H    0.047208
   104  H    0.029924
   105  H    0.057684
   106  H    0.032002
   107  H    0.028198
   108  H    0.030524
   109  H    0.011290
   110  H    0.027094
   111  H    0.021079
   112  H    0.015644
   113  H    0.005124
   114  H    0.012175
   115  H    0.039272
   116  H    0.018384
   117  H    0.024726
   118  H    0.011242
   119  H    0.025261
   120  H    0.008094
   121  H    0.003151
   122  H    0.009626
   123  H    0.018477
   124  H    0.021665
   125  H    0.030989
   126  H    0.012839
   127  H    0.035097
   128  H    0.025668
   129  H    0.012517
   130  H    0.027784
   131  H    0.033412
   132  H    0.004168
   133  H    0.016163
   134  H    0.029707
   135  H    0.028557
   136  H    0.029913
   137  H    0.031063
   138  H    0.037599
   139  H    0.018280
   140  H    0.018334
 Sum of Mulliken charges =  -0.00000

 Dipole moment (field-independent basis, Debye):
    X=             -2.4104    Y=              4.5684    Z=             -1.4603  Tot=              5.3678
 Quadrupole moment (field-independent basis, Debye-Ang):
   XX=           -374.5188   YY=           -408.0027   ZZ=           -400.4957
   XY=             16.6076   XZ=             27.5697   YZ=             -3.0361

 Normal termination of Gaussian 16 at Fri Apr 29 14:08:19 2022.
