 Gaussian 16, Revision A.03,
 Gaussian 16:  ES64L-G16RevA.03 25-Dec-2016

 --------------------
 #p ZINDO=(nstates=5)
 --------------------

 ----------------------------
 step_301_chromophore_7 ZINDO
 ----------------------------
 Symbolic Z-matrix:
 Charge =  0 Multiplicity = 1

                         Standard orientation:
 ---------------------------------------------------------------------
 Center     Atomic      Atomic             Coordinates (Angstroms)
 Number     Number       Type             X           Y           Z
 ---------------------------------------------------------------------
      1         12           0        6.064668    0.688943    0.391101
      2          6           0        3.769878   -1.977267    0.047533
      3          6           0        3.671131    2.591217   -1.203669
      4          6           0        8.341726    3.079851    0.324937
      5          6           0        8.412567   -1.613389    1.509010
      6          7           0        3.927202    0.384211   -0.300104
      7          6           0        3.147641   -0.778678   -0.247778
      8          6           0        1.763264   -0.642728   -0.777761
      9          6           0        1.932615    0.688484   -1.555766
     10          6           0        3.246063    1.265808   -1.013147
     11          6           0        1.973799    0.502563   -3.089488
     12          6           0        0.713667   -0.835812    0.281842
     13          6           0       -0.436222   -1.760305   -0.144747
     14          6           0       -1.805681   -1.640355    0.516906
     15          8           0       -2.009331   -1.291405    1.632550
     16          8           0       -2.732649   -2.180385   -0.360739
     17          7           0        6.015543    2.538866   -0.328902
     18          6           0        4.932459    3.174992   -0.886471
     19          6           0        5.228657    4.579473   -1.142768
     20          6           0        6.607751    4.672028   -0.889954
     21          6           0        7.085430    3.437606   -0.245322
     22          6           0        4.259740    5.542522   -1.785704
     23          6           0        7.602939    5.825838   -1.222649
     24          8           0        8.769536    5.853642   -0.891595
     25          6           0        7.007094    7.107448   -1.737580
     26          7           0        8.099444    0.701932    0.844483
     27          6           0        8.794248    1.911462    0.890273
     28          6           0       10.155624    1.685618    1.420088
     29          6           0       10.208056    0.141690    1.854521
     30          6           0        8.788176   -0.297710    1.491232
     31          6           0       11.270656    2.084817    0.476383
     32          6           0       10.578259   -0.155637    3.318925
     33          6           0       11.665180   -1.238072    3.547209
     34          7           0        6.181326   -1.420879    0.667437
     35          6           0        7.185819   -2.185799    1.085243
     36          6           0        6.813621   -3.558124    1.030038
     37          6           0        5.444777   -3.536239    0.740084
     38          6           0        5.071623   -2.199124    0.512810
     39          6           0        7.680212   -4.739339    1.437842
     40          6           0        4.320246   -4.344389    0.545974
     41          8           0        4.204957   -5.582941    0.725567
     42          6           0        3.116299   -3.405429    0.152723
     43          6           0        2.484278   -3.961591   -1.059850
     44          8           0        2.885766   -3.857179   -2.210478
     45          8           0        1.387431   -4.724191   -0.741364
     46          6           0        0.815564   -5.578334   -1.810598
     47          6           0       -4.033381   -2.544366    0.193273
     48          6           0       -5.297205   -2.503640   -0.760514
     49          6           0       -5.632693   -1.579827   -1.721729
     50          6           0       -4.718624   -0.546082   -2.357059
     51          6           0       -7.031327   -1.542136   -2.400795
     52          6           0       -8.194560   -1.109360   -1.505007
     53          6           0       -8.882597    0.084562   -2.208929
     54          6           0      -10.113076   -0.308056   -3.179765
     55          6           0       -9.781942   -0.031762   -4.662622
     56          6           0      -11.313782    0.584342   -2.772693
     57          6           0      -12.258033   -0.197969   -1.848567
     58          6           0      -12.262644    0.368713   -0.381965
     59          6           0      -13.602256    1.082289    0.060344
     60          6           0      -13.497978    2.591041    0.051457
     61          6           0      -14.007938    0.367828    1.438137
     62          6           0      -12.939855    0.704756    2.588680
     63          6           0      -13.755209    0.884648    3.914401
     64          6           0      -14.373904    2.321238    4.173999
     65          6           0      -13.856905    2.950739    5.474187
     66          6           0      -15.927952    2.229073    4.127768
     67          1           0        2.897833    3.219459   -1.650334
     68          1           0        9.150881    3.806240    0.427463
     69          1           0        9.098227   -2.315316    1.988931
     70          1           0        1.737152   -1.516249   -1.428863
     71          1           0        1.056704    1.293044   -1.321754
     72          1           0        0.909142    0.580267   -3.309091
     73          1           0        2.356732   -0.412704   -3.541523
     74          1           0        2.520467    1.352135   -3.498308
     75          1           0        0.206942    0.113812    0.453343
     76          1           0        1.209988   -1.290647    1.138361
     77          1           0       -0.149944   -2.804304   -0.019687
     78          1           0       -0.631246   -1.715258   -1.216639
     79          1           0        4.005368    6.349009   -1.098476
     80          1           0        3.465392    4.955208   -2.246864
     81          1           0        4.760832    5.934975   -2.670460
     82          1           0        6.199558    7.476011   -1.105899
     83          1           0        6.594169    6.958337   -2.735537
     84          1           0        7.855633    7.774801   -1.889105
     85          1           0       10.156501    2.389838    2.252491
     86          1           0       10.777684   -0.551769    1.235289
     87          1           0       12.199159    1.558156    0.696947
     88          1           0       11.519176    3.107453    0.760181
     89          1           0       11.016625    1.913373   -0.569394
     90          1           0        9.645787   -0.466377    3.790742
     91          1           0       10.830480    0.792711    3.792473
     92          1           0       12.289564   -0.925028    4.384391
     93          1           0       12.257824   -1.370550    2.642288
     94          1           0       11.173041   -2.171734    3.820126
     95          1           0        8.590147   -4.935901    0.871355
     96          1           0        7.088620   -5.654139    1.401339
     97          1           0        7.943712   -4.662288    2.492418
     98          1           0        2.399733   -3.468459    0.970722
     99          1           0        0.261929   -6.482290   -1.556034
    100          1           0        1.570486   -5.973003   -2.490230
    101          1           0        0.130983   -5.108130   -2.517134
    102          1           0       -4.323319   -1.866503    0.996728
    103          1           0       -3.909252   -3.608145    0.398740
    104          1           0       -5.933485   -3.371416   -0.586205
    105          1           0       -4.525495   -0.789576   -3.401119
    106          1           0       -3.793486   -0.397468   -1.798226
    107          1           0       -5.249320    0.404335   -2.315472
    108          1           0       -7.287553   -2.511742   -2.826573
    109          1           0       -7.002968   -0.869274   -3.257986
    110          1           0       -7.789905   -0.940334   -0.507150
    111          1           0       -8.913558   -1.923190   -1.406905
    112          1           0       -8.238896    0.841322   -2.655794
    113          1           0       -9.285875    0.659769   -1.375982
    114          1           0      -10.384119   -1.351720   -3.017898
    115          1           0      -10.475518   -0.546362   -5.326953
    116          1           0       -8.783094   -0.330563   -4.982333
    117          1           0       -9.731439    1.053229   -4.745541
    118          1           0      -11.889464    0.756846   -3.681619
    119          1           0      -10.865069    1.514288   -2.423809
    120          1           0      -12.149715   -1.277970   -1.946236
    121          1           0      -13.253355   -0.178919   -2.293206
    122          1           0      -11.411610    1.040622   -0.272288
    123          1           0      -11.944173   -0.505898    0.184612
    124          1           0      -14.387933    0.870039   -0.664809
    125          1           0      -12.496954    2.967370   -0.157527
    126          1           0      -13.784855    2.942218    1.043157
    127          1           0      -14.209216    2.987971   -0.672922
    128          1           0      -14.131784   -0.713337    1.378410
    129          1           0      -14.990185    0.728795    1.745205
    130          1           0      -12.438284    1.608422    2.242039
    131          1           0      -12.303642   -0.158925    2.784484
    132          1           0      -13.069643    0.651247    4.728447
    133          1           0      -14.512955    0.105173    3.988496
    134          1           0      -14.080608    2.900108    3.298364
    135          1           0      -14.616536    3.290200    6.178636
    136          1           0      -13.296692    3.834629    5.169462
    137          1           0      -13.210842    2.256865    6.012419
    138          1           0      -16.428528    1.266357    4.031959
    139          1           0      -16.283862    2.764487    3.246742
    140          1           0      -16.290165    2.815065    4.972433
 ---------------------------------------------------------------------

 SCF Done:  E(RZINDO/S) =  -474.322364468     A.U. after   20 cycles

 Excitation energies and oscillator strengths:

 Excited State   1:      Singlet-A      1.2629 eV  981.76 nm  f=0.5869  <S**2>=0.000
     175 ->178        -0.16384
     176 ->177         0.67041
 This state for optimization and/or second-order correction.
 Total Energy, E(CIS/TDA) =  -474.275954488
 Copying the excited state density for this state as the 1-particle RhoCI density.

 Excited State   2:      Singlet-A      1.9698 eV  629.43 nm  f=0.0444  <S**2>=0.000
     175 ->177         0.54272
     176 ->178         0.42245

 Excited State   3:      Singlet-A      2.9357 eV  422.33 nm  f=0.1041  <S**2>=0.000
     167 ->177         0.13039
     167 ->179        -0.21350
     167 ->180         0.13790
     168 ->177         0.17720
     168 ->179        -0.28937
     168 ->180         0.16783
     168 ->186         0.13513
     170 ->179         0.11666
     171 ->177        -0.10727
     171 ->180        -0.10478
     175 ->177        -0.11936
     176 ->178         0.15876
     176 ->179        -0.25340
     176 ->180        -0.11172

 Excited State   4:      Singlet-A      2.9504 eV  420.23 nm  f=0.0117  <S**2>=0.000
     167 ->179        -0.11721
     168 ->179        -0.10191
     168 ->180         0.10655
     170 ->177        -0.10823
     170 ->180        -0.10883
     171 ->177         0.26043
     171 ->178        -0.18587
     171 ->179         0.30377
     171 ->180         0.31595
     171 ->186        -0.15603
     171 ->187        -0.10660
     171 ->188         0.12157
     171 ->204        -0.10615

 Excited State   5:      Singlet-A      2.9580 eV  419.16 nm  f=0.3471  <S**2>=0.000
     168 ->179        -0.14764
     171 ->177        -0.11878
     171 ->180        -0.12269
     175 ->177         0.22906
     176 ->178        -0.31003
     176 ->179         0.36650
     176 ->180         0.21929

 The electronic state is 1-A.
 Alpha  occ. eigenvalues --   -1.85354  -1.81964  -1.81006  -1.73128  -1.71999
 Alpha  occ. eigenvalues --   -1.71191  -1.64679  -1.60391  -1.60352  -1.56935
 Alpha  occ. eigenvalues --   -1.53571  -1.51315  -1.48552  -1.47425  -1.46535
 Alpha  occ. eigenvalues --   -1.46039  -1.43189  -1.41128  -1.40896  -1.36533
 Alpha  occ. eigenvalues --   -1.35887  -1.33448  -1.31540  -1.31314  -1.28842
 Alpha  occ. eigenvalues --   -1.27164  -1.25572  -1.23454  -1.21878  -1.18337
 Alpha  occ. eigenvalues --   -1.17372  -1.15951  -1.15924  -1.13912  -1.12931
 Alpha  occ. eigenvalues --   -1.12504  -1.11166  -1.07776  -1.05745  -1.04690
 Alpha  occ. eigenvalues --   -1.02980  -1.01936  -0.98782  -0.97833  -0.97008
 Alpha  occ. eigenvalues --   -0.96401  -0.95646  -0.94022  -0.92417  -0.91932
 Alpha  occ. eigenvalues --   -0.91123  -0.90886  -0.90245  -0.89557  -0.85919
 Alpha  occ. eigenvalues --   -0.85776  -0.84197  -0.83740  -0.82440  -0.80032
 Alpha  occ. eigenvalues --   -0.79371  -0.77860  -0.76280  -0.76226  -0.75768
 Alpha  occ. eigenvalues --   -0.75049  -0.74758  -0.74636  -0.74003  -0.73401
 Alpha  occ. eigenvalues --   -0.72907  -0.72474  -0.71984  -0.70936  -0.70424
 Alpha  occ. eigenvalues --   -0.70150  -0.69349  -0.69177  -0.68732  -0.68157
 Alpha  occ. eigenvalues --   -0.67448  -0.67056  -0.66439  -0.66227  -0.65672
 Alpha  occ. eigenvalues --   -0.65208  -0.64467  -0.64125  -0.63499  -0.63395
 Alpha  occ. eigenvalues --   -0.63088  -0.62770  -0.62153  -0.61775  -0.61660
 Alpha  occ. eigenvalues --   -0.61471  -0.61196  -0.60923  -0.60844  -0.59796
 Alpha  occ. eigenvalues --   -0.59640  -0.59145  -0.58825  -0.58771  -0.58432
 Alpha  occ. eigenvalues --   -0.58053  -0.57463  -0.56990  -0.56843  -0.56627
 Alpha  occ. eigenvalues --   -0.55768  -0.55538  -0.55261  -0.55144  -0.54970
 Alpha  occ. eigenvalues --   -0.54509  -0.54176  -0.53909  -0.53309  -0.53256
 Alpha  occ. eigenvalues --   -0.52832  -0.52491  -0.52325  -0.51765  -0.51570
 Alpha  occ. eigenvalues --   -0.51207  -0.50972  -0.50475  -0.50335  -0.50039
 Alpha  occ. eigenvalues --   -0.49836  -0.49371  -0.49301  -0.49066  -0.48765
 Alpha  occ. eigenvalues --   -0.48618  -0.48424  -0.48260  -0.48178  -0.47729
 Alpha  occ. eigenvalues --   -0.47422  -0.47203  -0.47131  -0.46743  -0.46489
 Alpha  occ. eigenvalues --   -0.46324  -0.46063  -0.45512  -0.45479  -0.45332
 Alpha  occ. eigenvalues --   -0.45169  -0.44539  -0.44441  -0.44184  -0.44156
 Alpha  occ. eigenvalues --   -0.43473  -0.43219  -0.42457  -0.42148  -0.41617
 Alpha  occ. eigenvalues --   -0.41486  -0.41243  -0.40395  -0.39055  -0.38961
 Alpha  occ. eigenvalues --   -0.38066  -0.36843  -0.36305  -0.34577  -0.34291
 Alpha  occ. eigenvalues --   -0.33941  -0.32751  -0.31718  -0.31692  -0.27057
 Alpha  occ. eigenvalues --   -0.21835
 Alpha virt. eigenvalues --   -0.08596  -0.01948  -0.00749   0.01042   0.02444
 Alpha virt. eigenvalues --    0.02603   0.02911   0.03226   0.04378   0.04560
 Alpha virt. eigenvalues --    0.06436   0.06576   0.07189   0.07841   0.08114

 Mulliken charges:
               1
     1  Mg   0.422167
     2  C   -0.033122
     3  C   -0.093383
     4  C   -0.069496
     5  C   -0.066914
     6  N   -0.278280
     7  C    0.094443
     8  C   -0.001692
     9  C    0.016087
    10  C    0.169217
    11  C   -0.049573
    12  C   -0.014321
    13  C   -0.003343
    14  C    0.469933
    15  O   -0.499506
    16  O   -0.282437
    17  N   -0.330187
    18  C    0.134367
    19  C    0.020876
    20  C   -0.034282
    21  C    0.150575
    22  C   -0.043409
    23  C    0.322444
    24  O   -0.499744
    25  C   -0.033875
    26  N   -0.295377
    27  C    0.168089
    28  C    0.016413
    29  C   -0.007880
    30  C    0.100868
    31  C   -0.046097
    32  C   -0.031903
    33  C   -0.055407
    34  N   -0.312628
    35  C    0.097704
    36  C    0.007635
    37  C   -0.041711
    38  C    0.084883
    39  C   -0.042627
    40  C    0.330224
    41  O   -0.551367
    42  C    0.050845
    43  C    0.495414
    44  O   -0.531814
    45  O   -0.263003
    46  C    0.068550
    47  C    0.097451
    48  C   -0.102199
    49  C   -0.002732
    50  C   -0.037685
    51  C   -0.026839
    52  C   -0.028481
    53  C   -0.040916
    54  C   -0.017088
    55  C   -0.058000
    56  C   -0.034327
    57  C   -0.043754
    58  C   -0.038917
    59  C   -0.008278
    60  C   -0.051048
    61  C   -0.043881
    62  C   -0.044404
    63  C   -0.042460
    64  C   -0.008964
    65  C   -0.053380
    66  C   -0.063480
    67  H    0.025131
    68  H    0.038699
    69  H    0.020080
    70  H    0.036949
    71  H    0.028431
    72  H    0.015095
    73  H    0.042640
    74  H    0.019475
    75  H    0.030720
    76  H    0.037914
    77  H    0.047817
    78  H    0.030939
    79  H    0.046610
    80  H    0.034200
    81  H    0.026393
    82  H    0.043547
    83  H    0.029443
    84  H    0.038541
    85  H    0.034825
    86  H    0.040799
    87  H    0.013642
    88  H    0.022847
    89  H    0.034720
    90  H    0.020236
    91  H    0.016660
    92  H    0.019727
    93  H    0.024762
    94  H    0.023595
    95  H    0.030384
    96  H    0.026017
    97  H    0.022991
    98  H    0.053521
    99  H    0.039275
   100  H    0.042158
   101  H    0.032627
   102  H    0.063914
   103  H    0.043332
   104  H    0.032822
   105  H    0.035258
   106  H    0.022056
   107  H    0.020505
   108  H    0.018687
   109  H    0.018436
   110  H    0.025330
   111  H    0.019924
   112  H    0.027116
   113  H    0.001276
   114  H    0.027534
   115  H    0.023254
   116  H    0.008574
   117  H    0.019797
   118  H    0.009052
   119  H    0.032674
   120  H    0.023143
   121  H    0.007728
   122  H    0.018504
   123  H    0.017191
   124  H    0.017287
   125  H    0.023312
   126  H    0.018303
   127  H    0.018567
   128  H    0.022139
   129  H    0.012843
   130  H    0.034652
   131  H    0.024880
   132  H    0.005874
   133  H    0.020642
   134  H    0.024026
   135  H    0.021639
   136  H    0.014786
   137  H    0.022077
   138  H    0.029175
   139  H    0.007336
   140  H    0.016973
 Sum of Mulliken charges =  -0.00000

 Dipole moment (field-independent basis, Debye):
    X=             -3.8903    Y=              8.6591    Z=             -2.2871  Tot=              9.7645
 N-N= 4.203631834247D+03 E-N= 0.000000000000D+00  KE=-9.081732103672D+03
 Leave Link  601 at Fri Apr 29 14:20:43 2022, MaxMem=  6710886400 cpu:               0.8 elap:               0.0
 (Enter /sw/apps/gaussian-16.0/g16/l9999.exe)
 1\1\GINC-BP1-COMPUTE070\SP\RZINDO CIS\STO-3G\C55H74Mg1N4O6\OF15641\29-
 Apr-2022\0\\#p ZINDO=(nstates=5)\\step_301_chromophore_7 ZINDO\\0,1\Mg
 ,0,25.975,0.26,29.634\C,0,27.828,-0.222,32.605\C,0,23.218,0.392,31.701
 \C,0,24.185,0.293,26.859\C,0,28.872,-0.415,27.841\N,0,25.608,0.283,31.
 871\C,0,26.539,0.172,32.912\C,0,25.97,0.237,34.286\C,0,24.478,-0.01,33
 .941\C,0,24.409,0.22,32.426\C,0,23.982,-1.42,34.334\C,0,26.437,1.444,3
 5.052\C,0,26.89,1.132,36.486\C,0,26.856,2.218,37.557\O,0,27.,3.381,37.

 Normal termination of Gaussian 16 at Fri Apr 29 14:20:43 2022.
