 Gaussian 16, Revision A.03,
 Gaussian 16:  ES64L-G16RevA.03 25-Dec-2016

 ------------------------------
 #p blyp/Def2SVP td=(nstates=5)
 ------------------------------

 ---------------------------------------------------
 step_1051_chromophore_10 TDDFT with blyp functional
 ---------------------------------------------------
 Symbolic Z-matrix:
 Charge =  0 Multiplicity = 1

                         Standard orientation:
 ---------------------------------------------------------------------
 Center     Atomic      Atomic             Coordinates (Angstroms)
 Number     Number       Type             X           Y           Z
 ---------------------------------------------------------------------
      1         12           0        5.577104    0.555990    0.037996
      2          6           0        3.944893   -2.417358    0.310362
      3          6           0        3.087127    1.660942   -2.212316
      4          6           0        7.270980    3.514907   -0.536124
      5          6           0        8.144085   -0.492874    2.024996
      6          7           0        3.611073   -0.212421   -0.689997
      7          6           0        3.224820   -1.460853   -0.432853
      8          6           0        1.751228   -1.582367   -0.824390
      9          6           0        1.602487   -0.506726   -1.909200
     10          6           0        2.839444    0.377018   -1.639341
     11          6           0        1.547023   -1.030168   -3.282146
     12          6           0        0.711561   -1.448537    0.414120
     13          6           0       -0.067842   -2.732419    0.719580
     14          6           0       -1.021831   -3.161513   -0.446406
     15          8           0       -0.640155   -3.774140   -1.464332
     16          8           0       -2.262361   -2.848846   -0.184316
     17          7           0        5.143510    2.399277   -1.083442
     18          6           0        4.048240    2.601293   -1.860120
     19          6           0        3.938854    3.971505   -2.255135
     20          6           0        5.141509    4.617242   -1.756364
     21          6           0        5.988743    3.518734   -1.155456
     22          6           0        2.775799    4.582851   -3.106565
     23          6           0        5.492285    6.099483   -1.708294
     24          8           0        6.554337    6.514269   -1.156690
     25          6           0        4.476150    7.149675   -2.197273
     26          7           0        7.359970    1.400070    0.585654
     27          6           0        7.851227    2.604782    0.233601
     28          6           0        9.279362    2.857527    0.733793
     29          6           0        9.422161    1.741355    1.856851
     30          6           0        8.215251    0.831474    1.495123
     31          6           0       10.372202    2.910658   -0.343695
     32          6           0        9.361237    2.147836    3.277952
     33          6           0        8.476918    3.321849    3.761364
     34          7           0        6.037753   -1.117520    0.971791
     35          6           0        7.144066   -1.485724    1.713533
     36          6           0        7.008223   -2.889068    2.144706
     37          6           0        5.686634   -3.249202    1.645702
     38          6           0        5.217541   -2.161662    0.894184
     39          6           0        8.054727   -3.678975    2.813933
     40          6           0        4.735011   -4.318347    1.588613
     41          8           0        4.843396   -5.445722    2.016272
     42          6           0        3.546647   -3.809293    0.728151
     43          6           0        3.242309   -4.819169   -0.348352
     44          8           0        3.584988   -4.893162   -1.542267
     45          8           0        2.337018   -5.661206    0.204141
     46          6           0        1.664100   -6.654051   -0.623692
     47          6           0       -3.258034   -3.406084   -1.086224
     48          6           0       -4.636030   -3.038382   -0.620050
     49          6           0       -5.840091   -3.137716   -1.242460
     50          6           0       -5.974209   -3.841736   -2.573482
     51          6           0       -7.059311   -2.565408   -0.618412
     52          6           0       -7.764793   -1.440750   -1.448790
     53          6           0       -9.229341   -1.766095   -1.979204
     54          6           0      -10.330678   -0.954125   -1.217572
     55          6           0      -11.686276   -1.495002   -1.633717
     56          6           0      -10.241833    0.554448   -1.661561
     57          6           0      -10.603016    1.443888   -0.393284
     58          6           0       -9.363803    2.133269    0.250886
     59          6           0       -9.900827    3.460017    0.929008
     60          6           0       -8.760587    4.439588    1.048669
     61          6           0      -10.690346    3.267482    2.288214
     62          6           0      -12.164046    3.742437    2.304099
     63          6           0      -13.130994    2.705165    3.051753
     64          6           0      -14.022600    1.822539    2.121845
     65          6           0      -15.547004    2.392067    2.152367
     66          6           0      -13.804816    0.411536    2.506816
     67          1           0        2.222850    2.078681   -2.731486
     68          1           0        7.813007    4.416913   -0.826642
     69          1           0        9.039427   -0.859614    2.530641
     70          1           0        1.593433   -2.590365   -1.208467
     71          1           0        0.680773    0.029528   -1.682885
     72          1           0        2.512064   -0.832419   -3.749715
     73          1           0        0.836207   -0.476934   -3.896206
     74          1           0        1.242722   -2.074627   -3.333796
     75          1           0        0.040554   -0.602320    0.267760
     76          1           0        1.309567   -1.198181    1.290605
     77          1           0       -0.588811   -2.503509    1.649914
     78          1           0        0.531578   -3.640519    0.776482
     79          1           0        1.897934    5.026916   -2.637177
     80          1           0        2.364840    3.882323   -3.834064
     81          1           0        3.219426    5.220512   -3.871486
     82          1           0        4.747736    8.157765   -1.883974
     83          1           0        3.580289    6.766502   -1.709033
     84          1           0        4.393098    7.264993   -3.277764
     85          1           0        9.261339    3.894332    1.070045
     86          1           0       10.348677    1.169764    1.800068
     87          1           0        9.834871    3.042626   -1.283147
     88          1           0       11.060990    2.065914   -0.319738
     89          1           0       11.019984    3.785377   -0.286810
     90          1           0       10.359614    2.224356    3.708407
     91          1           0        8.997108    1.210638    3.697620
     92          1           0        7.963714    3.119068    4.702055
     93          1           0        7.736239    3.641572    3.028659
     94          1           0        9.169631    4.113786    4.047745
     95          1           0        8.912988   -3.036607    3.011432
     96          1           0        8.385374   -4.417221    2.083479
     97          1           0        7.673828   -4.246437    3.663277
     98          1           0        2.704555   -3.861971    1.418203
     99          1           0        2.482800   -7.169385   -1.126550
    100          1           0        1.043371   -6.179183   -1.384295
    101          1           0        1.129025   -7.410268   -0.049987
    102          1           0       -3.193305   -4.493549   -1.120206
    103          1           0       -3.029014   -2.925627   -2.038446
    104          1           0       -4.679122   -2.401689    0.264702
    105          1           0       -6.863680   -4.412490   -2.306613
    106          1           0       -5.133178   -4.513288   -2.749422
    107          1           0       -6.005557   -3.160009   -3.423515
    108          1           0       -6.814056   -2.096970    0.334497
    109          1           0       -7.814517   -3.292665   -0.318977
    110          1           0       -7.044902   -1.208476   -2.234137
    111          1           0       -7.799447   -0.637497   -0.713117
    112          1           0       -9.331657   -2.836879   -1.805111
    113          1           0       -9.151390   -1.618574   -3.057030
    114          1           0      -10.155102   -1.027773   -0.144069
    115          1           0      -12.393830   -0.778784   -2.051443
    116          1           0      -12.094240   -1.739533   -0.653020
    117          1           0      -11.536541   -2.354003   -2.287993
    118          1           0      -10.946300    0.774440   -2.463422
    119          1           0       -9.220319    0.689732   -2.016475
    120          1           0      -11.071708    0.805104    0.356488
    121          1           0      -11.387529    2.142454   -0.683101
    122          1           0       -8.699463    2.446966   -0.554068
    123          1           0       -8.792821    1.586564    1.002018
    124          1           0      -10.503585    3.970892    0.178581
    125          1           0       -8.727024    4.885104    0.054152
    126          1           0       -7.834456    3.958666    1.362983
    127          1           0       -9.093520    5.235268    1.715545
    128          1           0      -10.153297    3.777633    3.087352
    129          1           0      -10.838661    2.226782    2.574864
    130          1           0      -12.498086    3.842104    1.271564
    131          1           0      -12.202123    4.760960    2.691122
    132          1           0      -13.759760    3.383370    3.627061
    133          1           0      -12.469130    2.145324    3.713825
    134          1           0      -13.696702    2.070297    1.111137
    135          1           0      -16.206757    1.792568    2.780667
    136          1           0      -15.879608    2.470264    1.117593
    137          1           0      -15.534665    3.401045    2.565005
    138          1           0      -13.504452    0.228294    3.538421
    139          1           0      -13.036739   -0.090904    1.919293
    140          1           0      -14.740946   -0.132191    2.387211
 ---------------------------------------------------------------------

 SCF Done:  E(RB-LYP) =  -3007.36264987     A.U. after   20 cycles

 Excitation energies and oscillator strengths:

 Excited State   1:      Singlet-A      1.7213 eV  720.29 nm  f=0.0427  <S**2>=0.000
     244 -> 247        0.59412
     245 -> 247        0.23737
     246 -> 247        0.29407
 This state for optimization and/or second-order correction.
 Total Energy, E(TD-HF/TD-DFT) =  -3007.29939267
 Copying the excited state density for this state as the 1-particle RhoCI density.

 Excited State   2:      Singlet-A      1.7772 eV  697.63 nm  f=0.2626  <S**2>=0.000
     244 -> 247       -0.28989
     245 -> 248        0.15758
     246 -> 247        0.62176
     246 <- 247       -0.14563

 Excited State   3:      Singlet-A      1.8663 eV  664.34 nm  f=0.0099  <S**2>=0.000
     243 -> 247        0.69881

 Excited State   4:      Singlet-A      2.0127 eV  616.00 nm  f=0.0945  <S**2>=0.000
     244 -> 247       -0.23697
     245 -> 247        0.60468
     246 -> 248       -0.21431
     246 -> 249       -0.11039

 Excited State   5:      Singlet-A      2.3925 eV  518.21 nm  f=0.0067  <S**2>=0.000
     239 -> 247        0.13824
     241 -> 247       -0.14373
     242 -> 247        0.66597

 The electronic state is 1-A.
 Alpha  occ. eigenvalues --  -46.26309 -18.84019 -18.81207 -18.77184 -18.75912
 Alpha  occ. eigenvalues --  -18.75250 -18.75087 -14.03188 -14.03163 -14.00870
 Alpha  occ. eigenvalues --  -14.00652 -10.04810 -10.03544  -9.99872  -9.99146
 Alpha  occ. eigenvalues --   -9.99022  -9.96766  -9.96758  -9.96622  -9.96199
 Alpha  occ. eigenvalues --   -9.96113  -9.96051  -9.95423  -9.95035  -9.94569
 Alpha  occ. eigenvalues --   -9.94230  -9.94211  -9.93985  -9.93964  -9.93761
 Alpha  occ. eigenvalues --   -9.93684  -9.93570  -9.93480  -9.93437  -9.93290
 Alpha  occ. eigenvalues --   -9.93288  -9.93185  -9.92956  -9.92854  -9.92789
 Alpha  occ. eigenvalues --   -9.92690  -9.92528  -9.92495  -9.92383  -9.92160
 Alpha  occ. eigenvalues --   -9.92089  -9.91988  -9.91936  -9.91901  -9.91835
 Alpha  occ. eigenvalues --   -9.91796  -9.91785  -9.91720  -9.91689  -9.91566
 Alpha  occ. eigenvalues --   -9.91528  -9.91382  -9.91354  -9.91147  -9.91120
 Alpha  occ. eigenvalues --   -9.91106  -9.91012  -9.90912  -9.90910  -9.90892
 Alpha  occ. eigenvalues --   -9.90570  -2.91107  -1.71543  -1.70964  -1.70842
 Alpha  occ. eigenvalues --   -1.00928  -0.97105  -0.91643  -0.89948  -0.88751
 Alpha  occ. eigenvalues --   -0.88037  -0.87053  -0.86383  -0.85814  -0.84090
 Alpha  occ. eigenvalues --   -0.75641  -0.74354  -0.73010  -0.72657  -0.72506
 Alpha  occ. eigenvalues --   -0.72093  -0.71835  -0.71073  -0.70868  -0.70051
 Alpha  occ. eigenvalues --   -0.69859  -0.69068  -0.68255  -0.67644  -0.66992
 Alpha  occ. eigenvalues --   -0.66658  -0.65854  -0.65390  -0.65155  -0.64684
 Alpha  occ. eigenvalues --   -0.64068  -0.62360  -0.61912  -0.61753  -0.61216
 Alpha  occ. eigenvalues --   -0.60779  -0.60557  -0.59869  -0.59198  -0.58635
 Alpha  occ. eigenvalues --   -0.58488  -0.57666  -0.56595  -0.55632  -0.55345
 Alpha  occ. eigenvalues --   -0.53672  -0.53156  -0.52585  -0.52329  -0.51841
 Alpha  occ. eigenvalues --   -0.51132  -0.50909  -0.50711  -0.50242  -0.49797
 Alpha  occ. eigenvalues --   -0.49719  -0.49594  -0.48789  -0.48099  -0.46815
 Alpha  occ. eigenvalues --   -0.46116  -0.45967  -0.45538  -0.45264  -0.44763
 Alpha  occ. eigenvalues --   -0.44220  -0.43837  -0.43136  -0.42960  -0.42439
 Alpha  occ. eigenvalues --   -0.42233  -0.41987  -0.41519  -0.41319  -0.41102
 Alpha  occ. eigenvalues --   -0.40990  -0.40827  -0.40717  -0.40417  -0.40005
 Alpha  occ. eigenvalues --   -0.39726  -0.39469  -0.39326  -0.39242  -0.39152
 Alpha  occ. eigenvalues --   -0.39088  -0.38727  -0.38624  -0.38292  -0.38200
 Alpha  occ. eigenvalues --   -0.38064  -0.37742  -0.37658  -0.37567  -0.37365
 Alpha  occ. eigenvalues --   -0.37152  -0.37086  -0.36772  -0.36606  -0.36496
 Alpha  occ. eigenvalues --   -0.36238  -0.36220  -0.35826  -0.35756  -0.35621
 Alpha  occ. eigenvalues --   -0.35412  -0.35185  -0.35128  -0.34892  -0.34873
 Alpha  occ. eigenvalues --   -0.34693  -0.34574  -0.34478  -0.34389  -0.34215
 Alpha  occ. eigenvalues --   -0.34023  -0.33669  -0.33517  -0.33248  -0.33117
 Alpha  occ. eigenvalues --   -0.32889  -0.32816  -0.32587  -0.32461  -0.32246
 Alpha  occ. eigenvalues --   -0.31982  -0.31822  -0.31602  -0.31446  -0.31327
 Alpha  occ. eigenvalues --   -0.31226  -0.31043  -0.30969  -0.30557  -0.30520
 Alpha  occ. eigenvalues --   -0.30228  -0.30107  -0.29851  -0.29686  -0.29538
 Alpha  occ. eigenvalues --   -0.29234  -0.29105  -0.29056  -0.28964  -0.28811
 Alpha  occ. eigenvalues --   -0.28502  -0.28199  -0.28123  -0.28006  -0.27862
 Alpha  occ. eigenvalues --   -0.27834  -0.27165  -0.27148  -0.27003  -0.26781
 Alpha  occ. eigenvalues --   -0.26454  -0.26176  -0.25926  -0.25903  -0.25666
 Alpha  occ. eigenvalues --   -0.25037  -0.24495  -0.24043  -0.23801  -0.23265
 Alpha  occ. eigenvalues --   -0.23144  -0.22244  -0.21777  -0.20983  -0.20596
 Alpha  occ. eigenvalues --   -0.20394  -0.19948  -0.18496  -0.18076  -0.17373
 Alpha  occ. eigenvalues --   -0.15806
 Alpha virt. eigenvalues --   -0.11754  -0.06871  -0.06118  -0.04777  -0.03368
 Alpha virt. eigenvalues --   -0.02379  -0.02179  -0.01731  -0.00825   0.00186
 Alpha virt. eigenvalues --    0.00847   0.01420   0.01495   0.02209   0.02733

 Mulliken charges:
               1
     1  Mg   0.703760
     2  C    0.058397
     3  C   -0.068494
     4  C   -0.070796
     5  C   -0.078589
     6  N   -0.186225
     7  C   -0.086483
     8  C   -0.024599
     9  C    0.014490
    10  C    0.008918
    11  C    0.155675
    12  C    0.117957
    13  C    0.122754
    14  C    0.061028
    15  O   -0.233438
    16  O   -0.210349
    17  N   -0.263827
    18  C    0.154647
    19  C   -0.131401
    20  C    0.028671
    21  C    0.057903
    22  C    0.140572
    23  C   -0.055864
    24  O   -0.206282
    25  C    0.112230
    26  N   -0.226124
    27  C    0.093038
    28  C    0.018891
    29  C    0.048304
    30  C    0.044226
    31  C    0.131634
    32  C    0.088609
    33  C    0.085929
    34  N   -0.307017
    35  C    0.101687
    36  C   -0.164438
    37  C    0.071219
    38  C    0.090677
    39  C    0.191845
    40  C   -0.109111
    41  O   -0.113052
    42  C    0.040334
    43  C    0.139273
    44  O   -0.198898
    45  O   -0.272237
    46  C    0.220343
    47  C    0.321117
    48  C   -0.116028
    49  C   -0.176037
    50  C    0.152301
    51  C    0.135037
    52  C    0.026880
    53  C    0.096996
    54  C   -0.117931
    55  C    0.144628
    56  C    0.112187
    57  C    0.044802
    58  C    0.100196
    59  C   -0.102205
    60  C    0.124188
    61  C    0.121234
    62  C    0.021770
    63  C    0.077820
    64  C   -0.068398
    65  C    0.085580
    66  C    0.122847
    67  H   -0.055017
    68  H   -0.041624
    69  H   -0.044684
    70  H   -0.009472
    71  H   -0.039578
    72  H   -0.012533
    73  H   -0.025971
    74  H    0.015210
    75  H   -0.016143
    76  H   -0.016123
    77  H   -0.011884
    78  H    0.018296
    79  H    0.019804
    80  H   -0.017453
    81  H   -0.009017
    82  H   -0.009766
    83  H    0.014420
    84  H    0.013950
    85  H   -0.022536
    86  H   -0.040845
    87  H   -0.009126
    88  H   -0.009680
    89  H   -0.014956
    90  H   -0.032867
    91  H   -0.047167
    92  H   -0.015525
    93  H    0.011323
    94  H   -0.010781
    95  H   -0.020581
    96  H    0.009255
    97  H    0.013550
    98  H    0.008218
    99  H    0.006190
   100  H    0.026451
   101  H    0.014495
   102  H    0.019317
   103  H    0.008277
   104  H   -0.035724
   105  H    0.002592
   106  H   -0.014302
   107  H    0.015283
   108  H   -0.050894
   109  H   -0.026606
   110  H   -0.025130
   111  H   -0.018188
   112  H   -0.033642
   113  H   -0.026310
   114  H   -0.027845
   115  H   -0.015216
   116  H   -0.020335
   117  H   -0.010140
   118  H   -0.032956
   119  H   -0.027433
   120  H   -0.018476
   121  H   -0.026924
   122  H   -0.035940
   123  H   -0.017806
   124  H   -0.039092
   125  H   -0.024386
   126  H   -0.011342
   127  H   -0.027567
   128  H   -0.032375
   129  H   -0.037522
   130  H   -0.035578
   131  H   -0.033700
   132  H   -0.035926
   133  H   -0.024662
   134  H   -0.029542
   135  H   -0.007537
   136  H   -0.009613
   137  H   -0.016401
   138  H   -0.015845
   139  H   -0.012907
   140  H   -0.028213
 Sum of Mulliken charges =  -0.00000

 Dipole moment (field-independent basis, Debye):
    X=             -5.5240    Y=              1.9005    Z=              0.4881  Tot=              5.8621
 Quadrupole moment (field-independent basis, Debye-Ang):
   XX=           -376.0882   YY=           -439.1345   ZZ=           -402.3289
   XY=              6.8423   XZ=             18.1788   YZ=             -3.1519

 Normal termination of Gaussian 16 at Tue May  3 22:25:32 2022.
