 Gaussian 16, Revision A.03,
 Gaussian 16:  ES64L-G16RevA.03 25-Dec-2016

 -----------------------------------
 #p cam-b3lyp/Def2SVP td=(nstates=5)
 -----------------------------------

 --------------------------------------------------------
 step_1051_chromophore_10 TDDFT with cam-b3lyp functional
 --------------------------------------------------------
 Symbolic Z-matrix:
 Charge =  0 Multiplicity = 1

                         Standard orientation:
 ---------------------------------------------------------------------
 Center     Atomic      Atomic             Coordinates (Angstroms)
 Number     Number       Type             X           Y           Z
 ---------------------------------------------------------------------
      1         12           0        5.577104    0.555990    0.037996
      2          6           0        3.944893   -2.417358    0.310362
      3          6           0        3.087127    1.660942   -2.212316
      4          6           0        7.270980    3.514907   -0.536124
      5          6           0        8.144085   -0.492874    2.024996
      6          7           0        3.611073   -0.212421   -0.689997
      7          6           0        3.224820   -1.460853   -0.432853
      8          6           0        1.751228   -1.582367   -0.824390
      9          6           0        1.602487   -0.506726   -1.909200
     10          6           0        2.839444    0.377018   -1.639341
     11          6           0        1.547023   -1.030168   -3.282146
     12          6           0        0.711561   -1.448537    0.414120
     13          6           0       -0.067842   -2.732419    0.719580
     14          6           0       -1.021831   -3.161513   -0.446406
     15          8           0       -0.640155   -3.774140   -1.464332
     16          8           0       -2.262361   -2.848846   -0.184316
     17          7           0        5.143510    2.399277   -1.083442
     18          6           0        4.048240    2.601293   -1.860120
     19          6           0        3.938854    3.971505   -2.255135
     20          6           0        5.141509    4.617242   -1.756364
     21          6           0        5.988743    3.518734   -1.155456
     22          6           0        2.775799    4.582851   -3.106565
     23          6           0        5.492285    6.099483   -1.708294
     24          8           0        6.554337    6.514269   -1.156690
     25          6           0        4.476150    7.149675   -2.197273
     26          7           0        7.359970    1.400070    0.585654
     27          6           0        7.851227    2.604782    0.233601
     28          6           0        9.279362    2.857527    0.733793
     29          6           0        9.422161    1.741355    1.856851
     30          6           0        8.215251    0.831474    1.495123
     31          6           0       10.372202    2.910658   -0.343695
     32          6           0        9.361237    2.147836    3.277952
     33          6           0        8.476918    3.321849    3.761364
     34          7           0        6.037753   -1.117520    0.971791
     35          6           0        7.144066   -1.485724    1.713533
     36          6           0        7.008223   -2.889068    2.144706
     37          6           0        5.686634   -3.249202    1.645702
     38          6           0        5.217541   -2.161662    0.894184
     39          6           0        8.054727   -3.678975    2.813933
     40          6           0        4.735011   -4.318347    1.588613
     41          8           0        4.843396   -5.445722    2.016272
     42          6           0        3.546647   -3.809293    0.728151
     43          6           0        3.242309   -4.819169   -0.348352
     44          8           0        3.584988   -4.893162   -1.542267
     45          8           0        2.337018   -5.661206    0.204141
     46          6           0        1.664100   -6.654051   -0.623692
     47          6           0       -3.258034   -3.406084   -1.086224
     48          6           0       -4.636030   -3.038382   -0.620050
     49          6           0       -5.840091   -3.137716   -1.242460
     50          6           0       -5.974209   -3.841736   -2.573482
     51          6           0       -7.059311   -2.565408   -0.618412
     52          6           0       -7.764793   -1.440750   -1.448790
     53          6           0       -9.229341   -1.766095   -1.979204
     54          6           0      -10.330678   -0.954125   -1.217572
     55          6           0      -11.686276   -1.495002   -1.633717
     56          6           0      -10.241833    0.554448   -1.661561
     57          6           0      -10.603016    1.443888   -0.393284
     58          6           0       -9.363803    2.133269    0.250886
     59          6           0       -9.900827    3.460017    0.929008
     60          6           0       -8.760587    4.439588    1.048669
     61          6           0      -10.690346    3.267482    2.288214
     62          6           0      -12.164046    3.742437    2.304099
     63          6           0      -13.130994    2.705165    3.051753
     64          6           0      -14.022600    1.822539    2.121845
     65          6           0      -15.547004    2.392067    2.152367
     66          6           0      -13.804816    0.411536    2.506816
     67          1           0        2.222850    2.078681   -2.731486
     68          1           0        7.813007    4.416913   -0.826642
     69          1           0        9.039427   -0.859614    2.530641
     70          1           0        1.593433   -2.590365   -1.208467
     71          1           0        0.680773    0.029528   -1.682885
     72          1           0        2.512064   -0.832419   -3.749715
     73          1           0        0.836207   -0.476934   -3.896206
     74          1           0        1.242722   -2.074627   -3.333796
     75          1           0        0.040554   -0.602320    0.267760
     76          1           0        1.309567   -1.198181    1.290605
     77          1           0       -0.588811   -2.503509    1.649914
     78          1           0        0.531578   -3.640519    0.776482
     79          1           0        1.897934    5.026916   -2.637177
     80          1           0        2.364840    3.882323   -3.834064
     81          1           0        3.219426    5.220512   -3.871486
     82          1           0        4.747736    8.157765   -1.883974
     83          1           0        3.580289    6.766502   -1.709033
     84          1           0        4.393098    7.264993   -3.277764
     85          1           0        9.261339    3.894332    1.070045
     86          1           0       10.348677    1.169764    1.800068
     87          1           0        9.834871    3.042626   -1.283147
     88          1           0       11.060990    2.065914   -0.319738
     89          1           0       11.019984    3.785377   -0.286810
     90          1           0       10.359614    2.224356    3.708407
     91          1           0        8.997108    1.210638    3.697620
     92          1           0        7.963714    3.119068    4.702055
     93          1           0        7.736239    3.641572    3.028659
     94          1           0        9.169631    4.113786    4.047745
     95          1           0        8.912988   -3.036607    3.011432
     96          1           0        8.385374   -4.417221    2.083479
     97          1           0        7.673828   -4.246437    3.663277
     98          1           0        2.704555   -3.861971    1.418203
     99          1           0        2.482800   -7.169385   -1.126550
    100          1           0        1.043371   -6.179183   -1.384295
    101          1           0        1.129025   -7.410268   -0.049987
    102          1           0       -3.193305   -4.493549   -1.120206
    103          1           0       -3.029014   -2.925627   -2.038446
    104          1           0       -4.679122   -2.401689    0.264702
    105          1           0       -6.863680   -4.412490   -2.306613
    106          1           0       -5.133178   -4.513288   -2.749422
    107          1           0       -6.005557   -3.160009   -3.423515
    108          1           0       -6.814056   -2.096970    0.334497
    109          1           0       -7.814517   -3.292665   -0.318977
    110          1           0       -7.044902   -1.208476   -2.234137
    111          1           0       -7.799447   -0.637497   -0.713117
    112          1           0       -9.331657   -2.836879   -1.805111
    113          1           0       -9.151390   -1.618574   -3.057030
    114          1           0      -10.155102   -1.027773   -0.144069
    115          1           0      -12.393830   -0.778784   -2.051443
    116          1           0      -12.094240   -1.739533   -0.653020
    117          1           0      -11.536541   -2.354003   -2.287993
    118          1           0      -10.946300    0.774440   -2.463422
    119          1           0       -9.220319    0.689732   -2.016475
    120          1           0      -11.071708    0.805104    0.356488
    121          1           0      -11.387529    2.142454   -0.683101
    122          1           0       -8.699463    2.446966   -0.554068
    123          1           0       -8.792821    1.586564    1.002018
    124          1           0      -10.503585    3.970892    0.178581
    125          1           0       -8.727024    4.885104    0.054152
    126          1           0       -7.834456    3.958666    1.362983
    127          1           0       -9.093520    5.235268    1.715545
    128          1           0      -10.153297    3.777633    3.087352
    129          1           0      -10.838661    2.226782    2.574864
    130          1           0      -12.498086    3.842104    1.271564
    131          1           0      -12.202123    4.760960    2.691122
    132          1           0      -13.759760    3.383370    3.627061
    133          1           0      -12.469130    2.145324    3.713825
    134          1           0      -13.696702    2.070297    1.111137
    135          1           0      -16.206757    1.792568    2.780667
    136          1           0      -15.879608    2.470264    1.117593
    137          1           0      -15.534665    3.401045    2.565005
    138          1           0      -13.504452    0.228294    3.538421
    139          1           0      -13.036739   -0.090904    1.919293
    140          1           0      -14.740946   -0.132191    2.387211
 ---------------------------------------------------------------------

 SCF Done:  E(RCAM-B3LYP) =  -3007.15468643     A.U. after   17 cycles

 Excitation energies and oscillator strengths:

 Excited State   1:      Singlet-A      1.6478 eV  752.43 nm  f=0.3937  <S**2>=0.000
     245 -> 248       -0.17121
     246 -> 247        0.68843
     245 <- 248       -0.10804
 This state for optimization and/or second-order correction.
 Total Energy, E(TD-HF/TD-DFT) =  -3007.09413142
 Copying the excited state density for this state as the 1-particle RhoCI density.

 Excited State   2:      Singlet-A      2.2136 eV  560.11 nm  f=0.1378  <S**2>=0.000
     245 -> 247        0.64393
     246 -> 248        0.27384

 Excited State   3:      Singlet-A      3.1953 eV  388.02 nm  f=0.0030  <S**2>=0.000
     243 -> 247        0.24656
     244 -> 247        0.63909
     246 -> 248       -0.10399

 Excited State   4:      Singlet-A      3.3515 eV  369.94 nm  f=0.0059  <S**2>=0.000
     240 -> 249        0.14153
     241 -> 247       -0.27560
     243 -> 247        0.54767
     244 -> 247       -0.23639

 Excited State   5:      Singlet-A      3.3905 eV  365.68 nm  f=0.0129  <S**2>=0.000
     239 -> 247        0.14840
     239 -> 249       -0.11586
     240 -> 247        0.28087
     240 -> 249       -0.10303
     240 -> 250        0.11491
     241 -> 247        0.37444
     241 -> 248       -0.12495
     241 -> 249       -0.25904
     241 -> 250        0.12571
     243 -> 247        0.23132
     246 -> 248       -0.17342

 The electronic state is 1-A.
 Alpha  occ. eigenvalues --  -46.87787 -19.26911 -19.24085 -19.20057 -19.18957
 Alpha  occ. eigenvalues --  -19.18459 -19.18378 -14.42103 -14.41924 -14.39198
 Alpha  occ. eigenvalues --  -14.39164 -10.40052 -10.39023 -10.35345 -10.34250
 Alpha  occ. eigenvalues --  -10.33203 -10.31247 -10.31134 -10.30786 -10.30676
 Alpha  occ. eigenvalues --  -10.30620 -10.30206 -10.29806 -10.29446 -10.29109
 Alpha  occ. eigenvalues --  -10.28782 -10.28593 -10.28131 -10.28096 -10.28006
 Alpha  occ. eigenvalues --  -10.27989 -10.27899 -10.27584 -10.27453 -10.27414
 Alpha  occ. eigenvalues --  -10.27279 -10.27054 -10.26969 -10.26920 -10.26906
 Alpha  occ. eigenvalues --  -10.26466 -10.26262 -10.26132 -10.26111 -10.26094
 Alpha  occ. eigenvalues --  -10.26049 -10.25900 -10.25750 -10.25693 -10.25503
 Alpha  occ. eigenvalues --  -10.25468 -10.25460 -10.25451 -10.25400 -10.25331
 Alpha  occ. eigenvalues --  -10.25183 -10.25087 -10.25080 -10.24904 -10.24864
 Alpha  occ. eigenvalues --  -10.24830 -10.24815 -10.24567 -10.24540 -10.24457
 Alpha  occ. eigenvalues --  -10.24160  -3.16499  -1.91407  -1.90938  -1.90829
 Alpha  occ. eigenvalues --   -1.19394  -1.15582  -1.10021  -1.07780  -1.07205
 Alpha  occ. eigenvalues --   -1.05920  -1.04838  -1.04005  -1.03324  -1.01693
 Alpha  occ. eigenvalues --   -0.92779  -0.91285  -0.89814  -0.89331  -0.89259
 Alpha  occ. eigenvalues --   -0.88803  -0.88478  -0.87654  -0.87457  -0.86510
 Alpha  occ. eigenvalues --   -0.86251  -0.85767  -0.84537  -0.83779  -0.83116
 Alpha  occ. eigenvalues --   -0.82724  -0.81795  -0.81355  -0.81071  -0.80547
 Alpha  occ. eigenvalues --   -0.80149  -0.78045  -0.77578  -0.77297  -0.76665
 Alpha  occ. eigenvalues --   -0.76170  -0.75939  -0.75140  -0.74454  -0.73840
 Alpha  occ. eigenvalues --   -0.73560  -0.72649  -0.71506  -0.70452  -0.69958
 Alpha  occ. eigenvalues --   -0.68282  -0.67602  -0.67147  -0.66679  -0.66167
 Alpha  occ. eigenvalues --   -0.65227  -0.64869  -0.64623  -0.64379  -0.63796
 Alpha  occ. eigenvalues --   -0.63712  -0.63495  -0.62718  -0.61776  -0.60374
 Alpha  occ. eigenvalues --   -0.59739  -0.59588  -0.58987  -0.58679  -0.58146
 Alpha  occ. eigenvalues --   -0.57619  -0.57297  -0.56312  -0.56122  -0.55765
 Alpha  occ. eigenvalues --   -0.55391  -0.54995  -0.54426  -0.54240  -0.54044
 Alpha  occ. eigenvalues --   -0.53975  -0.53640  -0.53345  -0.53200  -0.52919
 Alpha  occ. eigenvalues --   -0.52313  -0.52163  -0.51929  -0.51751  -0.51649
 Alpha  occ. eigenvalues --   -0.51498  -0.51453  -0.50993  -0.50867  -0.50737
 Alpha  occ. eigenvalues --   -0.50503  -0.50249  -0.49879  -0.49837  -0.49593
 Alpha  occ. eigenvalues --   -0.49343  -0.49311  -0.49195  -0.49000  -0.48782
 Alpha  occ. eigenvalues --   -0.48652  -0.48461  -0.48276  -0.47998  -0.47630
 Alpha  occ. eigenvalues --   -0.47565  -0.47369  -0.47170  -0.46929  -0.46810
 Alpha  occ. eigenvalues --   -0.46671  -0.46644  -0.46272  -0.46227  -0.46031
 Alpha  occ. eigenvalues --   -0.45948  -0.45514  -0.45266  -0.45201  -0.45104
 Alpha  occ. eigenvalues --   -0.44684  -0.44569  -0.44260  -0.44013  -0.43816
 Alpha  occ. eigenvalues --   -0.43625  -0.43585  -0.43409  -0.43067  -0.42790
 Alpha  occ. eigenvalues --   -0.42615  -0.42345  -0.42324  -0.42210  -0.41778
 Alpha  occ. eigenvalues --   -0.41592  -0.41503  -0.41213  -0.41014  -0.40799
 Alpha  occ. eigenvalues --   -0.40625  -0.40410  -0.40293  -0.40085  -0.39932
 Alpha  occ. eigenvalues --   -0.39879  -0.39515  -0.39158  -0.39130  -0.38802
 Alpha  occ. eigenvalues --   -0.38748  -0.38238  -0.37957  -0.37849  -0.37735
 Alpha  occ. eigenvalues --   -0.37521  -0.37222  -0.36700  -0.36580  -0.36306
 Alpha  occ. eigenvalues --   -0.35841  -0.35484  -0.34930  -0.34265  -0.33939
 Alpha  occ. eigenvalues --   -0.33593  -0.33565  -0.32812  -0.31306  -0.30588
 Alpha  occ. eigenvalues --   -0.30403  -0.30167  -0.29495  -0.29358  -0.24165
 Alpha  occ. eigenvalues --   -0.21076
 Alpha virt. eigenvalues --   -0.09012  -0.01550   0.00191   0.02124   0.03673
 Alpha virt. eigenvalues --    0.04531   0.05070   0.05379   0.05638   0.06380
 Alpha virt. eigenvalues --    0.07458   0.08198   0.08462   0.08819   0.09081

 Mulliken charges:
               1
     1  Mg   0.840449
     2  C    0.024691
     3  C   -0.074155
     4  C   -0.088322
     5  C   -0.082531
     6  N   -0.256782
     7  C   -0.036007
     8  C   -0.074578
     9  C   -0.041192
    10  C    0.025242
    11  C    0.094826
    12  C    0.069500
    13  C    0.056110
    14  C    0.139195
    15  O   -0.277765
    16  O   -0.273358
    17  N   -0.347330
    18  C    0.161093
    19  C   -0.137739
    20  C   -0.040624
    21  C    0.083969
    22  C    0.083914
    23  C    0.020623
    24  O   -0.245850
    25  C    0.037006
    26  N   -0.303181
    27  C    0.108254
    28  C   -0.038087
    29  C   -0.007298
    30  C    0.055979
    31  C    0.075361
    32  C    0.034883
    33  C    0.022012
    34  N   -0.400885
    35  C    0.103857
    36  C   -0.158856
    37  C   -0.008157
    38  C    0.127206
    39  C    0.139837
    40  C   -0.003916
    41  O   -0.152333
    42  C   -0.035459
    43  C    0.225432
    44  O   -0.236931
    45  O   -0.336215
    46  C    0.180290
    47  C    0.288162
    48  C   -0.138407
    49  C   -0.196221
    50  C    0.092099
    51  C    0.077590
    52  C   -0.028460
    53  C    0.043095
    54  C   -0.168453
    55  C    0.084474
    56  C    0.058400
    57  C   -0.000262
    58  C    0.048168
    59  C   -0.156513
    60  C    0.066095
    61  C    0.063847
    62  C   -0.023166
    63  C    0.020214
    64  C   -0.127912
    65  C    0.031128
    66  C    0.062203
    67  H   -0.021164
    68  H   -0.001895
    69  H   -0.012434
    70  H    0.024312
    71  H   -0.003430
    72  H    0.014547
    73  H   -0.000544
    74  H    0.041177
    75  H    0.013402
    76  H    0.015625
    77  H    0.024320
    78  H    0.043415
    79  H    0.046858
    80  H    0.012219
    81  H    0.018142
    82  H    0.026003
    83  H    0.038647
    84  H    0.041704
    85  H    0.013689
    86  H   -0.003387
    87  H    0.015826
    88  H    0.014902
    89  H    0.010517
    90  H   -0.003328
    91  H   -0.016041
    92  H    0.010276
    93  H    0.031532
    94  H    0.012538
    95  H    0.002808
    96  H    0.035714
    97  H    0.039185
    98  H    0.050448
    99  H    0.031324
   100  H    0.048937
   101  H    0.037803
   102  H    0.046242
   103  H    0.037421
   104  H   -0.000645
   105  H    0.024853
   106  H    0.010588
   107  H    0.038510
   108  H   -0.016953
   109  H    0.003008
   110  H    0.003312
   111  H    0.007295
   112  H   -0.005979
   113  H    0.003179
   114  H    0.001971
   115  H    0.009025
   116  H    0.002091
   117  H    0.015036
   118  H   -0.002990
   119  H   -0.000182
   120  H    0.001176
   121  H    0.000022
   122  H   -0.006696
   123  H    0.007734
   124  H   -0.007423
   125  H    0.000339
   126  H    0.011898
   127  H   -0.002390
   128  H   -0.002633
   129  H   -0.011047
   130  H   -0.010408
   131  H   -0.005085
   132  H   -0.005988
   133  H    0.002637
   134  H    0.000273
   135  H    0.015429
   136  H    0.013792
   137  H    0.006626
   138  H    0.009021
   139  H    0.007669
   140  H   -0.002640
 Sum of Mulliken charges =  -0.00000

 Dipole moment (field-independent basis, Debye):
    X=             -5.8944    Y=              2.6407    Z=              0.1732  Tot=              6.4612
 Quadrupole moment (field-independent basis, Debye-Ang):
   XX=           -377.9036   YY=           -435.4511   ZZ=           -401.2082
   XY=              9.5272   XZ=             17.5352   YZ=             -5.5094

 Normal termination of Gaussian 16 at Tue May  3 21:30:08 2022.
