 Gaussian 16, Revision A.03,
 Gaussian 16:  ES64L-G16RevA.03 25-Dec-2016

 ---------------------------------
 #p PBE1PBE/Def2SVP td=(nstates=5)
 ---------------------------------

 ------------------------------------------------------
 step_1051_chromophore_10 TDDFT with PBE1PBE functional
 ------------------------------------------------------
 Symbolic Z-matrix:
 Charge =  0 Multiplicity = 1

                         Standard orientation:
 ---------------------------------------------------------------------
 Center     Atomic      Atomic             Coordinates (Angstroms)
 Number     Number       Type             X           Y           Z
 ---------------------------------------------------------------------
      1         12           0        5.577104    0.555990    0.037996
      2          6           0        3.944893   -2.417358    0.310362
      3          6           0        3.087127    1.660942   -2.212316
      4          6           0        7.270980    3.514907   -0.536124
      5          6           0        8.144085   -0.492874    2.024996
      6          7           0        3.611073   -0.212421   -0.689997
      7          6           0        3.224820   -1.460853   -0.432853
      8          6           0        1.751228   -1.582367   -0.824390
      9          6           0        1.602487   -0.506726   -1.909200
     10          6           0        2.839444    0.377018   -1.639341
     11          6           0        1.547023   -1.030168   -3.282146
     12          6           0        0.711561   -1.448537    0.414120
     13          6           0       -0.067842   -2.732419    0.719580
     14          6           0       -1.021831   -3.161513   -0.446406
     15          8           0       -0.640155   -3.774140   -1.464332
     16          8           0       -2.262361   -2.848846   -0.184316
     17          7           0        5.143510    2.399277   -1.083442
     18          6           0        4.048240    2.601293   -1.860120
     19          6           0        3.938854    3.971505   -2.255135
     20          6           0        5.141509    4.617242   -1.756364
     21          6           0        5.988743    3.518734   -1.155456
     22          6           0        2.775799    4.582851   -3.106565
     23          6           0        5.492285    6.099483   -1.708294
     24          8           0        6.554337    6.514269   -1.156690
     25          6           0        4.476150    7.149675   -2.197273
     26          7           0        7.359970    1.400070    0.585654
     27          6           0        7.851227    2.604782    0.233601
     28          6           0        9.279362    2.857527    0.733793
     29          6           0        9.422161    1.741355    1.856851
     30          6           0        8.215251    0.831474    1.495123
     31          6           0       10.372202    2.910658   -0.343695
     32          6           0        9.361237    2.147836    3.277952
     33          6           0        8.476918    3.321849    3.761364
     34          7           0        6.037753   -1.117520    0.971791
     35          6           0        7.144066   -1.485724    1.713533
     36          6           0        7.008223   -2.889068    2.144706
     37          6           0        5.686634   -3.249202    1.645702
     38          6           0        5.217541   -2.161662    0.894184
     39          6           0        8.054727   -3.678975    2.813933
     40          6           0        4.735011   -4.318347    1.588613
     41          8           0        4.843396   -5.445722    2.016272
     42          6           0        3.546647   -3.809293    0.728151
     43          6           0        3.242309   -4.819169   -0.348352
     44          8           0        3.584988   -4.893162   -1.542267
     45          8           0        2.337018   -5.661206    0.204141
     46          6           0        1.664100   -6.654051   -0.623692
     47          6           0       -3.258034   -3.406084   -1.086224
     48          6           0       -4.636030   -3.038382   -0.620050
     49          6           0       -5.840091   -3.137716   -1.242460
     50          6           0       -5.974209   -3.841736   -2.573482
     51          6           0       -7.059311   -2.565408   -0.618412
     52          6           0       -7.764793   -1.440750   -1.448790
     53          6           0       -9.229341   -1.766095   -1.979204
     54          6           0      -10.330678   -0.954125   -1.217572
     55          6           0      -11.686276   -1.495002   -1.633717
     56          6           0      -10.241833    0.554448   -1.661561
     57          6           0      -10.603016    1.443888   -0.393284
     58          6           0       -9.363803    2.133269    0.250886
     59          6           0       -9.900827    3.460017    0.929008
     60          6           0       -8.760587    4.439588    1.048669
     61          6           0      -10.690346    3.267482    2.288214
     62          6           0      -12.164046    3.742437    2.304099
     63          6           0      -13.130994    2.705165    3.051753
     64          6           0      -14.022600    1.822539    2.121845
     65          6           0      -15.547004    2.392067    2.152367
     66          6           0      -13.804816    0.411536    2.506816
     67          1           0        2.222850    2.078681   -2.731486
     68          1           0        7.813007    4.416913   -0.826642
     69          1           0        9.039427   -0.859614    2.530641
     70          1           0        1.593433   -2.590365   -1.208467
     71          1           0        0.680773    0.029528   -1.682885
     72          1           0        2.512064   -0.832419   -3.749715
     73          1           0        0.836207   -0.476934   -3.896206
     74          1           0        1.242722   -2.074627   -3.333796
     75          1           0        0.040554   -0.602320    0.267760
     76          1           0        1.309567   -1.198181    1.290605
     77          1           0       -0.588811   -2.503509    1.649914
     78          1           0        0.531578   -3.640519    0.776482
     79          1           0        1.897934    5.026916   -2.637177
     80          1           0        2.364840    3.882323   -3.834064
     81          1           0        3.219426    5.220512   -3.871486
     82          1           0        4.747736    8.157765   -1.883974
     83          1           0        3.580289    6.766502   -1.709033
     84          1           0        4.393098    7.264993   -3.277764
     85          1           0        9.261339    3.894332    1.070045
     86          1           0       10.348677    1.169764    1.800068
     87          1           0        9.834871    3.042626   -1.283147
     88          1           0       11.060990    2.065914   -0.319738
     89          1           0       11.019984    3.785377   -0.286810
     90          1           0       10.359614    2.224356    3.708407
     91          1           0        8.997108    1.210638    3.697620
     92          1           0        7.963714    3.119068    4.702055
     93          1           0        7.736239    3.641572    3.028659
     94          1           0        9.169631    4.113786    4.047745
     95          1           0        8.912988   -3.036607    3.011432
     96          1           0        8.385374   -4.417221    2.083479
     97          1           0        7.673828   -4.246437    3.663277
     98          1           0        2.704555   -3.861971    1.418203
     99          1           0        2.482800   -7.169385   -1.126550
    100          1           0        1.043371   -6.179183   -1.384295
    101          1           0        1.129025   -7.410268   -0.049987
    102          1           0       -3.193305   -4.493549   -1.120206
    103          1           0       -3.029014   -2.925627   -2.038446
    104          1           0       -4.679122   -2.401689    0.264702
    105          1           0       -6.863680   -4.412490   -2.306613
    106          1           0       -5.133178   -4.513288   -2.749422
    107          1           0       -6.005557   -3.160009   -3.423515
    108          1           0       -6.814056   -2.096970    0.334497
    109          1           0       -7.814517   -3.292665   -0.318977
    110          1           0       -7.044902   -1.208476   -2.234137
    111          1           0       -7.799447   -0.637497   -0.713117
    112          1           0       -9.331657   -2.836879   -1.805111
    113          1           0       -9.151390   -1.618574   -3.057030
    114          1           0      -10.155102   -1.027773   -0.144069
    115          1           0      -12.393830   -0.778784   -2.051443
    116          1           0      -12.094240   -1.739533   -0.653020
    117          1           0      -11.536541   -2.354003   -2.287993
    118          1           0      -10.946300    0.774440   -2.463422
    119          1           0       -9.220319    0.689732   -2.016475
    120          1           0      -11.071708    0.805104    0.356488
    121          1           0      -11.387529    2.142454   -0.683101
    122          1           0       -8.699463    2.446966   -0.554068
    123          1           0       -8.792821    1.586564    1.002018
    124          1           0      -10.503585    3.970892    0.178581
    125          1           0       -8.727024    4.885104    0.054152
    126          1           0       -7.834456    3.958666    1.362983
    127          1           0       -9.093520    5.235268    1.715545
    128          1           0      -10.153297    3.777633    3.087352
    129          1           0      -10.838661    2.226782    2.574864
    130          1           0      -12.498086    3.842104    1.271564
    131          1           0      -12.202123    4.760960    2.691122
    132          1           0      -13.759760    3.383370    3.627061
    133          1           0      -12.469130    2.145324    3.713825
    134          1           0      -13.696702    2.070297    1.111137
    135          1           0      -16.206757    1.792568    2.780667
    136          1           0      -15.879608    2.470264    1.117593
    137          1           0      -15.534665    3.401045    2.565005
    138          1           0      -13.504452    0.228294    3.538421
    139          1           0      -13.036739   -0.090904    1.919293
    140          1           0      -14.740946   -0.132191    2.387211
 ---------------------------------------------------------------------

 SCF Done:  E(RPBE1PBE) =  -3005.34443442     A.U. after   15 cycles

 Excitation energies and oscillator strengths:

 Excited State   1:      Singlet-A      1.8103 eV  684.88 nm  f=0.3757  <S**2>=0.000
     245 -> 248       -0.16341
     246 -> 247        0.69641
     246 <- 247       -0.11814
 This state for optimization and/or second-order correction.
 Total Energy, E(TD-HF/TD-DFT) =  -3005.27790649
 Copying the excited state density for this state as the 1-particle RhoCI density.

 Excited State   2:      Singlet-A      2.2197 eV  558.55 nm  f=0.1323  <S**2>=0.000
     245 -> 247        0.65400
     246 -> 248        0.24454

 Excited State   3:      Singlet-A      2.8367 eV  437.07 nm  f=0.0039  <S**2>=0.000
     242 -> 247       -0.33408
     242 -> 249       -0.11219
     243 -> 247        0.18767
     244 -> 247        0.55981

 Excited State   4:      Singlet-A      2.8759 eV  431.12 nm  f=0.0002  <S**2>=0.000
     240 -> 247        0.21353
     242 -> 247       -0.16855
     243 -> 247        0.56092
     244 -> 247       -0.29388

 Excited State   5:      Singlet-A      2.9347 eV  422.48 nm  f=0.0066  <S**2>=0.000
     240 -> 247        0.26468
     242 -> 247        0.52232
     243 -> 247        0.20457
     244 -> 247        0.28828

 The electronic state is 1-A.
 Alpha  occ. eigenvalues --  -46.91195 -19.27567 -19.24779 -19.20387 -19.19227
 Alpha  occ. eigenvalues --  -19.18667 -19.18603 -14.41547 -14.41502 -14.38913
 Alpha  occ. eigenvalues --  -14.38803 -10.37113 -10.36062 -10.32411 -10.31440
 Alpha  occ. eigenvalues --  -10.30582 -10.29002 -10.28901 -10.28412 -10.28382
 Alpha  occ. eigenvalues --  -10.28083 -10.27923 -10.27451 -10.26997 -10.26658
 Alpha  occ. eigenvalues --  -10.26540 -10.26427 -10.25792 -10.25774 -10.25754
 Alpha  occ. eigenvalues --  -10.25555 -10.25517 -10.25276 -10.25093 -10.25062
 Alpha  occ. eigenvalues --  -10.24934 -10.24887 -10.24751 -10.24633 -10.24512
 Alpha  occ. eigenvalues --  -10.23934 -10.23846 -10.23831 -10.23657 -10.23568
 Alpha  occ. eigenvalues --  -10.23466 -10.23343 -10.23288 -10.23274 -10.23169
 Alpha  occ. eigenvalues --  -10.23129 -10.23070 -10.23005 -10.22973 -10.22885
 Alpha  occ. eigenvalues --  -10.22746 -10.22680 -10.22601 -10.22512 -10.22472
 Alpha  occ. eigenvalues --  -10.22386 -10.22367 -10.21951 -10.21928 -10.21848
 Alpha  occ. eigenvalues --  -10.21537  -3.13484  -1.86336  -1.85843  -1.85738
 Alpha  occ. eigenvalues --   -1.14254  -1.10392  -1.04836  -1.02632  -1.01818
 Alpha  occ. eigenvalues --   -1.00753  -0.99454  -0.98663  -0.98053  -0.96296
 Alpha  occ. eigenvalues --   -0.87179  -0.85422  -0.83897  -0.83651  -0.83470
 Alpha  occ. eigenvalues --   -0.82910  -0.82810  -0.81826  -0.81693  -0.80878
 Alpha  occ. eigenvalues --   -0.80518  -0.79930  -0.78742  -0.78134  -0.77338
 Alpha  occ. eigenvalues --   -0.76937  -0.76017  -0.75584  -0.75414  -0.74680
 Alpha  occ. eigenvalues --   -0.74357  -0.72341  -0.71790  -0.71587  -0.70827
 Alpha  occ. eigenvalues --   -0.70280  -0.70254  -0.69508  -0.68611  -0.68025
 Alpha  occ. eigenvalues --   -0.67865  -0.67123  -0.65925  -0.64739  -0.64383
 Alpha  occ. eigenvalues --   -0.62800  -0.61865  -0.61569  -0.60903  -0.60342
 Alpha  occ. eigenvalues --   -0.59670  -0.59335  -0.59204  -0.58915  -0.57991
 Alpha  occ. eigenvalues --   -0.57922  -0.57854  -0.56907  -0.56382  -0.54788
 Alpha  occ. eigenvalues --   -0.54264  -0.54109  -0.53581  -0.53325  -0.52472
 Alpha  occ. eigenvalues --   -0.52208  -0.51735  -0.50835  -0.50713  -0.50366
 Alpha  occ. eigenvalues --   -0.49904  -0.49477  -0.48997  -0.48670  -0.48610
 Alpha  occ. eigenvalues --   -0.48399  -0.48167  -0.47840  -0.47672  -0.47567
 Alpha  occ. eigenvalues --   -0.46948  -0.46483  -0.46412  -0.46347  -0.46156
 Alpha  occ. eigenvalues --   -0.46048  -0.45989  -0.45518  -0.45451  -0.45310
 Alpha  occ. eigenvalues --   -0.45116  -0.44768  -0.44446  -0.44403  -0.44191
 Alpha  occ. eigenvalues --   -0.43947  -0.43866  -0.43817  -0.43618  -0.43397
 Alpha  occ. eigenvalues --   -0.43224  -0.43018  -0.42886  -0.42651  -0.42236
 Alpha  occ. eigenvalues --   -0.42158  -0.42002  -0.41815  -0.41576  -0.41529
 Alpha  occ. eigenvalues --   -0.41304  -0.41192  -0.40994  -0.40842  -0.40778
 Alpha  occ. eigenvalues --   -0.40660  -0.40165  -0.39976  -0.39946  -0.39876
 Alpha  occ. eigenvalues --   -0.39470  -0.39394  -0.39099  -0.38771  -0.38542
 Alpha  occ. eigenvalues --   -0.38466  -0.38376  -0.38213  -0.37853  -0.37486
 Alpha  occ. eigenvalues --   -0.37481  -0.37186  -0.37042  -0.36985  -0.36539
 Alpha  occ. eigenvalues --   -0.36449  -0.36315  -0.35953  -0.35813  -0.35577
 Alpha  occ. eigenvalues --   -0.35399  -0.35196  -0.35127  -0.34820  -0.34808
 Alpha  occ. eigenvalues --   -0.34649  -0.34478  -0.34006  -0.33901  -0.33735
 Alpha  occ. eigenvalues --   -0.33561  -0.33226  -0.32836  -0.32767  -0.32585
 Alpha  occ. eigenvalues --   -0.32298  -0.32230  -0.31793  -0.31477  -0.31159
 Alpha  occ. eigenvalues --   -0.30896  -0.30437  -0.29884  -0.29388  -0.29051
 Alpha  occ. eigenvalues --   -0.28625  -0.28573  -0.28056  -0.26848  -0.25632
 Alpha  occ. eigenvalues --   -0.25482  -0.25221  -0.25058  -0.24886  -0.21105
 Alpha  occ. eigenvalues --   -0.18733
 Alpha virt. eigenvalues --   -0.11414  -0.05124  -0.03959  -0.02264  -0.00166
 Alpha virt. eigenvalues --    0.00530   0.00858   0.01146   0.01499   0.02833
 Alpha virt. eigenvalues --    0.03758   0.04241   0.04556   0.05192   0.05694

 Mulliken charges:
               1
     1  Mg   0.995197
     2  C    0.010572
     3  C   -0.055070
     4  C   -0.081994
     5  C   -0.072645
     6  N   -0.362823
     7  C    0.044215
     8  C   -0.138288
     9  C   -0.130375
    10  C    0.063733
    11  C    0.042797
    12  C    0.022370
    13  C   -0.031420
    14  C    0.210111
    15  O   -0.309820
    16  O   -0.307547
    17  N   -0.454376
    18  C    0.173095
    19  C   -0.159802
    20  C   -0.088540
    21  C    0.119674
    22  C    0.025555
    23  C    0.067358
    24  O   -0.280868
    25  C   -0.033871
    26  N   -0.413651
    27  C    0.126511
    28  C   -0.103717
    29  C   -0.083815
    30  C    0.084485
    31  C    0.020450
    32  C   -0.023021
    33  C   -0.051836
    34  N   -0.535162
    35  C    0.127389
    36  C   -0.175011
    37  C   -0.056958
    38  C    0.178300
    39  C    0.084188
    40  C    0.097861
    41  O   -0.199573
    42  C   -0.142031
    43  C    0.310589
    44  O   -0.273945
    45  O   -0.368373
    46  C    0.125819
    47  C    0.248660
    48  C   -0.147144
    49  C   -0.246301
    50  C    0.032237
    51  C    0.019227
    52  C   -0.092043
    53  C   -0.013613
    54  C   -0.259926
    55  C    0.028053
    56  C    0.008067
    57  C   -0.066274
    58  C   -0.008045
    59  C   -0.239741
    60  C    0.002347
    61  C    0.009094
    62  C   -0.079029
    63  C   -0.039614
    64  C   -0.218920
    65  C   -0.029715
    66  C   -0.002179
    67  H    0.009222
    68  H    0.028811
    69  H    0.017894
    70  H    0.068481
    71  H    0.033540
    72  H    0.042618
    73  H    0.027557
    74  H    0.066837
    75  H    0.044923
    76  H    0.049159
    77  H    0.056738
    78  H    0.080085
    79  H    0.071996
    80  H    0.037886
    81  H    0.045872
    82  H    0.052988
    83  H    0.065662
    84  H    0.066515
    85  H    0.049991
    86  H    0.032955
    87  H    0.044049
    88  H    0.041891
    89  H    0.038003
    90  H    0.029235
    91  H    0.020190
    92  H    0.038690
    93  H    0.060515
    94  H    0.040666
    95  H    0.031383
    96  H    0.064803
    97  H    0.066650
    98  H    0.088824
    99  H    0.053288
   100  H    0.071593
   101  H    0.059750
   102  H    0.071409
   103  H    0.063799
   104  H    0.029652
   105  H    0.052626
   106  H    0.038452
   107  H    0.064277
   108  H    0.015283
   109  H    0.035271
   110  H    0.036914
   111  H    0.042288
   112  H    0.027115
   113  H    0.035430
   114  H    0.038062
   115  H    0.035467
   116  H    0.030572
   117  H    0.041886
   118  H    0.029185
   119  H    0.033099
   120  H    0.039621
   121  H    0.031289
   122  H    0.026738
   123  H    0.038289
   124  H    0.030332
   125  H    0.029306
   126  H    0.039545
   127  H    0.026951
   128  H    0.029895
   129  H    0.022218
   130  H    0.021670
   131  H    0.026944
   132  H    0.027077
   133  H    0.033904
   134  H    0.039474
   135  H    0.042188
   136  H    0.041022
   137  H    0.033748
   138  H    0.035812
   139  H    0.037379
   140  H    0.025675
 Sum of Mulliken charges =  -0.00000

 Dipole moment (field-independent basis, Debye):
    X=             -5.7424    Y=              2.4387    Z=              0.3435  Tot=              6.2482
 Quadrupole moment (field-independent basis, Debye-Ang):
   XX=           -371.0897   YY=           -433.3352   ZZ=           -398.2215
   XY=              8.4018   XZ=             19.5808   YZ=             -5.0349

 Normal termination of Gaussian 16 at Tue May  3 21:46:30 2022.
