 Gaussian 16, Revision A.03,
 Gaussian 16:  ES64L-G16RevA.03 25-Dec-2016

 --------------------------------
 #p wB97XD/Def2SVP td=(nstates=5)
 --------------------------------

 -----------------------------------------------------
 step_1051_chromophore_10 TDDFT with wB97XD functional
 -----------------------------------------------------
 Symbolic Z-matrix:
 Charge =  0 Multiplicity = 1

                         Standard orientation:
 ---------------------------------------------------------------------
 Center     Atomic      Atomic             Coordinates (Angstroms)
 Number     Number       Type             X           Y           Z
 ---------------------------------------------------------------------
      1         12           0        5.577104    0.555990    0.037996
      2          6           0        3.944893   -2.417358    0.310362
      3          6           0        3.087127    1.660942   -2.212316
      4          6           0        7.270980    3.514907   -0.536124
      5          6           0        8.144085   -0.492874    2.024996
      6          7           0        3.611073   -0.212421   -0.689997
      7          6           0        3.224820   -1.460853   -0.432853
      8          6           0        1.751228   -1.582367   -0.824390
      9          6           0        1.602487   -0.506726   -1.909200
     10          6           0        2.839444    0.377018   -1.639341
     11          6           0        1.547023   -1.030168   -3.282146
     12          6           0        0.711561   -1.448537    0.414120
     13          6           0       -0.067842   -2.732419    0.719580
     14          6           0       -1.021831   -3.161513   -0.446406
     15          8           0       -0.640155   -3.774140   -1.464332
     16          8           0       -2.262361   -2.848846   -0.184316
     17          7           0        5.143510    2.399277   -1.083442
     18          6           0        4.048240    2.601293   -1.860120
     19          6           0        3.938854    3.971505   -2.255135
     20          6           0        5.141509    4.617242   -1.756364
     21          6           0        5.988743    3.518734   -1.155456
     22          6           0        2.775799    4.582851   -3.106565
     23          6           0        5.492285    6.099483   -1.708294
     24          8           0        6.554337    6.514269   -1.156690
     25          6           0        4.476150    7.149675   -2.197273
     26          7           0        7.359970    1.400070    0.585654
     27          6           0        7.851227    2.604782    0.233601
     28          6           0        9.279362    2.857527    0.733793
     29          6           0        9.422161    1.741355    1.856851
     30          6           0        8.215251    0.831474    1.495123
     31          6           0       10.372202    2.910658   -0.343695
     32          6           0        9.361237    2.147836    3.277952
     33          6           0        8.476918    3.321849    3.761364
     34          7           0        6.037753   -1.117520    0.971791
     35          6           0        7.144066   -1.485724    1.713533
     36          6           0        7.008223   -2.889068    2.144706
     37          6           0        5.686634   -3.249202    1.645702
     38          6           0        5.217541   -2.161662    0.894184
     39          6           0        8.054727   -3.678975    2.813933
     40          6           0        4.735011   -4.318347    1.588613
     41          8           0        4.843396   -5.445722    2.016272
     42          6           0        3.546647   -3.809293    0.728151
     43          6           0        3.242309   -4.819169   -0.348352
     44          8           0        3.584988   -4.893162   -1.542267
     45          8           0        2.337018   -5.661206    0.204141
     46          6           0        1.664100   -6.654051   -0.623692
     47          6           0       -3.258034   -3.406084   -1.086224
     48          6           0       -4.636030   -3.038382   -0.620050
     49          6           0       -5.840091   -3.137716   -1.242460
     50          6           0       -5.974209   -3.841736   -2.573482
     51          6           0       -7.059311   -2.565408   -0.618412
     52          6           0       -7.764793   -1.440750   -1.448790
     53          6           0       -9.229341   -1.766095   -1.979204
     54          6           0      -10.330678   -0.954125   -1.217572
     55          6           0      -11.686276   -1.495002   -1.633717
     56          6           0      -10.241833    0.554448   -1.661561
     57          6           0      -10.603016    1.443888   -0.393284
     58          6           0       -9.363803    2.133269    0.250886
     59          6           0       -9.900827    3.460017    0.929008
     60          6           0       -8.760587    4.439588    1.048669
     61          6           0      -10.690346    3.267482    2.288214
     62          6           0      -12.164046    3.742437    2.304099
     63          6           0      -13.130994    2.705165    3.051753
     64          6           0      -14.022600    1.822539    2.121845
     65          6           0      -15.547004    2.392067    2.152367
     66          6           0      -13.804816    0.411536    2.506816
     67          1           0        2.222850    2.078681   -2.731486
     68          1           0        7.813007    4.416913   -0.826642
     69          1           0        9.039427   -0.859614    2.530641
     70          1           0        1.593433   -2.590365   -1.208467
     71          1           0        0.680773    0.029528   -1.682885
     72          1           0        2.512064   -0.832419   -3.749715
     73          1           0        0.836207   -0.476934   -3.896206
     74          1           0        1.242722   -2.074627   -3.333796
     75          1           0        0.040554   -0.602320    0.267760
     76          1           0        1.309567   -1.198181    1.290605
     77          1           0       -0.588811   -2.503509    1.649914
     78          1           0        0.531578   -3.640519    0.776482
     79          1           0        1.897934    5.026916   -2.637177
     80          1           0        2.364840    3.882323   -3.834064
     81          1           0        3.219426    5.220512   -3.871486
     82          1           0        4.747736    8.157765   -1.883974
     83          1           0        3.580289    6.766502   -1.709033
     84          1           0        4.393098    7.264993   -3.277764
     85          1           0        9.261339    3.894332    1.070045
     86          1           0       10.348677    1.169764    1.800068
     87          1           0        9.834871    3.042626   -1.283147
     88          1           0       11.060990    2.065914   -0.319738
     89          1           0       11.019984    3.785377   -0.286810
     90          1           0       10.359614    2.224356    3.708407
     91          1           0        8.997108    1.210638    3.697620
     92          1           0        7.963714    3.119068    4.702055
     93          1           0        7.736239    3.641572    3.028659
     94          1           0        9.169631    4.113786    4.047745
     95          1           0        8.912988   -3.036607    3.011432
     96          1           0        8.385374   -4.417221    2.083479
     97          1           0        7.673828   -4.246437    3.663277
     98          1           0        2.704555   -3.861971    1.418203
     99          1           0        2.482800   -7.169385   -1.126550
    100          1           0        1.043371   -6.179183   -1.384295
    101          1           0        1.129025   -7.410268   -0.049987
    102          1           0       -3.193305   -4.493549   -1.120206
    103          1           0       -3.029014   -2.925627   -2.038446
    104          1           0       -4.679122   -2.401689    0.264702
    105          1           0       -6.863680   -4.412490   -2.306613
    106          1           0       -5.133178   -4.513288   -2.749422
    107          1           0       -6.005557   -3.160009   -3.423515
    108          1           0       -6.814056   -2.096970    0.334497
    109          1           0       -7.814517   -3.292665   -0.318977
    110          1           0       -7.044902   -1.208476   -2.234137
    111          1           0       -7.799447   -0.637497   -0.713117
    112          1           0       -9.331657   -2.836879   -1.805111
    113          1           0       -9.151390   -1.618574   -3.057030
    114          1           0      -10.155102   -1.027773   -0.144069
    115          1           0      -12.393830   -0.778784   -2.051443
    116          1           0      -12.094240   -1.739533   -0.653020
    117          1           0      -11.536541   -2.354003   -2.287993
    118          1           0      -10.946300    0.774440   -2.463422
    119          1           0       -9.220319    0.689732   -2.016475
    120          1           0      -11.071708    0.805104    0.356488
    121          1           0      -11.387529    2.142454   -0.683101
    122          1           0       -8.699463    2.446966   -0.554068
    123          1           0       -8.792821    1.586564    1.002018
    124          1           0      -10.503585    3.970892    0.178581
    125          1           0       -8.727024    4.885104    0.054152
    126          1           0       -7.834456    3.958666    1.362983
    127          1           0       -9.093520    5.235268    1.715545
    128          1           0      -10.153297    3.777633    3.087352
    129          1           0      -10.838661    2.226782    2.574864
    130          1           0      -12.498086    3.842104    1.271564
    131          1           0      -12.202123    4.760960    2.691122
    132          1           0      -13.759760    3.383370    3.627061
    133          1           0      -12.469130    2.145324    3.713825
    134          1           0      -13.696702    2.070297    1.111137
    135          1           0      -16.206757    1.792568    2.780667
    136          1           0      -15.879608    2.470264    1.117593
    137          1           0      -15.534665    3.401045    2.565005
    138          1           0      -13.504452    0.228294    3.538421
    139          1           0      -13.036739   -0.090904    1.919293
    140          1           0      -14.740946   -0.132191    2.387211
 ---------------------------------------------------------------------

 SCF Done:  E(RwB97XD) =  -3007.85361255     A.U. after   19 cycles

 Excitation energies and oscillator strengths:

 Excited State   1:      Singlet-A      1.5866 eV  781.44 nm  f=0.3926  <S**2>=0.000
     245 -> 248        0.17688
     246 -> 247        0.68606
     245 <- 248        0.11745
 This state for optimization and/or second-order correction.
 Total Energy, E(TD-HF/TD-DFT) =  -3007.79530529
 Copying the excited state density for this state as the 1-particle RhoCI density.

 Excited State   2:      Singlet-A      2.1565 eV  574.92 nm  f=0.1329  <S**2>=0.000
     245 -> 247        0.64129
     246 -> 248       -0.27734

 Excited State   3:      Singlet-A      3.2075 eV  386.55 nm  f=0.0025  <S**2>=0.000
     243 -> 247       -0.34590
     244 -> 247        0.58267
     246 -> 248       -0.11556

 Excited State   4:      Singlet-A      3.3835 eV  366.44 nm  f=0.0052  <S**2>=0.000
     240 -> 249        0.15372
     241 -> 247       -0.34054
     241 -> 249        0.15959
     241 -> 250       -0.13208
     243 -> 247        0.43236
     244 -> 247        0.28859

 Excited State   5:      Singlet-A      3.4129 eV  363.28 nm  f=0.0172  <S**2>=0.000
     239 -> 247        0.11992
     240 -> 247        0.22129
     240 -> 250        0.11647
     241 -> 247        0.32983
     241 -> 248        0.11507
     241 -> 249       -0.26230
     241 -> 250        0.11723
     243 -> 247        0.31400
     244 -> 247        0.19031
     246 -> 248        0.20613

 The electronic state is 1-A.
 Alpha  occ. eigenvalues --  -46.94123 -19.32121 -19.29316 -19.24998 -19.23916
 Alpha  occ. eigenvalues --  -19.23529 -19.23425 -14.46692 -14.46512 -14.43791
 Alpha  occ. eigenvalues --  -14.43786 -10.43853 -10.42889 -10.39359 -10.38248
 Alpha  occ. eigenvalues --  -10.37084 -10.35290 -10.35145 -10.34884 -10.34620
 Alpha  occ. eigenvalues --  -10.34409 -10.34227 -10.33814 -10.33485 -10.33326
 Alpha  occ. eigenvalues --  -10.32756 -10.32712 -10.32249 -10.32195 -10.32135
 Alpha  occ. eigenvalues --  -10.31932 -10.31876 -10.31579 -10.31451 -10.31443
 Alpha  occ. eigenvalues --  -10.31325 -10.31095 -10.31046 -10.30993 -10.30921
 Alpha  occ. eigenvalues --  -10.30293 -10.30210 -10.30122 -10.30057 -10.29974
 Alpha  occ. eigenvalues --  -10.29897 -10.29840 -10.29705 -10.29656 -10.29446
 Alpha  occ. eigenvalues --  -10.29442 -10.29385 -10.29377 -10.29348 -10.29249
 Alpha  occ. eigenvalues --  -10.29041 -10.29013 -10.28954 -10.28886 -10.28803
 Alpha  occ. eigenvalues --  -10.28742 -10.28739 -10.28363 -10.28361 -10.28277
 Alpha  occ. eigenvalues --  -10.27977  -3.20252  -1.93857  -1.93364  -1.93253
 Alpha  occ. eigenvalues --   -1.21594  -1.17768  -1.12256  -1.09949  -1.09439
 Alpha  occ. eigenvalues --   -1.08112  -1.06836  -1.05999  -1.05346  -1.03758
 Alpha  occ. eigenvalues --   -0.94765  -0.93103  -0.91577  -0.91202  -0.91099
 Alpha  occ. eigenvalues --   -0.90576  -0.90392  -0.89459  -0.89332  -0.88442
 Alpha  occ. eigenvalues --   -0.88156  -0.87723  -0.86410  -0.85712  -0.84974
 Alpha  occ. eigenvalues --   -0.84576  -0.83667  -0.83261  -0.83027  -0.82366
 Alpha  occ. eigenvalues --   -0.82103  -0.79993  -0.79504  -0.79185  -0.78514
 Alpha  occ. eigenvalues --   -0.77955  -0.77880  -0.77084  -0.76289  -0.75682
 Alpha  occ. eigenvalues --   -0.75476  -0.74629  -0.73467  -0.72365  -0.71887
 Alpha  occ. eigenvalues --   -0.70299  -0.69489  -0.69159  -0.68546  -0.68008
 Alpha  occ. eigenvalues --   -0.67172  -0.66825  -0.66603  -0.66387  -0.65605
 Alpha  occ. eigenvalues --   -0.65527  -0.65442  -0.64552  -0.63769  -0.62292
 Alpha  occ. eigenvalues --   -0.61699  -0.61586  -0.60976  -0.60671  -0.59986
 Alpha  occ. eigenvalues --   -0.59588  -0.59254  -0.58240  -0.58094  -0.57747
 Alpha  occ. eigenvalues --   -0.57311  -0.56891  -0.56438  -0.56091  -0.55985
 Alpha  occ. eigenvalues --   -0.55851  -0.55567  -0.55226  -0.55090  -0.54874
 Alpha  occ. eigenvalues --   -0.54229  -0.54101  -0.53822  -0.53676  -0.53515
 Alpha  occ. eigenvalues --   -0.53432  -0.53331  -0.52891  -0.52801  -0.52659
 Alpha  occ. eigenvalues --   -0.52420  -0.52185  -0.51759  -0.51731  -0.51487
 Alpha  occ. eigenvalues --   -0.51240  -0.51188  -0.51128  -0.50933  -0.50725
 Alpha  occ. eigenvalues --   -0.50528  -0.50407  -0.50164  -0.49901  -0.49531
 Alpha  occ. eigenvalues --   -0.49445  -0.49291  -0.49057  -0.48861  -0.48774
 Alpha  occ. eigenvalues --   -0.48613  -0.48475  -0.48179  -0.48096  -0.47938
 Alpha  occ. eigenvalues --   -0.47828  -0.47472  -0.47161  -0.47126  -0.47019
 Alpha  occ. eigenvalues --   -0.46597  -0.46489  -0.46200  -0.45905  -0.45708
 Alpha  occ. eigenvalues --   -0.45527  -0.45498  -0.45407  -0.44966  -0.44652
 Alpha  occ. eigenvalues --   -0.44515  -0.44257  -0.44207  -0.44127  -0.43636
 Alpha  occ. eigenvalues --   -0.43487  -0.43407  -0.43098  -0.42970  -0.42658
 Alpha  occ. eigenvalues --   -0.42609  -0.42286  -0.42240  -0.41931  -0.41830
 Alpha  occ. eigenvalues --   -0.41726  -0.41430  -0.41041  -0.40969  -0.40705
 Alpha  occ. eigenvalues --   -0.40606  -0.40162  -0.39877  -0.39806  -0.39591
 Alpha  occ. eigenvalues --   -0.39352  -0.39151  -0.38840  -0.38431  -0.38152
 Alpha  occ. eigenvalues --   -0.37767  -0.37487  -0.36765  -0.36221  -0.35951
 Alpha  occ. eigenvalues --   -0.35543  -0.35435  -0.34961  -0.33485  -0.32572
 Alpha  occ. eigenvalues --   -0.32397  -0.32208  -0.31671  -0.31532  -0.26085
 Alpha  occ. eigenvalues --   -0.22869
 Alpha virt. eigenvalues --   -0.07381   0.00367   0.02231   0.04237   0.06520
 Alpha virt. eigenvalues --    0.06992   0.07521   0.07659   0.07993   0.09065
 Alpha virt. eigenvalues --    0.10507   0.10934   0.11363   0.11937   0.12362

 Mulliken charges:
               1
     1  Mg   0.983595
     2  C    0.009542
     3  C   -0.075423
     4  C   -0.099347
     5  C   -0.093022
     6  N   -0.327003
     7  C    0.006964
     8  C   -0.106147
     9  C   -0.097971
    10  C    0.048107
    11  C    0.047984
    12  C    0.029383
    13  C   -0.001059
    14  C    0.194291
    15  O   -0.306401
    16  O   -0.305890
    17  N   -0.423654
    18  C    0.171867
    19  C   -0.152710
    20  C   -0.081929
    21  C    0.110465
    22  C    0.037457
    23  C    0.062850
    24  O   -0.274643
    25  C   -0.021169
    26  N   -0.380732
    27  C    0.122571
    28  C   -0.084272
    29  C   -0.057624
    30  C    0.076607
    31  C    0.029600
    32  C   -0.010459
    33  C   -0.034442
    34  N   -0.495167
    35  C    0.118573
    36  C   -0.172725
    37  C   -0.053643
    38  C    0.160115
    39  C    0.096692
    40  C    0.078365
    41  O   -0.189868
    42  C   -0.102007
    43  C    0.287286
    44  O   -0.266593
    45  O   -0.366581
    46  C    0.139975
    47  C    0.260439
    48  C   -0.155903
    49  C   -0.228489
    50  C    0.043426
    51  C    0.034571
    52  C   -0.074743
    53  C    0.003709
    54  C   -0.224774
    55  C    0.036451
    56  C    0.020804
    57  C   -0.038606
    58  C    0.004548
    59  C   -0.207140
    60  C    0.015380
    61  C    0.022971
    62  C   -0.062457
    63  C   -0.020174
    64  C   -0.190979
    65  C   -0.016008
    66  C    0.011548
    67  H    0.002591
    68  H    0.024243
    69  H    0.011739
    70  H    0.043655
    71  H    0.023355
    72  H    0.036288
    73  H    0.022182
    74  H    0.064304
    75  H    0.037711
    76  H    0.041059
    77  H    0.052970
    78  H    0.063537
    79  H    0.070007
    80  H    0.034080
    81  H    0.039769
    82  H    0.052320
    83  H    0.057864
    84  H    0.063233
    85  H    0.039818
    86  H    0.024358
    87  H    0.036368
    88  H    0.036818
    89  H    0.033080
    90  H    0.023096
    91  H    0.008258
    92  H    0.033819
    93  H    0.050987
    94  H    0.034514
    95  H    0.024773
    96  H    0.058904
    97  H    0.062278
    98  H    0.079523
    99  H    0.048685
   100  H    0.068698
   101  H    0.056755
   102  H    0.066890
   103  H    0.059122
   104  H    0.025662
   105  H    0.045581
   106  H    0.033412
   107  H    0.059916
   108  H    0.008718
   109  H    0.026871
   110  H    0.027333
   111  H    0.029769
   112  H    0.015514
   113  H    0.027947
   114  H    0.024922
   115  H    0.029996
   116  H    0.024343
   117  H    0.036671
   118  H    0.021733
   119  H    0.020902
   120  H    0.019125
   121  H    0.021577
   122  H    0.016738
   123  H    0.030999
   124  H    0.016240
   125  H    0.023071
   126  H    0.033910
   127  H    0.020144
   128  H    0.022590
   129  H    0.007967
   130  H    0.008081
   131  H    0.020617
   132  H    0.018039
   133  H    0.023268
   134  H    0.025166
   135  H    0.036660
   136  H    0.035887
   137  H    0.026587
   138  H    0.029615
   139  H    0.030677
   140  H    0.019718
 Sum of Mulliken charges =  -0.00000

 Dipole moment (field-independent basis, Debye):
    X=             -5.9771    Y=              2.7522    Z=              0.1372  Tot=              6.5817
 Quadrupole moment (field-independent basis, Debye-Ang):
   XX=           -373.3509   YY=           -431.2029   ZZ=           -397.7923
   XY=              9.9505   XZ=             18.3319   YZ=             -5.8622

 Normal termination of Gaussian 16 at Tue May  3 22:12:37 2022.
