 Gaussian 16, Revision A.03,
 Gaussian 16:  ES64L-G16RevA.03 25-Dec-2016

 --------------------
 #p ZINDO=(nstates=5)
 --------------------

 ------------------------------
 step_1051_chromophore_10 ZINDO
 ------------------------------
 Symbolic Z-matrix:
 Charge =  0 Multiplicity = 1

                         Standard orientation:
 ---------------------------------------------------------------------
 Center     Atomic      Atomic             Coordinates (Angstroms)
 Number     Number       Type             X           Y           Z
 ---------------------------------------------------------------------
      1         12           0        5.577104    0.555990    0.037996
      2          6           0        3.944893   -2.417358    0.310362
      3          6           0        3.087127    1.660942   -2.212316
      4          6           0        7.270980    3.514907   -0.536124
      5          6           0        8.144085   -0.492874    2.024996
      6          7           0        3.611073   -0.212421   -0.689997
      7          6           0        3.224820   -1.460853   -0.432853
      8          6           0        1.751228   -1.582367   -0.824390
      9          6           0        1.602487   -0.506726   -1.909200
     10          6           0        2.839444    0.377018   -1.639341
     11          6           0        1.547023   -1.030168   -3.282146
     12          6           0        0.711561   -1.448537    0.414120
     13          6           0       -0.067842   -2.732419    0.719580
     14          6           0       -1.021831   -3.161513   -0.446406
     15          8           0       -0.640155   -3.774140   -1.464332
     16          8           0       -2.262361   -2.848846   -0.184316
     17          7           0        5.143510    2.399277   -1.083442
     18          6           0        4.048240    2.601293   -1.860120
     19          6           0        3.938854    3.971505   -2.255135
     20          6           0        5.141509    4.617242   -1.756364
     21          6           0        5.988743    3.518734   -1.155456
     22          6           0        2.775799    4.582851   -3.106565
     23          6           0        5.492285    6.099483   -1.708294
     24          8           0        6.554337    6.514269   -1.156690
     25          6           0        4.476150    7.149675   -2.197273
     26          7           0        7.359970    1.400070    0.585654
     27          6           0        7.851227    2.604782    0.233601
     28          6           0        9.279362    2.857527    0.733793
     29          6           0        9.422161    1.741355    1.856851
     30          6           0        8.215251    0.831474    1.495123
     31          6           0       10.372202    2.910658   -0.343695
     32          6           0        9.361237    2.147836    3.277952
     33          6           0        8.476918    3.321849    3.761364
     34          7           0        6.037753   -1.117520    0.971791
     35          6           0        7.144066   -1.485724    1.713533
     36          6           0        7.008223   -2.889068    2.144706
     37          6           0        5.686634   -3.249202    1.645702
     38          6           0        5.217541   -2.161662    0.894184
     39          6           0        8.054727   -3.678975    2.813933
     40          6           0        4.735011   -4.318347    1.588613
     41          8           0        4.843396   -5.445722    2.016272
     42          6           0        3.546647   -3.809293    0.728151
     43          6           0        3.242309   -4.819169   -0.348352
     44          8           0        3.584988   -4.893162   -1.542267
     45          8           0        2.337018   -5.661206    0.204141
     46          6           0        1.664100   -6.654051   -0.623692
     47          6           0       -3.258034   -3.406084   -1.086224
     48          6           0       -4.636030   -3.038382   -0.620050
     49          6           0       -5.840091   -3.137716   -1.242460
     50          6           0       -5.974209   -3.841736   -2.573482
     51          6           0       -7.059311   -2.565408   -0.618412
     52          6           0       -7.764793   -1.440750   -1.448790
     53          6           0       -9.229341   -1.766095   -1.979204
     54          6           0      -10.330678   -0.954125   -1.217572
     55          6           0      -11.686276   -1.495002   -1.633717
     56          6           0      -10.241833    0.554448   -1.661561
     57          6           0      -10.603016    1.443888   -0.393284
     58          6           0       -9.363803    2.133269    0.250886
     59          6           0       -9.900827    3.460017    0.929008
     60          6           0       -8.760587    4.439588    1.048669
     61          6           0      -10.690346    3.267482    2.288214
     62          6           0      -12.164046    3.742437    2.304099
     63          6           0      -13.130994    2.705165    3.051753
     64          6           0      -14.022600    1.822539    2.121845
     65          6           0      -15.547004    2.392067    2.152367
     66          6           0      -13.804816    0.411536    2.506816
     67          1           0        2.222850    2.078681   -2.731486
     68          1           0        7.813007    4.416913   -0.826642
     69          1           0        9.039427   -0.859614    2.530641
     70          1           0        1.593433   -2.590365   -1.208467
     71          1           0        0.680773    0.029528   -1.682885
     72          1           0        2.512064   -0.832419   -3.749715
     73          1           0        0.836207   -0.476934   -3.896206
     74          1           0        1.242722   -2.074627   -3.333796
     75          1           0        0.040554   -0.602320    0.267760
     76          1           0        1.309567   -1.198181    1.290605
     77          1           0       -0.588811   -2.503509    1.649914
     78          1           0        0.531578   -3.640519    0.776482
     79          1           0        1.897934    5.026916   -2.637177
     80          1           0        2.364840    3.882323   -3.834064
     81          1           0        3.219426    5.220512   -3.871486
     82          1           0        4.747736    8.157765   -1.883974
     83          1           0        3.580289    6.766502   -1.709033
     84          1           0        4.393098    7.264993   -3.277764
     85          1           0        9.261339    3.894332    1.070045
     86          1           0       10.348677    1.169764    1.800068
     87          1           0        9.834871    3.042626   -1.283147
     88          1           0       11.060990    2.065914   -0.319738
     89          1           0       11.019984    3.785377   -0.286810
     90          1           0       10.359614    2.224356    3.708407
     91          1           0        8.997108    1.210638    3.697620
     92          1           0        7.963714    3.119068    4.702055
     93          1           0        7.736239    3.641572    3.028659
     94          1           0        9.169631    4.113786    4.047745
     95          1           0        8.912988   -3.036607    3.011432
     96          1           0        8.385374   -4.417221    2.083479
     97          1           0        7.673828   -4.246437    3.663277
     98          1           0        2.704555   -3.861971    1.418203
     99          1           0        2.482800   -7.169385   -1.126550
    100          1           0        1.043371   -6.179183   -1.384295
    101          1           0        1.129025   -7.410268   -0.049987
    102          1           0       -3.193305   -4.493549   -1.120206
    103          1           0       -3.029014   -2.925627   -2.038446
    104          1           0       -4.679122   -2.401689    0.264702
    105          1           0       -6.863680   -4.412490   -2.306613
    106          1           0       -5.133178   -4.513288   -2.749422
    107          1           0       -6.005557   -3.160009   -3.423515
    108          1           0       -6.814056   -2.096970    0.334497
    109          1           0       -7.814517   -3.292665   -0.318977
    110          1           0       -7.044902   -1.208476   -2.234137
    111          1           0       -7.799447   -0.637497   -0.713117
    112          1           0       -9.331657   -2.836879   -1.805111
    113          1           0       -9.151390   -1.618574   -3.057030
    114          1           0      -10.155102   -1.027773   -0.144069
    115          1           0      -12.393830   -0.778784   -2.051443
    116          1           0      -12.094240   -1.739533   -0.653020
    117          1           0      -11.536541   -2.354003   -2.287993
    118          1           0      -10.946300    0.774440   -2.463422
    119          1           0       -9.220319    0.689732   -2.016475
    120          1           0      -11.071708    0.805104    0.356488
    121          1           0      -11.387529    2.142454   -0.683101
    122          1           0       -8.699463    2.446966   -0.554068
    123          1           0       -8.792821    1.586564    1.002018
    124          1           0      -10.503585    3.970892    0.178581
    125          1           0       -8.727024    4.885104    0.054152
    126          1           0       -7.834456    3.958666    1.362983
    127          1           0       -9.093520    5.235268    1.715545
    128          1           0      -10.153297    3.777633    3.087352
    129          1           0      -10.838661    2.226782    2.574864
    130          1           0      -12.498086    3.842104    1.271564
    131          1           0      -12.202123    4.760960    2.691122
    132          1           0      -13.759760    3.383370    3.627061
    133          1           0      -12.469130    2.145324    3.713825
    134          1           0      -13.696702    2.070297    1.111137
    135          1           0      -16.206757    1.792568    2.780667
    136          1           0      -15.879608    2.470264    1.117593
    137          1           0      -15.534665    3.401045    2.565005
    138          1           0      -13.504452    0.228294    3.538421
    139          1           0      -13.036739   -0.090904    1.919293
    140          1           0      -14.740946   -0.132191    2.387211
 ---------------------------------------------------------------------

 SCF Done:  E(RZINDO/S) =  -474.279312703     A.U. after   19 cycles

 Excitation energies and oscillator strengths:

 Excited State   1:      Singlet-A      1.1980 eV 1034.95 nm  f=0.6395  <S**2>=0.000
     175 ->178        -0.18468
     176 ->177         0.66413
 This state for optimization and/or second-order correction.
 Total Energy, E(CIS/TDA) =  -474.235287945
 Copying the excited state density for this state as the 1-particle RhoCI density.

 Excited State   2:      Singlet-A      1.9278 eV  643.14 nm  f=0.0508  <S**2>=0.000
     175 ->177         0.54525
     176 ->178         0.42416

 Excited State   3:      Singlet-A      2.9350 eV  422.43 nm  f=0.0162  <S**2>=0.000
     168 ->177         0.29843
     168 ->178         0.13088
     168 ->179        -0.39848
     168 ->180        -0.25733
     168 ->186        -0.20155
     168 ->187        -0.12279
     176 ->179         0.15967

 Excited State   4:      Singlet-A      2.9707 eV  417.35 nm  f=0.0079  <S**2>=0.000
     170 ->177        -0.15164
     170 ->179        -0.14590
     170 ->180         0.19177
     171 ->177         0.10599
     172 ->177         0.13087
     174 ->177        -0.17915
     176 ->179         0.49116

 Excited State   5:      Singlet-A      2.9858 eV  415.24 nm  f=0.3252  <S**2>=0.000
     169 ->177         0.14736
     169 ->179         0.12551
     169 ->180        -0.16473
     170 ->177         0.17368
     170 ->179         0.16685
     170 ->180        -0.17255
     170 ->186         0.10373
     175 ->177        -0.20943
     176 ->178         0.27598
     176 ->179         0.35133

 The electronic state is 1-A.
 Alpha  occ. eigenvalues --   -1.84870  -1.81992  -1.79864  -1.76222  -1.72703
 Alpha  occ. eigenvalues --   -1.70529  -1.65156  -1.60725  -1.59051  -1.54973
 Alpha  occ. eigenvalues --   -1.54807  -1.52217  -1.49357  -1.47857  -1.47368
 Alpha  occ. eigenvalues --   -1.42825  -1.41595  -1.40370  -1.38714  -1.36992
 Alpha  occ. eigenvalues --   -1.36590  -1.33992  -1.33595  -1.31804  -1.29062
 Alpha  occ. eigenvalues --   -1.28832  -1.24937  -1.21737  -1.20377  -1.18866
 Alpha  occ. eigenvalues --   -1.17794  -1.17603  -1.16492  -1.15100  -1.13607
 Alpha  occ. eigenvalues --   -1.11349  -1.10037  -1.09495  -1.05286  -1.03164
 Alpha  occ. eigenvalues --   -1.02575  -1.01669  -0.98819  -0.97289  -0.96067
 Alpha  occ. eigenvalues --   -0.95244  -0.93940  -0.93220  -0.92033  -0.91929
 Alpha  occ. eigenvalues --   -0.91152  -0.90779  -0.89903  -0.87536  -0.86786
 Alpha  occ. eigenvalues --   -0.85246  -0.84393  -0.82768  -0.82114  -0.80379
 Alpha  occ. eigenvalues --   -0.79886  -0.78753  -0.77363  -0.76366  -0.76166
 Alpha  occ. eigenvalues --   -0.75730  -0.75098  -0.74535  -0.74360  -0.73517
 Alpha  occ. eigenvalues --   -0.72255  -0.72027  -0.71651  -0.70697  -0.70476
 Alpha  occ. eigenvalues --   -0.70192  -0.69796  -0.69123  -0.68350  -0.67954
 Alpha  occ. eigenvalues --   -0.67413  -0.66561  -0.66260  -0.66241  -0.65607
 Alpha  occ. eigenvalues --   -0.65421  -0.65163  -0.64631  -0.64121  -0.63606
 Alpha  occ. eigenvalues --   -0.63216  -0.62869  -0.62451  -0.62389  -0.62187
 Alpha  occ. eigenvalues --   -0.62077  -0.61636  -0.61539  -0.60676  -0.60251
 Alpha  occ. eigenvalues --   -0.60171  -0.59976  -0.59418  -0.59129  -0.58476
 Alpha  occ. eigenvalues --   -0.58061  -0.57286  -0.57053  -0.56838  -0.56517
 Alpha  occ. eigenvalues --   -0.56077  -0.55412  -0.55251  -0.54799  -0.54439
 Alpha  occ. eigenvalues --   -0.53724  -0.53480  -0.53429  -0.53111  -0.52712
 Alpha  occ. eigenvalues --   -0.52236  -0.51956  -0.51917  -0.51775  -0.51309
 Alpha  occ. eigenvalues --   -0.51121  -0.50674  -0.50334  -0.50040  -0.49941
 Alpha  occ. eigenvalues --   -0.49476  -0.49403  -0.49136  -0.49006  -0.48951
 Alpha  occ. eigenvalues --   -0.48501  -0.48080  -0.47940  -0.47735  -0.47705
 Alpha  occ. eigenvalues --   -0.47315  -0.47153  -0.46821  -0.46594  -0.46441
 Alpha  occ. eigenvalues --   -0.46340  -0.46320  -0.45730  -0.45552  -0.45244
 Alpha  occ. eigenvalues --   -0.45123  -0.44973  -0.44294  -0.44147  -0.44117
 Alpha  occ. eigenvalues --   -0.43718  -0.43275  -0.43271  -0.41957  -0.41805
 Alpha  occ. eigenvalues --   -0.41661  -0.41327  -0.40567  -0.38821  -0.38434
 Alpha  occ. eigenvalues --   -0.37989  -0.36807  -0.35664  -0.34582  -0.34372
 Alpha  occ. eigenvalues --   -0.32684  -0.32522  -0.32039  -0.31734  -0.26751
 Alpha  occ. eigenvalues --   -0.21592
 Alpha virt. eigenvalues --   -0.08785  -0.01939  -0.00676   0.01222   0.01853
 Alpha virt. eigenvalues --    0.02701   0.02945   0.03541   0.04497   0.04937
 Alpha virt. eigenvalues --    0.06049   0.06602   0.06740   0.07822   0.08100

 Mulliken charges:
               1
     1  Mg   0.421831
     2  C   -0.052027
     3  C   -0.088365
     4  C   -0.052400
     5  C   -0.078488
     6  N   -0.270762
     7  C    0.127003
     8  C   -0.005269
     9  C    0.020027
    10  C    0.146124
    11  C   -0.042295
    12  C   -0.021613
    13  C    0.003134
    14  C    0.467162
    15  O   -0.549082
    16  O   -0.247518
    17  N   -0.343507
    18  C    0.141282
    19  C    0.005814
    20  C   -0.042061
    21  C    0.133073
    22  C   -0.050991
    23  C    0.320744
    24  O   -0.538727
    25  C   -0.031194
    26  N   -0.264157
    27  C    0.159721
    28  C   -0.003666
    29  C    0.012503
    30  C    0.116179
    31  C   -0.050950
    32  C   -0.025136
    33  C   -0.055287
    34  N   -0.311188
    35  C    0.075465
    36  C    0.026943
    37  C   -0.073213
    38  C    0.118697
    39  C   -0.030665
    40  C    0.334304
    41  O   -0.525304
    42  C    0.062985
    43  C    0.492543
    44  O   -0.527775
    45  O   -0.268031
    46  C    0.073141
    47  C    0.114049
    48  C   -0.107496
    49  C   -0.000964
    50  C   -0.051383
    51  C   -0.020458
    52  C   -0.050950
    53  C   -0.039378
    54  C   -0.010467
    55  C   -0.060967
    56  C   -0.045705
    57  C   -0.040684
    58  C   -0.034321
    59  C   -0.023561
    60  C   -0.060066
    61  C   -0.040324
    62  C   -0.048801
    63  C   -0.044231
    64  C   -0.007485
    65  C   -0.063825
    66  C   -0.043804
    67  H    0.023989
    68  H    0.039446
    69  H    0.029008
    70  H    0.038195
    71  H    0.024795
    72  H    0.023422
    73  H    0.010042
    74  H    0.037093
    75  H    0.029093
    76  H    0.019546
    77  H    0.034478
    78  H    0.051318
    79  H    0.043593
    80  H    0.019429
    81  H    0.022343
    82  H    0.037697
    83  H    0.037488
    84  H    0.042257
    85  H    0.032408
    86  H    0.028260
    87  H    0.025466
    88  H    0.023902
    89  H    0.018360
    90  H    0.014741
    91  H    0.013261
    92  H    0.017760
    93  H    0.030814
    94  H    0.017801
    95  H    0.024768
    96  H    0.035837
    97  H    0.041472
    98  H    0.058068
    99  H    0.040140
   100  H    0.050669
   101  H    0.037692
   102  H    0.057312
   103  H    0.052746
   104  H    0.022119
   105  H    0.032893
   106  H    0.021007
   107  H    0.040157
   108  H    0.010870
   109  H    0.024851
   110  H    0.022991
   111  H    0.019219
   112  H    0.014870
   113  H    0.024896
   114  H    0.032737
   115  H    0.023544
   116  H    0.012925
   117  H    0.026289
   118  H    0.023561
   119  H    0.022102
   120  H    0.018155
   121  H    0.021880
   122  H    0.017613
   123  H    0.031092
   124  H    0.019310
   125  H    0.014799
   126  H    0.025192
   127  H    0.013865
   128  H    0.020284
   129  H    0.020253
   130  H    0.014170
   131  H    0.017770
   132  H    0.015998
   133  H    0.025042
   134  H    0.024434
   135  H    0.025870
   136  H    0.020552
   137  H    0.019960
   138  H    0.019578
   139  H    0.016848
   140  H    0.009414
 Sum of Mulliken charges =  -0.00000

 Dipole moment (field-independent basis, Debye):
    X=             -7.2711    Y=              4.9638    Z=              0.1424  Tot=              8.8050
 N-N= 4.291311214708D+03 E-N= 0.000000000000D+00  KE=-9.257167224879D+03
 Leave Link  601 at Tue May  3 22:25:39 2022, MaxMem=  6710886400 cpu:               0.8 elap:               0.0
 (Enter /sw/apps/gaussian-16.0/g16/l9999.exe)
 1\1\GINC-BP1-COMPUTE121\SP\RZINDO CIS\STO-3G\C55H74Mg1N4O6\OF15641\03-
 May-2022\0\\#p ZINDO=(nstates=5)\\step_1051_chromophore_10 ZINDO\\0,1\
 Mg,0,41.106,8.239,29.65\C,0,43.028,9.571,32.122\C,0,39.175,6.59,32.107
 \C,0,39.245,6.61,27.234\C,0,43.039,9.608,27.195\N,0,40.977,8.264,31.87
 9\C,0,41.906,8.874,32.613\C,0,41.392,8.942,34.052\C,0,40.439,7.741,34.
 125\C,0,40.175,7.465,32.629\C,0,40.978,6.579,34.847\C,0,40.728,10.364,
 34.464\C,0,41.512,11.136,35.531\C,0,41.556,10.398,36.912\O,0,42.343,9.

 Normal termination of Gaussian 16 at Tue May  3 22:25:39 2022.
