 Gaussian 16, Revision A.03,
 Gaussian 16:  ES64L-G16RevA.03 25-Dec-2016

 ------------------------------
 #p blyp/Def2SVP td=(nstates=5)
 ------------------------------

 ------------------------------------------------
 step_51_chromophore_4 TDDFT with blyp functional
 ------------------------------------------------
 Symbolic Z-matrix:
 Charge =  0 Multiplicity = 1

                         Standard orientation:
 ---------------------------------------------------------------------
 Center     Atomic      Atomic             Coordinates (Angstroms)
 Number     Number       Type             X           Y           Z
 ---------------------------------------------------------------------
      1         12           0        5.678240    0.692527    0.342782
      2          6           0        3.577677   -2.236197    0.025829
      3          6           0        3.123285    2.610907   -0.655101
      4          6           0        7.928174    3.180240    0.176991
      5          6           0        8.414697   -1.731489    0.460591
      6          7           0        3.626304    0.260221   -0.281516
      7          6           0        2.960641   -0.967279   -0.074780
      8          6           0        1.415471   -0.717608   -0.329812
      9          6           0        1.332496    0.817326   -0.768592
     10          6           0        2.817693    1.266150   -0.586987
     11          6           0        0.748045    1.129631   -2.140538
     12          6           0        0.574839   -1.010247    0.881245
     13          6           0       -0.899816   -0.552475    0.874911
     14          6           0       -2.036104   -1.505959    1.132210
     15          8           0       -2.713567   -1.566655    2.182951
     16          8           0       -2.137313   -2.471450    0.111202
     17          7           0        5.572725    2.657150   -0.130636
     18          6           0        4.422542    3.268742   -0.579789
     19          6           0        4.696368    4.658049   -0.815853
     20          6           0        6.096502    4.910247   -0.501009
     21          6           0        6.596741    3.560618   -0.146059
     22          6           0        3.616343    5.667604   -1.204597
     23          6           0        7.015536    6.141690   -0.642308
     24          8           0        8.175131    6.254794   -0.379531
     25          6           0        6.496552    7.522092   -0.989735
     26          7           0        7.873645    0.685846    0.250253
     27          6           0        8.541023    1.878966    0.270851
     28          6           0       10.100202    1.626995    0.306995
     29          6           0       10.217452    0.118155    0.561326
     30          6           0        8.775697   -0.357745    0.404792
     31          6           0       10.753419    1.934558   -1.077607
     32          6           0       10.746823   -0.166952    1.947437
     33          6           0       12.130025   -0.695769    2.005877
     34          7           0        5.971496   -1.473131    0.259459
     35          6           0        7.121170   -2.239958    0.391514
     36          6           0        6.830888   -3.638791    0.333618
     37          6           0        5.424122   -3.697927    0.252007
     38          6           0        4.938638   -2.352462    0.170727
     39          6           0        7.748389   -4.803440    0.487759
     40          6           0        4.253803   -4.591004    0.284669
     41          8           0        4.183707   -5.769796    0.402125
     42          6           0        3.021158   -3.661222    0.110203
     43          6           0        2.232085   -4.119059   -1.001174
     44          8           0        2.693445   -4.249134   -2.162687
     45          8           0        0.971200   -4.684382   -0.525427
     46          6           0        0.050301   -5.303796   -1.537088
     47          6           0       -3.307392   -3.281287    0.193300
     48          6           0       -4.610132   -2.529828    0.369464
     49          6           0       -5.859688   -3.098338    0.307291
     50          6           0       -6.141655   -4.564925    0.112994
     51          6           0       -7.045811   -2.136612    0.305247
     52          6           0       -7.349330   -1.552970   -1.105614
     53          6           0       -7.572164   -0.005160   -0.885179
     54          6           0       -9.040719    0.437859   -0.682766
     55          6           0       -9.793749    0.325156   -1.993449
     56          6           0       -9.342000    1.792329   -0.016445
     57          6           0       -9.902802    1.504556    1.380565
     58          6           0      -10.464484    2.911798    1.904593
     59          6           0      -11.954018    2.785195    2.231571
     60          6           0      -12.310686    3.699406    3.448502
     61          6           0      -12.844763    3.081607    0.907132
     62          6           0      -13.981166    2.096850    0.692550
     63          6           0      -14.297056    1.703352   -0.798718
     64          6           0      -14.210866    0.149377   -0.988550
     65          6           0      -13.617985   -0.206569   -2.397412
     66          6           0      -15.540328   -0.616246   -0.569247
     67          1           0        2.359865    3.325790   -0.971251
     68          1           0        8.686512    3.941610    0.371541
     69          1           0        9.220581   -2.460971    0.567016
     70          1           0        1.183671   -1.425542   -1.124828
     71          1           0        0.815043    1.519088   -0.114389
     72          1           0        1.464154    1.669803   -2.760806
     73          1           0       -0.096496    1.817301   -2.087569
     74          1           0        0.314373    0.272597   -2.656916
     75          1           0        1.063432   -0.612032    1.770234
     76          1           0        0.508281   -2.090955    1.010789
     77          1           0       -0.968049   -0.202873   -0.155656
     78          1           0       -1.053595    0.354315    1.461163
     79          1           0        2.988732    5.807836   -0.324105
     80          1           0        3.022252    5.428767   -2.085909
     81          1           0        4.070258    6.658786   -1.235464
     82          1           0        7.380193    8.112765   -1.228962
     83          1           0        5.973871    7.985147   -0.152901
     84          1           0        5.938296    7.389696   -1.915950
     85          1           0       10.570391    2.291567    1.032511
     86          1           0       10.805264   -0.268273   -0.270472
     87          1           0       10.329514    1.147808   -1.700970
     88          1           0       11.837573    1.824058   -1.066751
     89          1           0       10.509216    2.870420   -1.581621
     90          1           0       10.116429   -0.955230    2.358323
     91          1           0       10.805795    0.635023    2.683600
     92          1           0       12.073942   -1.715223    2.387639
     93          1           0       12.805149   -0.090954    2.611298
     94          1           0       12.509516   -0.702264    0.984114
     95          1           0        8.339014   -4.967554   -0.413389
     96          1           0        7.217289   -5.742200    0.650350
     97          1           0        8.551419   -4.697410    1.216950
     98          1           0        2.323951   -3.645101    0.948777
     99          1           0       -0.557818   -4.428411   -1.767362
    100          1           0       -0.522023   -6.102771   -1.065752
    101          1           0        0.479918   -5.644819   -2.478657
    102          1           0       -3.187027   -3.954363    1.042374
    103          1           0       -3.483863   -3.835086   -0.728682
    104          1           0       -4.477764   -1.448327    0.324498
    105          1           0       -6.616342   -4.736170   -0.853359
    106          1           0       -6.775978   -4.799154    0.968181
    107          1           0       -5.369641   -5.330316    0.178623
    108          1           0       -6.924546   -1.386142    1.085373
    109          1           0       -7.930190   -2.708313    0.584668
    110          1           0       -8.162944   -2.043850   -1.639424
    111          1           0       -6.426162   -1.640775   -1.678759
    112          1           0       -7.147683    0.543969   -1.725906
    113          1           0       -6.986682    0.327530   -0.028269
    114          1           0       -9.528991   -0.304526   -0.051096
    115          1           0       -9.198944   -0.052156   -2.824247
    116          1           0      -10.282986    1.237711   -2.334770
    117          1           0      -10.612086   -0.334741   -1.703781
    118          1           0       -9.914498    2.517051   -0.595116
    119          1           0       -8.416593    2.246584    0.338665
    120          1           0       -9.146157    1.120759    2.064581
    121          1           0      -10.694234    0.776292    1.208594
    122          1           0      -10.386133    3.809387    1.291212
    123          1           0      -10.006987    3.027962    2.887274
    124          1           0      -12.047921    1.774201    2.627655
    125          1           0      -13.361586    3.832511    3.706932
    126          1           0      -12.013944    4.743392    3.353255
    127          1           0      -11.919575    3.200700    4.334841
    128          1           0      -12.170702    3.042740    0.050755
    129          1           0      -13.290951    4.075153    0.893305
    130          1           0      -14.875826    2.595676    1.064411
    131          1           0      -13.993415    1.246303    1.374856
    132          1           0      -13.415603    2.099841   -1.302258
    133          1           0      -15.243804    2.163917   -1.079556
    134          1           0      -13.445223   -0.216041   -0.303987
    135          1           0      -14.302648    0.249296   -3.112728
    136          1           0      -13.541476   -1.253529   -2.692674
    137          1           0      -12.679453    0.315048   -2.586916
    138          1           0      -15.387469   -1.221510    0.324399
    139          1           0      -15.843067   -1.108916   -1.493638
    140          1           0      -16.262229    0.171299   -0.355364
 ---------------------------------------------------------------------

 SCF Done:  E(RB-LYP) =  -3007.33463000     A.U. after   21 cycles

 Excitation energies and oscillator strengths:

 Excited State   1:      Singlet-A      1.6934 eV  732.17 nm  f=0.0018  <S**2>=0.000
     244 -> 247        0.63925
     245 -> 247       -0.29992
 This state for optimization and/or second-order correction.
 Total Energy, E(TD-HF/TD-DFT) =  -3007.27239911
 Copying the excited state density for this state as the 1-particle RhoCI density.

 Excited State   2:      Singlet-A      1.8202 eV  681.15 nm  f=0.3101  <S**2>=0.000
     245 -> 248       -0.20204
     246 -> 247        0.68711
     246 <- 247       -0.14745

 Excited State   3:      Singlet-A      1.8540 eV  668.73 nm  f=0.0004  <S**2>=0.000
     243 -> 247        0.70679

 Excited State   4:      Singlet-A      2.0155 eV  615.14 nm  f=0.0690  <S**2>=0.000
     244 -> 247        0.28311
     245 -> 247        0.57759
     246 -> 248        0.25911

 Excited State   5:      Singlet-A      2.1207 eV  584.64 nm  f=0.0018  <S**2>=0.000
     242 -> 247        0.70137

 The electronic state is 1-A.
 Alpha  occ. eigenvalues --  -46.28041 -18.82578 -18.81566 -18.77481 -18.77048
 Alpha  occ. eigenvalues --  -18.76435 -18.75693 -14.03873 -14.03741 -14.01670
 Alpha  occ. eigenvalues --  -14.01002 -10.04943 -10.03977 -10.00166  -9.99994
 Alpha  occ. eigenvalues --   -9.97695  -9.97630  -9.97475  -9.97085  -9.96906
 Alpha  occ. eigenvalues --   -9.96815  -9.96492  -9.96145  -9.95420  -9.94808
 Alpha  occ. eigenvalues --   -9.94692  -9.94499  -9.94430  -9.94275  -9.94159
 Alpha  occ. eigenvalues --   -9.94154  -9.94014  -9.93847  -9.93740  -9.93688
 Alpha  occ. eigenvalues --   -9.93676  -9.93333  -9.93279  -9.93209  -9.93011
 Alpha  occ. eigenvalues --   -9.92548  -9.92512  -9.92494  -9.92401  -9.92202
 Alpha  occ. eigenvalues --   -9.92145  -9.91993  -9.91969  -9.91887  -9.91596
 Alpha  occ. eigenvalues --   -9.91445  -9.91437  -9.91380  -9.91322  -9.91310
 Alpha  occ. eigenvalues --   -9.91282  -9.91241  -9.91187  -9.91177  -9.91110
 Alpha  occ. eigenvalues --   -9.90834  -9.90689  -9.90663  -9.90600  -9.90532
 Alpha  occ. eigenvalues --   -9.90217  -2.92592  -1.73000  -1.72467  -1.72320
 Alpha  occ. eigenvalues --   -0.97574  -0.94499  -0.93569  -0.93463  -0.89468
 Alpha  occ. eigenvalues --   -0.87997  -0.86380  -0.85622  -0.85580  -0.84778
 Alpha  occ. eigenvalues --   -0.76142  -0.73776  -0.73532  -0.73415  -0.72484
 Alpha  occ. eigenvalues --   -0.71666  -0.71535  -0.70722  -0.70480  -0.70251
 Alpha  occ. eigenvalues --   -0.69800  -0.69239  -0.68157  -0.67882  -0.67394
 Alpha  occ. eigenvalues --   -0.66324  -0.65828  -0.64985  -0.64956  -0.64258
 Alpha  occ. eigenvalues --   -0.64060  -0.62984  -0.62695  -0.61922  -0.60892
 Alpha  occ. eigenvalues --   -0.60160  -0.60034  -0.59940  -0.59142  -0.58575
 Alpha  occ. eigenvalues --   -0.58386  -0.57733  -0.57094  -0.56115  -0.54201
 Alpha  occ. eigenvalues --   -0.53800  -0.53772  -0.52884  -0.52325  -0.51844
 Alpha  occ. eigenvalues --   -0.51581  -0.50921  -0.50883  -0.50568  -0.49885
 Alpha  occ. eigenvalues --   -0.49181  -0.48640  -0.48013  -0.47848  -0.46883
 Alpha  occ. eigenvalues --   -0.46580  -0.46068  -0.45851  -0.45590  -0.44739
 Alpha  occ. eigenvalues --   -0.44329  -0.43685  -0.43176  -0.42675  -0.42415
 Alpha  occ. eigenvalues --   -0.42192  -0.41916  -0.41690  -0.41593  -0.41330
 Alpha  occ. eigenvalues --   -0.40992  -0.40868  -0.40732  -0.40374  -0.40228
 Alpha  occ. eigenvalues --   -0.39921  -0.39750  -0.39663  -0.39190  -0.39107
 Alpha  occ. eigenvalues --   -0.38838  -0.38639  -0.38478  -0.38259  -0.38156
 Alpha  occ. eigenvalues --   -0.37981  -0.37820  -0.37796  -0.37671  -0.37354
 Alpha  occ. eigenvalues --   -0.37270  -0.37010  -0.36815  -0.36637  -0.36587
 Alpha  occ. eigenvalues --   -0.36412  -0.36218  -0.36131  -0.35808  -0.35621
 Alpha  occ. eigenvalues --   -0.35574  -0.35316  -0.35193  -0.34937  -0.34821
 Alpha  occ. eigenvalues --   -0.34638  -0.34449  -0.34267  -0.34118  -0.33983
 Alpha  occ. eigenvalues --   -0.33832  -0.33638  -0.33459  -0.33447  -0.33085
 Alpha  occ. eigenvalues --   -0.33065  -0.32917  -0.32893  -0.32598  -0.32356
 Alpha  occ. eigenvalues --   -0.32098  -0.31932  -0.31760  -0.31709  -0.31507
 Alpha  occ. eigenvalues --   -0.31327  -0.31108  -0.31065  -0.30822  -0.30602
 Alpha  occ. eigenvalues --   -0.30505  -0.30362  -0.30242  -0.30213  -0.30030
 Alpha  occ. eigenvalues --   -0.29903  -0.29606  -0.29559  -0.29421  -0.29247
 Alpha  occ. eigenvalues --   -0.29057  -0.28643  -0.28548  -0.28207  -0.27548
 Alpha  occ. eigenvalues --   -0.27430  -0.27140  -0.27048  -0.26864  -0.26621
 Alpha  occ. eigenvalues --   -0.26294  -0.25868  -0.25616  -0.24943  -0.24670
 Alpha  occ. eigenvalues --   -0.24638  -0.24227  -0.24071  -0.23935  -0.23610
 Alpha  occ. eigenvalues --   -0.23225  -0.22521  -0.22358  -0.21611  -0.21217
 Alpha  occ. eigenvalues --   -0.20638  -0.19616  -0.18744  -0.18153  -0.17585
 Alpha  occ. eigenvalues --   -0.16257
 Alpha virt. eigenvalues --   -0.11931  -0.07351  -0.06503  -0.04881  -0.04786
 Alpha virt. eigenvalues --   -0.04217  -0.03746  -0.01605  -0.01516  -0.00218
 Alpha virt. eigenvalues --    0.00977   0.01777   0.01953   0.02425   0.02778

 Mulliken charges:
               1
     1  Mg   0.706680
     2  C    0.019284
     3  C   -0.053332
     4  C   -0.028425
     5  C   -0.079996
     6  N   -0.220561
     7  C   -0.085900
     8  C    0.026534
     9  C   -0.018448
    10  C    0.053358
    11  C    0.126373
    12  C    0.104589
    13  C    0.168154
    14  C    0.084739
    15  O   -0.195833
    16  O   -0.277363
    17  N   -0.318926
    18  C    0.104182
    19  C   -0.154122
    20  C    0.039680
    21  C    0.106654
    22  C    0.182757
    23  C   -0.085541
    24  O   -0.136542
    25  C    0.117787
    26  N   -0.207063
    27  C   -0.004434
    28  C    0.001987
    29  C    0.076168
    30  C   -0.005469
    31  C    0.096721
    32  C    0.105172
    33  C    0.065126
    34  N   -0.224395
    35  C    0.135652
    36  C   -0.171493
    37  C    0.057616
    38  C    0.060071
    39  C    0.177544
    40  C   -0.029147
    41  O   -0.076145
    42  C    0.118023
    43  C    0.126225
    44  O   -0.206377
    45  O   -0.330470
    46  C    0.211426
    47  C    0.328369
    48  C   -0.115664
    49  C   -0.166784
    50  C    0.132645
    51  C    0.123759
    52  C    0.099076
    53  C    0.079868
    54  C   -0.050918
    55  C    0.088446
    56  C    0.096341
    57  C    0.019765
    58  C    0.115522
    59  C   -0.071894
    60  C    0.088835
    61  C    0.115733
    62  C    0.045687
    63  C    0.107807
    64  C   -0.115955
    65  C    0.085778
    66  C    0.121098
    67  H   -0.063871
    68  H   -0.041977
    69  H   -0.064477
    70  H   -0.006997
    71  H   -0.016536
    72  H   -0.005040
    73  H   -0.023795
    74  H   -0.002914
    75  H   -0.024936
    76  H   -0.005702
    77  H   -0.026300
    78  H   -0.007014
    79  H   -0.004591
    80  H    0.017246
    81  H   -0.040237
    82  H   -0.009591
    83  H    0.020342
    84  H   -0.000365
    85  H   -0.020901
    86  H   -0.019095
    87  H   -0.013258
    88  H   -0.002521
    89  H    0.001888
    90  H   -0.031307
    91  H   -0.015726
    92  H   -0.007837
    93  H   -0.009111
    94  H   -0.021281
    95  H   -0.011882
    96  H    0.010389
    97  H   -0.011251
    98  H   -0.002085
    99  H    0.011643
   100  H    0.026308
   101  H    0.024838
   102  H    0.001004
   103  H    0.003188
   104  H   -0.026763
   105  H    0.004024
   106  H    0.001525
   107  H   -0.019629
   108  H   -0.004293
   109  H   -0.048263
   110  H   -0.017496
   111  H   -0.030837
   112  H   -0.042960
   113  H   -0.041796
   114  H   -0.044838
   115  H   -0.014977
   116  H   -0.014509
   117  H   -0.007620
   118  H   -0.015794
   119  H   -0.041473
   120  H   -0.012193
   121  H   -0.011215
   122  H   -0.019744
   123  H   -0.050124
   124  H   -0.036873
   125  H   -0.033168
   126  H   -0.018437
   127  H   -0.017569
   128  H   -0.037453
   129  H   -0.028473
   130  H   -0.050324
   131  H   -0.032576
   132  H   -0.038128
   133  H   -0.016882
   134  H   -0.032214
   135  H   -0.031386
   136  H   -0.014012
   137  H   -0.013074
   138  H    0.001401
   139  H   -0.014543
   140  H   -0.023593
 Sum of Mulliken charges =  -0.00000

 Dipole moment (field-independent basis, Debye):
    X=             -1.0422    Y=              2.3550    Z=              0.1598  Tot=              2.5803
 Quadrupole moment (field-independent basis, Debye-Ang):
   XX=           -381.1461   YY=           -424.8895   ZZ=           -413.5912
   XY=             -0.3590   XZ=             19.6863   YZ=             -0.6194

 Normal termination of Gaussian 16 at Sat Apr 30 01:57:02 2022.
