 Gaussian 16, Revision A.03,
 Gaussian 16:  ES64L-G16RevA.03 25-Dec-2016

 -----------------------------------
 #p cam-b3lyp/Def2SVP td=(nstates=5)
 -----------------------------------

 -----------------------------------------------------
 step_51_chromophore_4 TDDFT with cam-b3lyp functional
 -----------------------------------------------------
 Symbolic Z-matrix:
 Charge =  0 Multiplicity = 1

                         Standard orientation:
 ---------------------------------------------------------------------
 Center     Atomic      Atomic             Coordinates (Angstroms)
 Number     Number       Type             X           Y           Z
 ---------------------------------------------------------------------
      1         12           0        5.678240    0.692527    0.342782
      2          6           0        3.577677   -2.236197    0.025829
      3          6           0        3.123285    2.610907   -0.655101
      4          6           0        7.928174    3.180240    0.176991
      5          6           0        8.414697   -1.731489    0.460591
      6          7           0        3.626304    0.260221   -0.281516
      7          6           0        2.960641   -0.967279   -0.074780
      8          6           0        1.415471   -0.717608   -0.329812
      9          6           0        1.332496    0.817326   -0.768592
     10          6           0        2.817693    1.266150   -0.586987
     11          6           0        0.748045    1.129631   -2.140538
     12          6           0        0.574839   -1.010247    0.881245
     13          6           0       -0.899816   -0.552475    0.874911
     14          6           0       -2.036104   -1.505959    1.132210
     15          8           0       -2.713567   -1.566655    2.182951
     16          8           0       -2.137313   -2.471450    0.111202
     17          7           0        5.572725    2.657150   -0.130636
     18          6           0        4.422542    3.268742   -0.579789
     19          6           0        4.696368    4.658049   -0.815853
     20          6           0        6.096502    4.910247   -0.501009
     21          6           0        6.596741    3.560618   -0.146059
     22          6           0        3.616343    5.667604   -1.204597
     23          6           0        7.015536    6.141690   -0.642308
     24          8           0        8.175131    6.254794   -0.379531
     25          6           0        6.496552    7.522092   -0.989735
     26          7           0        7.873645    0.685846    0.250253
     27          6           0        8.541023    1.878966    0.270851
     28          6           0       10.100202    1.626995    0.306995
     29          6           0       10.217452    0.118155    0.561326
     30          6           0        8.775697   -0.357745    0.404792
     31          6           0       10.753419    1.934558   -1.077607
     32          6           0       10.746823   -0.166952    1.947437
     33          6           0       12.130025   -0.695769    2.005877
     34          7           0        5.971496   -1.473131    0.259459
     35          6           0        7.121170   -2.239958    0.391514
     36          6           0        6.830888   -3.638791    0.333618
     37          6           0        5.424122   -3.697927    0.252007
     38          6           0        4.938638   -2.352462    0.170727
     39          6           0        7.748389   -4.803440    0.487759
     40          6           0        4.253803   -4.591004    0.284669
     41          8           0        4.183707   -5.769796    0.402125
     42          6           0        3.021158   -3.661222    0.110203
     43          6           0        2.232085   -4.119059   -1.001174
     44          8           0        2.693445   -4.249134   -2.162687
     45          8           0        0.971200   -4.684382   -0.525427
     46          6           0        0.050301   -5.303796   -1.537088
     47          6           0       -3.307392   -3.281287    0.193300
     48          6           0       -4.610132   -2.529828    0.369464
     49          6           0       -5.859688   -3.098338    0.307291
     50          6           0       -6.141655   -4.564925    0.112994
     51          6           0       -7.045811   -2.136612    0.305247
     52          6           0       -7.349330   -1.552970   -1.105614
     53          6           0       -7.572164   -0.005160   -0.885179
     54          6           0       -9.040719    0.437859   -0.682766
     55          6           0       -9.793749    0.325156   -1.993449
     56          6           0       -9.342000    1.792329   -0.016445
     57          6           0       -9.902802    1.504556    1.380565
     58          6           0      -10.464484    2.911798    1.904593
     59          6           0      -11.954018    2.785195    2.231571
     60          6           0      -12.310686    3.699406    3.448502
     61          6           0      -12.844763    3.081607    0.907132
     62          6           0      -13.981166    2.096850    0.692550
     63          6           0      -14.297056    1.703352   -0.798718
     64          6           0      -14.210866    0.149377   -0.988550
     65          6           0      -13.617985   -0.206569   -2.397412
     66          6           0      -15.540328   -0.616246   -0.569247
     67          1           0        2.359865    3.325790   -0.971251
     68          1           0        8.686512    3.941610    0.371541
     69          1           0        9.220581   -2.460971    0.567016
     70          1           0        1.183671   -1.425542   -1.124828
     71          1           0        0.815043    1.519088   -0.114389
     72          1           0        1.464154    1.669803   -2.760806
     73          1           0       -0.096496    1.817301   -2.087569
     74          1           0        0.314373    0.272597   -2.656916
     75          1           0        1.063432   -0.612032    1.770234
     76          1           0        0.508281   -2.090955    1.010789
     77          1           0       -0.968049   -0.202873   -0.155656
     78          1           0       -1.053595    0.354315    1.461163
     79          1           0        2.988732    5.807836   -0.324105
     80          1           0        3.022252    5.428767   -2.085909
     81          1           0        4.070258    6.658786   -1.235464
     82          1           0        7.380193    8.112765   -1.228962
     83          1           0        5.973871    7.985147   -0.152901
     84          1           0        5.938296    7.389696   -1.915950
     85          1           0       10.570391    2.291567    1.032511
     86          1           0       10.805264   -0.268273   -0.270472
     87          1           0       10.329514    1.147808   -1.700970
     88          1           0       11.837573    1.824058   -1.066751
     89          1           0       10.509216    2.870420   -1.581621
     90          1           0       10.116429   -0.955230    2.358323
     91          1           0       10.805795    0.635023    2.683600
     92          1           0       12.073942   -1.715223    2.387639
     93          1           0       12.805149   -0.090954    2.611298
     94          1           0       12.509516   -0.702264    0.984114
     95          1           0        8.339014   -4.967554   -0.413389
     96          1           0        7.217289   -5.742200    0.650350
     97          1           0        8.551419   -4.697410    1.216950
     98          1           0        2.323951   -3.645101    0.948777
     99          1           0       -0.557818   -4.428411   -1.767362
    100          1           0       -0.522023   -6.102771   -1.065752
    101          1           0        0.479918   -5.644819   -2.478657
    102          1           0       -3.187027   -3.954363    1.042374
    103          1           0       -3.483863   -3.835086   -0.728682
    104          1           0       -4.477764   -1.448327    0.324498
    105          1           0       -6.616342   -4.736170   -0.853359
    106          1           0       -6.775978   -4.799154    0.968181
    107          1           0       -5.369641   -5.330316    0.178623
    108          1           0       -6.924546   -1.386142    1.085373
    109          1           0       -7.930190   -2.708313    0.584668
    110          1           0       -8.162944   -2.043850   -1.639424
    111          1           0       -6.426162   -1.640775   -1.678759
    112          1           0       -7.147683    0.543969   -1.725906
    113          1           0       -6.986682    0.327530   -0.028269
    114          1           0       -9.528991   -0.304526   -0.051096
    115          1           0       -9.198944   -0.052156   -2.824247
    116          1           0      -10.282986    1.237711   -2.334770
    117          1           0      -10.612086   -0.334741   -1.703781
    118          1           0       -9.914498    2.517051   -0.595116
    119          1           0       -8.416593    2.246584    0.338665
    120          1           0       -9.146157    1.120759    2.064581
    121          1           0      -10.694234    0.776292    1.208594
    122          1           0      -10.386133    3.809387    1.291212
    123          1           0      -10.006987    3.027962    2.887274
    124          1           0      -12.047921    1.774201    2.627655
    125          1           0      -13.361586    3.832511    3.706932
    126          1           0      -12.013944    4.743392    3.353255
    127          1           0      -11.919575    3.200700    4.334841
    128          1           0      -12.170702    3.042740    0.050755
    129          1           0      -13.290951    4.075153    0.893305
    130          1           0      -14.875826    2.595676    1.064411
    131          1           0      -13.993415    1.246303    1.374856
    132          1           0      -13.415603    2.099841   -1.302258
    133          1           0      -15.243804    2.163917   -1.079556
    134          1           0      -13.445223   -0.216041   -0.303987
    135          1           0      -14.302648    0.249296   -3.112728
    136          1           0      -13.541476   -1.253529   -2.692674
    137          1           0      -12.679453    0.315048   -2.586916
    138          1           0      -15.387469   -1.221510    0.324399
    139          1           0      -15.843067   -1.108916   -1.493638
    140          1           0      -16.262229    0.171299   -0.355364
 ---------------------------------------------------------------------

 SCF Done:  E(RCAM-B3LYP) =  -3007.11621603     A.U. after   19 cycles

 Excitation energies and oscillator strengths:

 Excited State   1:      Singlet-A      1.6991 eV  729.69 nm  f=0.3854  <S**2>=0.000
     245 -> 248       -0.18961
     246 -> 247        0.68383
     245 <- 248       -0.11147
 This state for optimization and/or second-order correction.
 Total Energy, E(TD-HF/TD-DFT) =  -3007.05377413
 Copying the excited state density for this state as the 1-particle RhoCI density.

 Excited State   2:      Singlet-A      2.2185 eV  558.87 nm  f=0.1061  <S**2>=0.000
     245 -> 247        0.63522
     246 -> 248        0.30139

 Excited State   3:      Singlet-A      3.3677 eV  368.16 nm  f=0.0067  <S**2>=0.000
     241 -> 247       -0.12043
     242 -> 247        0.14714
     243 -> 247        0.65711

 Excited State   4:      Singlet-A      3.4124 eV  363.34 nm  f=0.0467  <S**2>=0.000
     242 -> 247        0.52755
     242 -> 248       -0.10407
     242 -> 249        0.20619
     242 -> 251       -0.17985
     243 -> 247       -0.19542
     246 -> 248        0.23370

 Excited State   5:      Singlet-A      3.4904 eV  355.21 nm  f=0.2793  <S**2>=0.000
     241 -> 247        0.44983
     242 -> 247        0.15802
     242 -> 249        0.10719
     245 -> 247        0.18108
     246 -> 248       -0.44914

 The electronic state is 1-A.
 Alpha  occ. eigenvalues --  -46.89609 -19.25489 -19.24544 -19.20591 -19.20342
 Alpha  occ. eigenvalues --  -19.19625 -19.18874 -14.42721 -14.42630 -14.40111
 Alpha  occ. eigenvalues --  -14.39396 -10.40443 -10.39806 -10.35449 -10.35107
 Alpha  occ. eigenvalues --  -10.32376 -10.31573 -10.31564 -10.31503 -10.31319
 Alpha  occ. eigenvalues --  -10.31210 -10.30847 -10.30470 -10.29602 -10.29267
 Alpha  occ. eigenvalues --  -10.28943 -10.28754 -10.28533 -10.28516 -10.28467
 Alpha  occ. eigenvalues --  -10.28305 -10.28196 -10.28077 -10.28050 -10.27637
 Alpha  occ. eigenvalues --  -10.27530 -10.27398 -10.27318 -10.27205 -10.27177
 Alpha  occ. eigenvalues --  -10.26685 -10.26251 -10.26207 -10.26063 -10.25937
 Alpha  occ. eigenvalues --  -10.25831 -10.25776 -10.25598 -10.25597 -10.25452
 Alpha  occ. eigenvalues --  -10.25411 -10.25329 -10.25186 -10.25162 -10.25042
 Alpha  occ. eigenvalues --  -10.24999 -10.24996 -10.24958 -10.24893 -10.24729
 Alpha  occ. eigenvalues --  -10.24537 -10.24349 -10.24315 -10.24229 -10.24190
 Alpha  occ. eigenvalues --  -10.23816  -3.18055  -1.92940  -1.92494  -1.92369
 Alpha  occ. eigenvalues --   -1.16020  -1.13092  -1.12045  -1.11906  -1.07381
 Alpha  occ. eigenvalues --   -1.05921  -1.04069  -1.03202  -1.03170  -1.02252
 Alpha  occ. eigenvalues --   -0.93320  -0.90662  -0.90286  -0.90229  -0.89294
 Alpha  occ. eigenvalues --   -0.88299  -0.88232  -0.87237  -0.87056  -0.86826
 Alpha  occ. eigenvalues --   -0.86336  -0.85617  -0.84332  -0.84140  -0.83605
 Alpha  occ. eigenvalues --   -0.82371  -0.81875  -0.80937  -0.80785  -0.80265
 Alpha  occ. eigenvalues --   -0.79874  -0.78666  -0.78380  -0.77424  -0.76263
 Alpha  occ. eigenvalues --   -0.75502  -0.75353  -0.75229  -0.74426  -0.73796
 Alpha  occ. eigenvalues --   -0.73451  -0.72721  -0.71971  -0.70950  -0.68851
 Alpha  occ. eigenvalues --   -0.68362  -0.68263  -0.67320  -0.66729  -0.65981
 Alpha  occ. eigenvalues --   -0.65692  -0.65147  -0.64894  -0.64535  -0.63927
 Alpha  occ. eigenvalues --   -0.63035  -0.62542  -0.61865  -0.61598  -0.60577
 Alpha  occ. eigenvalues --   -0.60168  -0.59603  -0.59344  -0.58913  -0.58161
 Alpha  occ. eigenvalues --   -0.57901  -0.57006  -0.56251  -0.55888  -0.55553
 Alpha  occ. eigenvalues --   -0.55237  -0.54939  -0.54751  -0.54483  -0.54167
 Alpha  occ. eigenvalues --   -0.53747  -0.53690  -0.53386  -0.53061  -0.52982
 Alpha  occ. eigenvalues --   -0.52657  -0.52501  -0.52356  -0.51914  -0.51684
 Alpha  occ. eigenvalues --   -0.51609  -0.51201  -0.51078  -0.50914  -0.50584
 Alpha  occ. eigenvalues --   -0.50320  -0.50221  -0.50047  -0.50008  -0.49790
 Alpha  occ. eigenvalues --   -0.49590  -0.49459  -0.49356  -0.48878  -0.48831
 Alpha  occ. eigenvalues --   -0.48776  -0.48698  -0.48426  -0.48246  -0.47657
 Alpha  occ. eigenvalues --   -0.47552  -0.47397  -0.47049  -0.46899  -0.46728
 Alpha  occ. eigenvalues --   -0.46518  -0.46268  -0.46137  -0.46036  -0.45831
 Alpha  occ. eigenvalues --   -0.45761  -0.45518  -0.45357  -0.45145  -0.44825
 Alpha  occ. eigenvalues --   -0.44642  -0.44522  -0.44413  -0.44219  -0.44063
 Alpha  occ. eigenvalues --   -0.43696  -0.43551  -0.43331  -0.43189  -0.43172
 Alpha  occ. eigenvalues --   -0.42943  -0.42733  -0.42513  -0.42447  -0.42329
 Alpha  occ. eigenvalues --   -0.41909  -0.41784  -0.41654  -0.41539  -0.41521
 Alpha  occ. eigenvalues --   -0.41035  -0.40911  -0.40760  -0.40593  -0.40310
 Alpha  occ. eigenvalues --   -0.40107  -0.39769  -0.39658  -0.39324  -0.38453
 Alpha  occ. eigenvalues --   -0.38345  -0.38291  -0.37806  -0.37681  -0.37524
 Alpha  occ. eigenvalues --   -0.37073  -0.36668  -0.36426  -0.35888  -0.35574
 Alpha  occ. eigenvalues --   -0.35546  -0.35297  -0.34807  -0.34665  -0.34323
 Alpha  occ. eigenvalues --   -0.34214  -0.33582  -0.33296  -0.31619  -0.31439
 Alpha  occ. eigenvalues --   -0.30562  -0.30186  -0.29887  -0.28392  -0.24346
 Alpha  occ. eigenvalues --   -0.21525
 Alpha virt. eigenvalues --   -0.09046  -0.02263  -0.00013   0.01314   0.02293
 Alpha virt. eigenvalues --    0.02941   0.03114   0.05657   0.05890   0.06826
 Alpha virt. eigenvalues --    0.07751   0.07921   0.08056   0.08879   0.09050

 Mulliken charges:
               1
     1  Mg   0.834172
     2  C   -0.008785
     3  C   -0.070086
     4  C   -0.046360
     5  C   -0.084063
     6  N   -0.295039
     7  C   -0.032738
     8  C   -0.030471
     9  C   -0.075639
    10  C    0.078875
    11  C    0.065596
    12  C    0.059179
    13  C    0.095515
    14  C    0.163560
    15  O   -0.234742
    16  O   -0.340590
    17  N   -0.406896
    18  C    0.115253
    19  C   -0.164704
    20  C   -0.026237
    21  C    0.128086
    22  C    0.124384
    23  C   -0.007931
    24  O   -0.176826
    25  C    0.037538
    26  N   -0.272474
    27  C    0.013728
    28  C   -0.048656
    29  C    0.012734
    30  C    0.010438
    31  C    0.042022
    32  C    0.044751
    33  C    0.005567
    34  N   -0.310040
    35  C    0.139605
    36  C   -0.162020
    37  C   -0.020320
    38  C    0.090436
    39  C    0.117750
    40  C    0.069756
    41  O   -0.115096
    42  C    0.035479
    43  C    0.219114
    44  O   -0.241109
    45  O   -0.396317
    46  C    0.175693
    47  C    0.295459
    48  C   -0.129545
    49  C   -0.193953
    50  C    0.069816
    51  C    0.067730
    52  C    0.042363
    53  C    0.027888
    54  C   -0.104775
    55  C    0.032400
    56  C    0.042743
    57  C   -0.023780
    58  C    0.055427
    59  C   -0.127021
    60  C    0.033533
    61  C    0.065358
    62  C   -0.006598
    63  C    0.052297
    64  C   -0.168869
    65  C    0.029103
    66  C    0.060408
    67  H   -0.029563
    68  H   -0.001201
    69  H   -0.027132
    70  H    0.024833
    71  H    0.018178
    72  H    0.022693
    73  H    0.001317
    74  H    0.022134
    75  H    0.008170
    76  H    0.022777
    77  H    0.006824
    78  H    0.026816
    79  H    0.023480
    80  H    0.042487
    81  H   -0.010634
    82  H    0.025485
    83  H    0.046645
    84  H    0.024244
    85  H    0.012489
    86  H    0.018053
    87  H    0.008673
    88  H    0.021451
    89  H    0.027963
    90  H    0.000556
    91  H    0.013971
    92  H    0.015282
    93  H    0.015125
    94  H    0.001174
    95  H    0.016108
    96  H    0.039176
    97  H    0.014203
    98  H    0.043845
    99  H    0.032017
   100  H    0.047717
   101  H    0.050031
   102  H    0.030405
   103  H    0.028776
   104  H    0.003193
   105  H    0.027263
   106  H    0.025463
   107  H    0.006965
   108  H    0.024925
   109  H   -0.017333
   110  H    0.010073
   111  H    0.000287
   112  H   -0.012958
   113  H   -0.014631
   114  H   -0.013727
   115  H    0.009740
   116  H    0.007285
   117  H    0.012058
   118  H    0.010550
   119  H   -0.011233
   120  H    0.014295
   121  H    0.010642
   122  H    0.007673
   123  H   -0.017168
   124  H   -0.005025
   125  H   -0.007505
   126  H    0.004943
   127  H    0.006122
   128  H   -0.014397
   129  H    0.000348
   130  H   -0.020559
   131  H   -0.005082
   132  H   -0.011293
   133  H    0.011087
   134  H   -0.003381
   135  H   -0.007260
   136  H    0.011532
   137  H    0.006573
   138  H    0.024360
   139  H    0.009583
   140  H   -0.000056
 Sum of Mulliken charges =  -0.00000

 Dipole moment (field-independent basis, Debye):
    X=             -1.1935    Y=              2.7717    Z=              0.0630  Tot=              3.0184
 Quadrupole moment (field-independent basis, Debye-Ang):
   XX=           -379.0631   YY=           -420.9277   ZZ=           -413.9006
   XY=              0.8492   XZ=             20.3349   YZ=             -1.0240

 Normal termination of Gaussian 16 at Sat Apr 30 01:03:00 2022.
