 Gaussian 16, Revision A.03,
 Gaussian 16:  ES64L-G16RevA.03 25-Dec-2016

 ---------------------------------
 #p PBE1PBE/Def2SVP td=(nstates=5)
 ---------------------------------

 ---------------------------------------------------
 step_51_chromophore_4 TDDFT with PBE1PBE functional
 ---------------------------------------------------
 Symbolic Z-matrix:
 Charge =  0 Multiplicity = 1

                         Standard orientation:
 ---------------------------------------------------------------------
 Center     Atomic      Atomic             Coordinates (Angstroms)
 Number     Number       Type             X           Y           Z
 ---------------------------------------------------------------------
      1         12           0        5.678240    0.692527    0.342782
      2          6           0        3.577677   -2.236197    0.025829
      3          6           0        3.123285    2.610907   -0.655101
      4          6           0        7.928174    3.180240    0.176991
      5          6           0        8.414697   -1.731489    0.460591
      6          7           0        3.626304    0.260221   -0.281516
      7          6           0        2.960641   -0.967279   -0.074780
      8          6           0        1.415471   -0.717608   -0.329812
      9          6           0        1.332496    0.817326   -0.768592
     10          6           0        2.817693    1.266150   -0.586987
     11          6           0        0.748045    1.129631   -2.140538
     12          6           0        0.574839   -1.010247    0.881245
     13          6           0       -0.899816   -0.552475    0.874911
     14          6           0       -2.036104   -1.505959    1.132210
     15          8           0       -2.713567   -1.566655    2.182951
     16          8           0       -2.137313   -2.471450    0.111202
     17          7           0        5.572725    2.657150   -0.130636
     18          6           0        4.422542    3.268742   -0.579789
     19          6           0        4.696368    4.658049   -0.815853
     20          6           0        6.096502    4.910247   -0.501009
     21          6           0        6.596741    3.560618   -0.146059
     22          6           0        3.616343    5.667604   -1.204597
     23          6           0        7.015536    6.141690   -0.642308
     24          8           0        8.175131    6.254794   -0.379531
     25          6           0        6.496552    7.522092   -0.989735
     26          7           0        7.873645    0.685846    0.250253
     27          6           0        8.541023    1.878966    0.270851
     28          6           0       10.100202    1.626995    0.306995
     29          6           0       10.217452    0.118155    0.561326
     30          6           0        8.775697   -0.357745    0.404792
     31          6           0       10.753419    1.934558   -1.077607
     32          6           0       10.746823   -0.166952    1.947437
     33          6           0       12.130025   -0.695769    2.005877
     34          7           0        5.971496   -1.473131    0.259459
     35          6           0        7.121170   -2.239958    0.391514
     36          6           0        6.830888   -3.638791    0.333618
     37          6           0        5.424122   -3.697927    0.252007
     38          6           0        4.938638   -2.352462    0.170727
     39          6           0        7.748389   -4.803440    0.487759
     40          6           0        4.253803   -4.591004    0.284669
     41          8           0        4.183707   -5.769796    0.402125
     42          6           0        3.021158   -3.661222    0.110203
     43          6           0        2.232085   -4.119059   -1.001174
     44          8           0        2.693445   -4.249134   -2.162687
     45          8           0        0.971200   -4.684382   -0.525427
     46          6           0        0.050301   -5.303796   -1.537088
     47          6           0       -3.307392   -3.281287    0.193300
     48          6           0       -4.610132   -2.529828    0.369464
     49          6           0       -5.859688   -3.098338    0.307291
     50          6           0       -6.141655   -4.564925    0.112994
     51          6           0       -7.045811   -2.136612    0.305247
     52          6           0       -7.349330   -1.552970   -1.105614
     53          6           0       -7.572164   -0.005160   -0.885179
     54          6           0       -9.040719    0.437859   -0.682766
     55          6           0       -9.793749    0.325156   -1.993449
     56          6           0       -9.342000    1.792329   -0.016445
     57          6           0       -9.902802    1.504556    1.380565
     58          6           0      -10.464484    2.911798    1.904593
     59          6           0      -11.954018    2.785195    2.231571
     60          6           0      -12.310686    3.699406    3.448502
     61          6           0      -12.844763    3.081607    0.907132
     62          6           0      -13.981166    2.096850    0.692550
     63          6           0      -14.297056    1.703352   -0.798718
     64          6           0      -14.210866    0.149377   -0.988550
     65          6           0      -13.617985   -0.206569   -2.397412
     66          6           0      -15.540328   -0.616246   -0.569247
     67          1           0        2.359865    3.325790   -0.971251
     68          1           0        8.686512    3.941610    0.371541
     69          1           0        9.220581   -2.460971    0.567016
     70          1           0        1.183671   -1.425542   -1.124828
     71          1           0        0.815043    1.519088   -0.114389
     72          1           0        1.464154    1.669803   -2.760806
     73          1           0       -0.096496    1.817301   -2.087569
     74          1           0        0.314373    0.272597   -2.656916
     75          1           0        1.063432   -0.612032    1.770234
     76          1           0        0.508281   -2.090955    1.010789
     77          1           0       -0.968049   -0.202873   -0.155656
     78          1           0       -1.053595    0.354315    1.461163
     79          1           0        2.988732    5.807836   -0.324105
     80          1           0        3.022252    5.428767   -2.085909
     81          1           0        4.070258    6.658786   -1.235464
     82          1           0        7.380193    8.112765   -1.228962
     83          1           0        5.973871    7.985147   -0.152901
     84          1           0        5.938296    7.389696   -1.915950
     85          1           0       10.570391    2.291567    1.032511
     86          1           0       10.805264   -0.268273   -0.270472
     87          1           0       10.329514    1.147808   -1.700970
     88          1           0       11.837573    1.824058   -1.066751
     89          1           0       10.509216    2.870420   -1.581621
     90          1           0       10.116429   -0.955230    2.358323
     91          1           0       10.805795    0.635023    2.683600
     92          1           0       12.073942   -1.715223    2.387639
     93          1           0       12.805149   -0.090954    2.611298
     94          1           0       12.509516   -0.702264    0.984114
     95          1           0        8.339014   -4.967554   -0.413389
     96          1           0        7.217289   -5.742200    0.650350
     97          1           0        8.551419   -4.697410    1.216950
     98          1           0        2.323951   -3.645101    0.948777
     99          1           0       -0.557818   -4.428411   -1.767362
    100          1           0       -0.522023   -6.102771   -1.065752
    101          1           0        0.479918   -5.644819   -2.478657
    102          1           0       -3.187027   -3.954363    1.042374
    103          1           0       -3.483863   -3.835086   -0.728682
    104          1           0       -4.477764   -1.448327    0.324498
    105          1           0       -6.616342   -4.736170   -0.853359
    106          1           0       -6.775978   -4.799154    0.968181
    107          1           0       -5.369641   -5.330316    0.178623
    108          1           0       -6.924546   -1.386142    1.085373
    109          1           0       -7.930190   -2.708313    0.584668
    110          1           0       -8.162944   -2.043850   -1.639424
    111          1           0       -6.426162   -1.640775   -1.678759
    112          1           0       -7.147683    0.543969   -1.725906
    113          1           0       -6.986682    0.327530   -0.028269
    114          1           0       -9.528991   -0.304526   -0.051096
    115          1           0       -9.198944   -0.052156   -2.824247
    116          1           0      -10.282986    1.237711   -2.334770
    117          1           0      -10.612086   -0.334741   -1.703781
    118          1           0       -9.914498    2.517051   -0.595116
    119          1           0       -8.416593    2.246584    0.338665
    120          1           0       -9.146157    1.120759    2.064581
    121          1           0      -10.694234    0.776292    1.208594
    122          1           0      -10.386133    3.809387    1.291212
    123          1           0      -10.006987    3.027962    2.887274
    124          1           0      -12.047921    1.774201    2.627655
    125          1           0      -13.361586    3.832511    3.706932
    126          1           0      -12.013944    4.743392    3.353255
    127          1           0      -11.919575    3.200700    4.334841
    128          1           0      -12.170702    3.042740    0.050755
    129          1           0      -13.290951    4.075153    0.893305
    130          1           0      -14.875826    2.595676    1.064411
    131          1           0      -13.993415    1.246303    1.374856
    132          1           0      -13.415603    2.099841   -1.302258
    133          1           0      -15.243804    2.163917   -1.079556
    134          1           0      -13.445223   -0.216041   -0.303987
    135          1           0      -14.302648    0.249296   -3.112728
    136          1           0      -13.541476   -1.253529   -2.692674
    137          1           0      -12.679453    0.315048   -2.586916
    138          1           0      -15.387469   -1.221510    0.324399
    139          1           0      -15.843067   -1.108916   -1.493638
    140          1           0      -16.262229    0.171299   -0.355364
 ---------------------------------------------------------------------

 SCF Done:  E(RPBE1PBE) =  -3005.30600456     A.U. after   16 cycles

 Excitation energies and oscillator strengths:

 Excited State   1:      Singlet-A      1.8644 eV  665.01 nm  f=0.3742  <S**2>=0.000
     245 -> 248        0.18452
     246 -> 247        0.69053
     246 <- 247       -0.10482
 This state for optimization and/or second-order correction.
 Total Energy, E(TD-HF/TD-DFT) =  -3005.23748884
 Copying the excited state density for this state as the 1-particle RhoCI density.

 Excited State   2:      Singlet-A      2.2271 eV  556.72 nm  f=0.1028  <S**2>=0.000
     245 -> 247        0.64667
     246 -> 248       -0.27606

 Excited State   3:      Singlet-A      2.8169 eV  440.14 nm  f=0.0000  <S**2>=0.000
     243 -> 247        0.67998
     243 -> 249        0.13187

 Excited State   4:      Singlet-A      2.9971 eV  413.68 nm  f=0.0000  <S**2>=0.000
     244 -> 247        0.70695

 Excited State   5:      Singlet-A      3.0317 eV  408.96 nm  f=0.0032  <S**2>=0.000
     242 -> 247        0.69615

 The electronic state is 1-A.
 Alpha  occ. eigenvalues --  -46.93027 -19.26147 -19.25235 -19.20874 -19.20532
 Alpha  occ. eigenvalues --  -19.19823 -19.19082 -14.42226 -14.42191 -14.39783
 Alpha  occ. eigenvalues --  -14.39069 -10.37486 -10.36789 -10.32580 -10.32252
 Alpha  occ. eigenvalues --  -10.30148 -10.29360 -10.29123 -10.28950 -10.28920
 Alpha  occ. eigenvalues --  -10.28728 -10.28580 -10.28197 -10.27327 -10.26991
 Alpha  occ. eigenvalues --  -10.26732 -10.26425 -10.26357 -10.26343 -10.26092
 Alpha  occ. eigenvalues --  -10.26054 -10.25916 -10.25854 -10.25529 -10.25377
 Alpha  occ. eigenvalues --  -10.25206 -10.25061 -10.24972 -10.24832 -10.24621
 Alpha  occ. eigenvalues --  -10.24354 -10.23718 -10.23634 -10.23624 -10.23499
 Alpha  occ. eigenvalues --  -10.23436 -10.23343 -10.23222 -10.23185 -10.23168
 Alpha  occ. eigenvalues --  -10.23015 -10.22894 -10.22733 -10.22597 -10.22588
 Alpha  occ. eigenvalues --  -10.22567 -10.22545 -10.22488 -10.22417 -10.22139
 Alpha  occ. eigenvalues --  -10.22106 -10.21920 -10.21721 -10.21708 -10.21625
 Alpha  occ. eigenvalues --  -10.21211  -3.15053  -1.87876  -1.87410  -1.87289
 Alpha  occ. eigenvalues --   -1.10804  -1.07775  -1.06814  -1.06675  -1.02217
 Alpha  occ. eigenvalues --   -1.00716  -0.98687  -0.97861  -0.97798  -0.96920
 Alpha  occ. eigenvalues --   -0.87683  -0.84836  -0.84539  -0.84388  -0.83403
 Alpha  occ. eigenvalues --   -0.82639  -0.82329  -0.81564  -0.81377  -0.80916
 Alpha  occ. eigenvalues --   -0.80636  -0.79879  -0.78615  -0.78404  -0.77832
 Alpha  occ. eigenvalues --   -0.76590  -0.76104  -0.75205  -0.75057  -0.74506
 Alpha  occ. eigenvalues --   -0.74044  -0.72920  -0.72680  -0.71739  -0.70563
 Alpha  occ. eigenvalues --   -0.69711  -0.69560  -0.69416  -0.68557  -0.67980
 Alpha  occ. eigenvalues --   -0.67836  -0.67102  -0.66395  -0.65275  -0.63298
 Alpha  occ. eigenvalues --   -0.62654  -0.62607  -0.61784  -0.60936  -0.60397
 Alpha  occ. eigenvalues --   -0.60099  -0.59468  -0.59314  -0.59127  -0.58125
 Alpha  occ. eigenvalues --   -0.57424  -0.56749  -0.56152  -0.56083  -0.54901
 Alpha  occ. eigenvalues --   -0.54748  -0.54150  -0.53953  -0.53503  -0.52777
 Alpha  occ. eigenvalues --   -0.52336  -0.51449  -0.50873  -0.50451  -0.50155
 Alpha  occ. eigenvalues --   -0.49738  -0.49549  -0.49252  -0.49031  -0.48521
 Alpha  occ. eigenvalues --   -0.48266  -0.48069  -0.47986  -0.47740  -0.47464
 Alpha  occ. eigenvalues --   -0.47151  -0.46925  -0.46814  -0.46453  -0.46285
 Alpha  occ. eigenvalues --   -0.46211  -0.45732  -0.45615  -0.45415  -0.45105
 Alpha  occ. eigenvalues --   -0.44939  -0.44861  -0.44669  -0.44567  -0.44379
 Alpha  occ. eigenvalues --   -0.44174  -0.44001  -0.43974  -0.43521  -0.43398
 Alpha  occ. eigenvalues --   -0.43359  -0.43266  -0.43020  -0.42889  -0.42359
 Alpha  occ. eigenvalues --   -0.42143  -0.42023  -0.41683  -0.41571  -0.41552
 Alpha  occ. eigenvalues --   -0.41149  -0.40919  -0.40877  -0.40725  -0.40543
 Alpha  occ. eigenvalues --   -0.40449  -0.40202  -0.40046  -0.39705  -0.39617
 Alpha  occ. eigenvalues --   -0.39354  -0.39292  -0.39138  -0.39008  -0.38843
 Alpha  occ. eigenvalues --   -0.38554  -0.38421  -0.38199  -0.37990  -0.37867
 Alpha  occ. eigenvalues --   -0.37747  -0.37523  -0.37296  -0.37179  -0.37121
 Alpha  occ. eigenvalues --   -0.36663  -0.36604  -0.36368  -0.36342  -0.36247
 Alpha  occ. eigenvalues --   -0.35928  -0.35735  -0.35576  -0.35351  -0.35177
 Alpha  occ. eigenvalues --   -0.34918  -0.34694  -0.34534  -0.34122  -0.33296
 Alpha  occ. eigenvalues --   -0.33262  -0.33108  -0.32672  -0.32640  -0.32594
 Alpha  occ. eigenvalues --   -0.31846  -0.31542  -0.31487  -0.30823  -0.30488
 Alpha  occ. eigenvalues --   -0.30394  -0.30108  -0.29821  -0.29613  -0.29295
 Alpha  occ. eigenvalues --   -0.29215  -0.28734  -0.28570  -0.27207  -0.26458
 Alpha  occ. eigenvalues --   -0.26166  -0.25535  -0.24969  -0.23682  -0.21304
 Alpha  occ. eigenvalues --   -0.19182
 Alpha virt. eigenvalues --   -0.11515  -0.05744  -0.04177  -0.02230  -0.01699
 Alpha virt. eigenvalues --   -0.01549  -0.01326   0.01235   0.01453   0.02829
 Alpha virt. eigenvalues --    0.04068   0.04556   0.04562   0.05317   0.05700

 Mulliken charges:
               1
     1  Mg   0.974644
     2  C   -0.007585
     3  C   -0.059886
     4  C   -0.044368
     5  C   -0.070187
     6  N   -0.401152
     7  C    0.043899
     8  C   -0.116690
     9  C   -0.148320
    10  C    0.117238
    11  C    0.011023
    12  C    0.012283
    13  C    0.018064
    14  C    0.220358
    15  O   -0.264338
    16  O   -0.371182
    17  N   -0.521995
    18  C    0.141198
    19  C   -0.193860
    20  C   -0.070617
    21  C    0.159590
    22  C    0.062626
    23  C    0.044177
    24  O   -0.213096
    25  C   -0.041597
    26  N   -0.372102
    27  C    0.055001
    28  C   -0.125027
    29  C   -0.070708
    30  C    0.050765
    31  C   -0.016233
    32  C   -0.011017
    33  C   -0.063560
    34  N   -0.433519
    35  C    0.151454
    36  C   -0.175559
    37  C   -0.065011
    38  C    0.128519
    39  C    0.063811
    40  C    0.165997
    41  O   -0.163838
    42  C   -0.079223
    43  C    0.306731
    44  O   -0.274290
    45  O   -0.425852
    46  C    0.120837
    47  C    0.257357
    48  C   -0.136335
    49  C   -0.244688
    50  C    0.007437
    51  C    0.008133
    52  C   -0.018738
    53  C   -0.034083
    54  C   -0.189725
    55  C   -0.024551
    56  C   -0.009631
    57  C   -0.086941
    58  C   -0.004974
    59  C   -0.211396
    60  C   -0.025265
    61  C    0.008867
    62  C   -0.060909
    63  C   -0.012136
    64  C   -0.255618
    65  C   -0.040505
    66  C   -0.002183
    67  H    0.002744
    68  H    0.029953
    69  H    0.004070
    70  H    0.064485
    71  H    0.054937
    72  H    0.050093
    73  H    0.028393
    74  H    0.048893
    75  H    0.040806
    76  H    0.060060
    77  H    0.044724
    78  H    0.057952
    79  H    0.052567
    80  H    0.068281
    81  H    0.020759
    82  H    0.053942
    83  H    0.073079
    84  H    0.050456
    85  H    0.047459
    86  H    0.053723
    87  H    0.037457
    88  H    0.050638
    89  H    0.056084
    90  H    0.035675
    91  H    0.045207
    92  H    0.042507
    93  H    0.042577
    94  H    0.029107
    95  H    0.044784
    96  H    0.066198
    97  H    0.040945
    98  H    0.081852
    99  H    0.055749
   100  H    0.068712
   101  H    0.070636
   102  H    0.058760
   103  H    0.055182
   104  H    0.033882
   105  H    0.054647
   106  H    0.053311
   107  H    0.032952
   108  H    0.055343
   109  H    0.016225
   110  H    0.040612
   111  H    0.034915
   112  H    0.020629
   113  H    0.018608
   114  H    0.025796
   115  H    0.036559
   116  H    0.033511
   117  H    0.041233
   118  H    0.039871
   119  H    0.024320
   120  H    0.046012
   121  H    0.044216
   122  H    0.038977
   123  H    0.018301
   124  H    0.032230
   125  H    0.020945
   126  H    0.032144
   127  H    0.033943
   128  H    0.020511
   129  H    0.032034
   130  H    0.013485
   131  H    0.025497
   132  H    0.023272
   133  H    0.041938
   134  H    0.037395
   135  H    0.022539
   136  H    0.039061
   137  H    0.037881
   138  H    0.050363
   139  H    0.037569
   140  H    0.028307
 Sum of Mulliken charges =  -0.00000

 Dipole moment (field-independent basis, Debye):
    X=             -1.1132    Y=              2.7850    Z=              0.0885  Tot=              3.0006
 Quadrupole moment (field-independent basis, Debye-Ang):
   XX=           -372.9146   YY=           -418.0228   ZZ=           -411.5545
   XY=              0.2624   XZ=             20.8161   YZ=             -0.9578

 Normal termination of Gaussian 16 at Sat Apr 30 01:20:47 2022.
