 Gaussian 16, Revision A.03,
 Gaussian 16:  ES64L-G16RevA.03 25-Dec-2016

 --------------------------------
 #p wB97XD/Def2SVP td=(nstates=5)
 --------------------------------

 --------------------------------------------------
 step_51_chromophore_4 TDDFT with wB97XD functional
 --------------------------------------------------
 Symbolic Z-matrix:
 Charge =  0 Multiplicity = 1

                         Standard orientation:
 ---------------------------------------------------------------------
 Center     Atomic      Atomic             Coordinates (Angstroms)
 Number     Number       Type             X           Y           Z
 ---------------------------------------------------------------------
      1         12           0        5.678240    0.692527    0.342782
      2          6           0        3.577677   -2.236197    0.025829
      3          6           0        3.123285    2.610907   -0.655101
      4          6           0        7.928174    3.180240    0.176991
      5          6           0        8.414697   -1.731489    0.460591
      6          7           0        3.626304    0.260221   -0.281516
      7          6           0        2.960641   -0.967279   -0.074780
      8          6           0        1.415471   -0.717608   -0.329812
      9          6           0        1.332496    0.817326   -0.768592
     10          6           0        2.817693    1.266150   -0.586987
     11          6           0        0.748045    1.129631   -2.140538
     12          6           0        0.574839   -1.010247    0.881245
     13          6           0       -0.899816   -0.552475    0.874911
     14          6           0       -2.036104   -1.505959    1.132210
     15          8           0       -2.713567   -1.566655    2.182951
     16          8           0       -2.137313   -2.471450    0.111202
     17          7           0        5.572725    2.657150   -0.130636
     18          6           0        4.422542    3.268742   -0.579789
     19          6           0        4.696368    4.658049   -0.815853
     20          6           0        6.096502    4.910247   -0.501009
     21          6           0        6.596741    3.560618   -0.146059
     22          6           0        3.616343    5.667604   -1.204597
     23          6           0        7.015536    6.141690   -0.642308
     24          8           0        8.175131    6.254794   -0.379531
     25          6           0        6.496552    7.522092   -0.989735
     26          7           0        7.873645    0.685846    0.250253
     27          6           0        8.541023    1.878966    0.270851
     28          6           0       10.100202    1.626995    0.306995
     29          6           0       10.217452    0.118155    0.561326
     30          6           0        8.775697   -0.357745    0.404792
     31          6           0       10.753419    1.934558   -1.077607
     32          6           0       10.746823   -0.166952    1.947437
     33          6           0       12.130025   -0.695769    2.005877
     34          7           0        5.971496   -1.473131    0.259459
     35          6           0        7.121170   -2.239958    0.391514
     36          6           0        6.830888   -3.638791    0.333618
     37          6           0        5.424122   -3.697927    0.252007
     38          6           0        4.938638   -2.352462    0.170727
     39          6           0        7.748389   -4.803440    0.487759
     40          6           0        4.253803   -4.591004    0.284669
     41          8           0        4.183707   -5.769796    0.402125
     42          6           0        3.021158   -3.661222    0.110203
     43          6           0        2.232085   -4.119059   -1.001174
     44          8           0        2.693445   -4.249134   -2.162687
     45          8           0        0.971200   -4.684382   -0.525427
     46          6           0        0.050301   -5.303796   -1.537088
     47          6           0       -3.307392   -3.281287    0.193300
     48          6           0       -4.610132   -2.529828    0.369464
     49          6           0       -5.859688   -3.098338    0.307291
     50          6           0       -6.141655   -4.564925    0.112994
     51          6           0       -7.045811   -2.136612    0.305247
     52          6           0       -7.349330   -1.552970   -1.105614
     53          6           0       -7.572164   -0.005160   -0.885179
     54          6           0       -9.040719    0.437859   -0.682766
     55          6           0       -9.793749    0.325156   -1.993449
     56          6           0       -9.342000    1.792329   -0.016445
     57          6           0       -9.902802    1.504556    1.380565
     58          6           0      -10.464484    2.911798    1.904593
     59          6           0      -11.954018    2.785195    2.231571
     60          6           0      -12.310686    3.699406    3.448502
     61          6           0      -12.844763    3.081607    0.907132
     62          6           0      -13.981166    2.096850    0.692550
     63          6           0      -14.297056    1.703352   -0.798718
     64          6           0      -14.210866    0.149377   -0.988550
     65          6           0      -13.617985   -0.206569   -2.397412
     66          6           0      -15.540328   -0.616246   -0.569247
     67          1           0        2.359865    3.325790   -0.971251
     68          1           0        8.686512    3.941610    0.371541
     69          1           0        9.220581   -2.460971    0.567016
     70          1           0        1.183671   -1.425542   -1.124828
     71          1           0        0.815043    1.519088   -0.114389
     72          1           0        1.464154    1.669803   -2.760806
     73          1           0       -0.096496    1.817301   -2.087569
     74          1           0        0.314373    0.272597   -2.656916
     75          1           0        1.063432   -0.612032    1.770234
     76          1           0        0.508281   -2.090955    1.010789
     77          1           0       -0.968049   -0.202873   -0.155656
     78          1           0       -1.053595    0.354315    1.461163
     79          1           0        2.988732    5.807836   -0.324105
     80          1           0        3.022252    5.428767   -2.085909
     81          1           0        4.070258    6.658786   -1.235464
     82          1           0        7.380193    8.112765   -1.228962
     83          1           0        5.973871    7.985147   -0.152901
     84          1           0        5.938296    7.389696   -1.915950
     85          1           0       10.570391    2.291567    1.032511
     86          1           0       10.805264   -0.268273   -0.270472
     87          1           0       10.329514    1.147808   -1.700970
     88          1           0       11.837573    1.824058   -1.066751
     89          1           0       10.509216    2.870420   -1.581621
     90          1           0       10.116429   -0.955230    2.358323
     91          1           0       10.805795    0.635023    2.683600
     92          1           0       12.073942   -1.715223    2.387639
     93          1           0       12.805149   -0.090954    2.611298
     94          1           0       12.509516   -0.702264    0.984114
     95          1           0        8.339014   -4.967554   -0.413389
     96          1           0        7.217289   -5.742200    0.650350
     97          1           0        8.551419   -4.697410    1.216950
     98          1           0        2.323951   -3.645101    0.948777
     99          1           0       -0.557818   -4.428411   -1.767362
    100          1           0       -0.522023   -6.102771   -1.065752
    101          1           0        0.479918   -5.644819   -2.478657
    102          1           0       -3.187027   -3.954363    1.042374
    103          1           0       -3.483863   -3.835086   -0.728682
    104          1           0       -4.477764   -1.448327    0.324498
    105          1           0       -6.616342   -4.736170   -0.853359
    106          1           0       -6.775978   -4.799154    0.968181
    107          1           0       -5.369641   -5.330316    0.178623
    108          1           0       -6.924546   -1.386142    1.085373
    109          1           0       -7.930190   -2.708313    0.584668
    110          1           0       -8.162944   -2.043850   -1.639424
    111          1           0       -6.426162   -1.640775   -1.678759
    112          1           0       -7.147683    0.543969   -1.725906
    113          1           0       -6.986682    0.327530   -0.028269
    114          1           0       -9.528991   -0.304526   -0.051096
    115          1           0       -9.198944   -0.052156   -2.824247
    116          1           0      -10.282986    1.237711   -2.334770
    117          1           0      -10.612086   -0.334741   -1.703781
    118          1           0       -9.914498    2.517051   -0.595116
    119          1           0       -8.416593    2.246584    0.338665
    120          1           0       -9.146157    1.120759    2.064581
    121          1           0      -10.694234    0.776292    1.208594
    122          1           0      -10.386133    3.809387    1.291212
    123          1           0      -10.006987    3.027962    2.887274
    124          1           0      -12.047921    1.774201    2.627655
    125          1           0      -13.361586    3.832511    3.706932
    126          1           0      -12.013944    4.743392    3.353255
    127          1           0      -11.919575    3.200700    4.334841
    128          1           0      -12.170702    3.042740    0.050755
    129          1           0      -13.290951    4.075153    0.893305
    130          1           0      -14.875826    2.595676    1.064411
    131          1           0      -13.993415    1.246303    1.374856
    132          1           0      -13.415603    2.099841   -1.302258
    133          1           0      -15.243804    2.163917   -1.079556
    134          1           0      -13.445223   -0.216041   -0.303987
    135          1           0      -14.302648    0.249296   -3.112728
    136          1           0      -13.541476   -1.253529   -2.692674
    137          1           0      -12.679453    0.315048   -2.586916
    138          1           0      -15.387469   -1.221510    0.324399
    139          1           0      -15.843067   -1.108916   -1.493638
    140          1           0      -16.262229    0.171299   -0.355364
 ---------------------------------------------------------------------

 SCF Done:  E(RwB97XD) =  -3007.81524634     A.U. after   20 cycles

 Excitation energies and oscillator strengths:

 Excited State   1:      Singlet-A      1.6384 eV  756.73 nm  f=0.3836  <S**2>=0.000
     245 -> 248        0.19532
     246 -> 247        0.68172
     245 <- 248        0.12113
 This state for optimization and/or second-order correction.
 Total Energy, E(TD-HF/TD-DFT) =  -3007.75503527
 Copying the excited state density for this state as the 1-particle RhoCI density.

 Excited State   2:      Singlet-A      2.1616 eV  573.57 nm  f=0.1037  <S**2>=0.000
     245 -> 247        0.63365
     246 -> 248       -0.30290

 Excited State   3:      Singlet-A      3.3893 eV  365.81 nm  f=0.0041  <S**2>=0.000
     241 -> 247       -0.14872
     242 -> 249       -0.11384
     243 -> 247        0.65701

 Excited State   4:      Singlet-A      3.4321 eV  361.25 nm  f=0.0771  <S**2>=0.000
     242 -> 247        0.52429
     242 -> 249       -0.18791
     242 -> 250       -0.11308
     242 -> 251        0.12252
     243 -> 249       -0.14178
     246 -> 248       -0.28058

 Excited State   5:      Singlet-A      3.5045 eV  353.79 nm  f=0.2826  <S**2>=0.000
     241 -> 247        0.41194
     242 -> 247        0.20939
     242 -> 249       -0.14501
     245 -> 247        0.17753
     246 -> 248        0.43751

 The electronic state is 1-A.
 Alpha  occ. eigenvalues --  -46.95950 -19.30723 -19.29795 -19.25551 -19.25303
 Alpha  occ. eigenvalues --  -19.24657 -19.23883 -14.47341 -14.47209 -14.44719
 Alpha  occ. eigenvalues --  -14.44007 -10.44292 -10.43687 -10.39456 -10.39074
 Alpha  occ. eigenvalues --  -10.36458 -10.35611 -10.35434 -10.35341 -10.35238
 Alpha  occ. eigenvalues --  -10.35223 -10.34899 -10.34532 -10.33613 -10.33431
 Alpha  occ. eigenvalues --  -10.32999 -10.32762 -10.32620 -10.32589 -10.32504
 Alpha  occ. eigenvalues --  -10.32436 -10.32336 -10.32115 -10.31970 -10.31603
 Alpha  occ. eigenvalues --  -10.31573 -10.31451 -10.31372 -10.31306 -10.31121
 Alpha  occ. eigenvalues --  -10.30694 -10.30107 -10.30099 -10.29897 -10.29896
 Alpha  occ. eigenvalues --  -10.29773 -10.29691 -10.29542 -10.29510 -10.29477
 Alpha  occ. eigenvalues --  -10.29408 -10.29276 -10.29087 -10.29060 -10.28970
 Alpha  occ. eigenvalues --  -10.28922 -10.28908 -10.28881 -10.28791 -10.28531
 Alpha  occ. eigenvalues --  -10.28479 -10.28281 -10.28157 -10.28091 -10.28063
 Alpha  occ. eigenvalues --  -10.27658  -3.21858  -1.95429  -1.94959  -1.94835
 Alpha  occ. eigenvalues --   -1.18204  -1.15259  -1.14263  -1.14132  -1.09588
 Alpha  occ. eigenvalues --   -1.08134  -1.06067  -1.05217  -1.05193  -1.04288
 Alpha  occ. eigenvalues --   -0.95301  -0.92495  -0.92086  -0.92060  -0.91083
 Alpha  occ. eigenvalues --   -0.90240  -0.90002  -0.89158  -0.89013  -0.88594
 Alpha  occ. eigenvalues --   -0.88284  -0.87514  -0.86204  -0.86048  -0.85483
 Alpha  occ. eigenvalues --   -0.84241  -0.83761  -0.82866  -0.82698  -0.82205
 Alpha  occ. eigenvalues --   -0.81713  -0.80575  -0.80328  -0.79347  -0.78202
 Alpha  occ. eigenvalues --   -0.77350  -0.77206  -0.77101  -0.76241  -0.75638
 Alpha  occ. eigenvalues --   -0.75407  -0.74684  -0.73931  -0.72879  -0.70847
 Alpha  occ. eigenvalues --   -0.70255  -0.70180  -0.69324  -0.68584  -0.67911
 Alpha  occ. eigenvalues --   -0.67624  -0.66986  -0.66893  -0.66551  -0.65765
 Alpha  occ. eigenvalues --   -0.64963  -0.64384  -0.63711  -0.63605  -0.62459
 Alpha  occ. eigenvalues --   -0.62181  -0.61570  -0.61358  -0.60883  -0.60158
 Alpha  occ. eigenvalues --   -0.59867  -0.58905  -0.58235  -0.57863  -0.57521
 Alpha  occ. eigenvalues --   -0.57166  -0.56902  -0.56685  -0.56397  -0.56015
 Alpha  occ. eigenvalues --   -0.55646  -0.55526  -0.55289  -0.55003  -0.54878
 Alpha  occ. eigenvalues --   -0.54590  -0.54438  -0.54227  -0.53817  -0.53590
 Alpha  occ. eigenvalues --   -0.53550  -0.53129  -0.53002  -0.52806  -0.52469
 Alpha  occ. eigenvalues --   -0.52245  -0.52143  -0.51976  -0.51909  -0.51708
 Alpha  occ. eigenvalues --   -0.51480  -0.51327  -0.51304  -0.50847  -0.50750
 Alpha  occ. eigenvalues --   -0.50665  -0.50580  -0.50336  -0.50171  -0.49560
 Alpha  occ. eigenvalues --   -0.49430  -0.49344  -0.48932  -0.48806  -0.48650
 Alpha  occ. eigenvalues --   -0.48401  -0.48173  -0.48070  -0.48012  -0.47753
 Alpha  occ. eigenvalues --   -0.47688  -0.47440  -0.47259  -0.46978  -0.46767
 Alpha  occ. eigenvalues --   -0.46517  -0.46460  -0.46301  -0.46127  -0.45991
 Alpha  occ. eigenvalues --   -0.45634  -0.45504  -0.45284  -0.45129  -0.45038
 Alpha  occ. eigenvalues --   -0.44900  -0.44721  -0.44392  -0.44366  -0.44301
 Alpha  occ. eigenvalues --   -0.43773  -0.43687  -0.43497  -0.43411  -0.43374
 Alpha  occ. eigenvalues --   -0.42918  -0.42799  -0.42640  -0.42444  -0.42179
 Alpha  occ. eigenvalues --   -0.41970  -0.41669  -0.41543  -0.41192  -0.40318
 Alpha  occ. eigenvalues --   -0.40217  -0.40176  -0.39680  -0.39641  -0.39586
 Alpha  occ. eigenvalues --   -0.38903  -0.38558  -0.38368  -0.37827  -0.37578
 Alpha  occ. eigenvalues --   -0.37401  -0.37131  -0.36762  -0.36498  -0.36304
 Alpha  occ. eigenvalues --   -0.36178  -0.35543  -0.35418  -0.33791  -0.33485
 Alpha  occ. eigenvalues --   -0.32745  -0.32143  -0.32056  -0.30421  -0.26264
 Alpha  occ. eigenvalues --   -0.23334
 Alpha virt. eigenvalues --   -0.07407  -0.00356   0.02126   0.04291   0.04555
 Alpha virt. eigenvalues --    0.05123   0.05263   0.07986   0.08145   0.09512
 Alpha virt. eigenvalues --    0.10738   0.10986   0.11124   0.12094   0.12539

 Mulliken charges:
               1
     1  Mg   0.966880
     2  C   -0.020127
     3  C   -0.079247
     4  C   -0.057331
     5  C   -0.089761
     6  N   -0.367566
     7  C    0.011271
     8  C   -0.082093
     9  C   -0.125596
    10  C    0.106135
    11  C    0.018270
    12  C    0.020830
    13  C    0.038233
    14  C    0.212775
    15  O   -0.262667
    16  O   -0.371177
    17  N   -0.490542
    18  C    0.131995
    19  C   -0.184482
    20  C   -0.067326
    21  C    0.150591
    22  C    0.076669
    23  C    0.041162
    24  O   -0.208326
    25  C   -0.028342
    26  N   -0.339781
    27  C    0.035944
    28  C   -0.100101
    29  C   -0.039265
    30  C    0.036589
    31  C   -0.004057
    32  C    0.000305
    33  C   -0.048033
    34  N   -0.395116
    35  C    0.148262
    36  C   -0.171063
    37  C   -0.063918
    38  C    0.119376
    39  C    0.070610
    40  C    0.149006
    41  O   -0.154094
    42  C   -0.035232
    43  C    0.281691
    44  O   -0.268746
    45  O   -0.425228
    46  C    0.135272
    47  C    0.271122
    48  C   -0.145536
    49  C   -0.225445
    50  C    0.019627
    51  C    0.024122
    52  C   -0.006186
    53  C   -0.010679
    54  C   -0.156857
    55  C   -0.012297
    56  C    0.003910
    57  C   -0.064050
    58  C    0.011370
    59  C   -0.181928
    60  C   -0.013775
    61  C    0.028730
    62  C   -0.048947
    63  C    0.009104
    64  C   -0.226113
    65  C   -0.020076
    66  C    0.009408
    67  H   -0.004387
    68  H    0.026296
    69  H   -0.000273
    70  H    0.052102
    71  H    0.043638
    72  H    0.044292
    73  H    0.023084
    74  H    0.044010
    75  H    0.034738
    76  H    0.047381
    77  H    0.032547
    78  H    0.053966
    79  H    0.047228
    80  H    0.065087
    81  H    0.012820
    82  H    0.052042
    83  H    0.069506
    84  H    0.043963
    85  H    0.039230
    86  H    0.040746
    87  H    0.028271
    88  H    0.044315
    89  H    0.051088
    90  H    0.024888
    91  H    0.038568
    92  H    0.036984
    93  H    0.037515
    94  H    0.021137
    95  H    0.039868
    96  H    0.063983
    97  H    0.035995
    98  H    0.074015
    99  H    0.051974
   100  H    0.065389
   101  H    0.067356
   102  H    0.053137
   103  H    0.049507
   104  H    0.027168
   105  H    0.049118
   106  H    0.046916
   107  H    0.028839
   108  H    0.047084
   109  H    0.008157
   110  H    0.034321
   111  H    0.024825
   112  H    0.012409
   113  H    0.006437
   114  H    0.008726
   115  H    0.031064
   116  H    0.026865
   117  H    0.031157
   118  H    0.030243
   119  H    0.013640
   120  H    0.039116
   121  H    0.028578
   122  H    0.029695
   123  H    0.009384
   124  H    0.019217
   125  H    0.014981
   126  H    0.025960
   127  H    0.027690
   128  H    0.002474
   129  H    0.025695
   130  H    0.005152
   131  H    0.015278
   132  H    0.008969
   133  H    0.035783
   134  H    0.022166
   135  H    0.014638
   136  H    0.034872
   137  H    0.024321
   138  H    0.046169
   139  H    0.031582
   140  H    0.021150
 Sum of Mulliken charges =  -0.00000

 Dipole moment (field-independent basis, Debye):
    X=             -1.1997    Y=              2.8429    Z=              0.0705  Tot=              3.0865
 Quadrupole moment (field-independent basis, Debye-Ang):
   XX=           -373.4811   YY=           -416.2307   ZZ=           -411.2524
   XY=              0.9978   XZ=             20.9620   YZ=             -1.0638

 Normal termination of Gaussian 16 at Sat Apr 30 01:45:06 2022.
