 Gaussian 16, Revision A.03,
 Gaussian 16:  ES64L-G16RevA.03 25-Dec-2016

 --------------------
 #p ZINDO=(nstates=5)
 --------------------

 ---------------------------
 step_51_chromophore_4 ZINDO
 ---------------------------
 Symbolic Z-matrix:
 Charge =  0 Multiplicity = 1

                         Standard orientation:
 ---------------------------------------------------------------------
 Center     Atomic      Atomic             Coordinates (Angstroms)
 Number     Number       Type             X           Y           Z
 ---------------------------------------------------------------------
      1         12           0        5.678240    0.692527    0.342782
      2          6           0        3.577677   -2.236197    0.025829
      3          6           0        3.123285    2.610907   -0.655101
      4          6           0        7.928174    3.180240    0.176991
      5          6           0        8.414697   -1.731489    0.460591
      6          7           0        3.626304    0.260221   -0.281516
      7          6           0        2.960641   -0.967279   -0.074780
      8          6           0        1.415471   -0.717608   -0.329812
      9          6           0        1.332496    0.817326   -0.768592
     10          6           0        2.817693    1.266150   -0.586987
     11          6           0        0.748045    1.129631   -2.140538
     12          6           0        0.574839   -1.010247    0.881245
     13          6           0       -0.899816   -0.552475    0.874911
     14          6           0       -2.036104   -1.505959    1.132210
     15          8           0       -2.713567   -1.566655    2.182951
     16          8           0       -2.137313   -2.471450    0.111202
     17          7           0        5.572725    2.657150   -0.130636
     18          6           0        4.422542    3.268742   -0.579789
     19          6           0        4.696368    4.658049   -0.815853
     20          6           0        6.096502    4.910247   -0.501009
     21          6           0        6.596741    3.560618   -0.146059
     22          6           0        3.616343    5.667604   -1.204597
     23          6           0        7.015536    6.141690   -0.642308
     24          8           0        8.175131    6.254794   -0.379531
     25          6           0        6.496552    7.522092   -0.989735
     26          7           0        7.873645    0.685846    0.250253
     27          6           0        8.541023    1.878966    0.270851
     28          6           0       10.100202    1.626995    0.306995
     29          6           0       10.217452    0.118155    0.561326
     30          6           0        8.775697   -0.357745    0.404792
     31          6           0       10.753419    1.934558   -1.077607
     32          6           0       10.746823   -0.166952    1.947437
     33          6           0       12.130025   -0.695769    2.005877
     34          7           0        5.971496   -1.473131    0.259459
     35          6           0        7.121170   -2.239958    0.391514
     36          6           0        6.830888   -3.638791    0.333618
     37          6           0        5.424122   -3.697927    0.252007
     38          6           0        4.938638   -2.352462    0.170727
     39          6           0        7.748389   -4.803440    0.487759
     40          6           0        4.253803   -4.591004    0.284669
     41          8           0        4.183707   -5.769796    0.402125
     42          6           0        3.021158   -3.661222    0.110203
     43          6           0        2.232085   -4.119059   -1.001174
     44          8           0        2.693445   -4.249134   -2.162687
     45          8           0        0.971200   -4.684382   -0.525427
     46          6           0        0.050301   -5.303796   -1.537088
     47          6           0       -3.307392   -3.281287    0.193300
     48          6           0       -4.610132   -2.529828    0.369464
     49          6           0       -5.859688   -3.098338    0.307291
     50          6           0       -6.141655   -4.564925    0.112994
     51          6           0       -7.045811   -2.136612    0.305247
     52          6           0       -7.349330   -1.552970   -1.105614
     53          6           0       -7.572164   -0.005160   -0.885179
     54          6           0       -9.040719    0.437859   -0.682766
     55          6           0       -9.793749    0.325156   -1.993449
     56          6           0       -9.342000    1.792329   -0.016445
     57          6           0       -9.902802    1.504556    1.380565
     58          6           0      -10.464484    2.911798    1.904593
     59          6           0      -11.954018    2.785195    2.231571
     60          6           0      -12.310686    3.699406    3.448502
     61          6           0      -12.844763    3.081607    0.907132
     62          6           0      -13.981166    2.096850    0.692550
     63          6           0      -14.297056    1.703352   -0.798718
     64          6           0      -14.210866    0.149377   -0.988550
     65          6           0      -13.617985   -0.206569   -2.397412
     66          6           0      -15.540328   -0.616246   -0.569247
     67          1           0        2.359865    3.325790   -0.971251
     68          1           0        8.686512    3.941610    0.371541
     69          1           0        9.220581   -2.460971    0.567016
     70          1           0        1.183671   -1.425542   -1.124828
     71          1           0        0.815043    1.519088   -0.114389
     72          1           0        1.464154    1.669803   -2.760806
     73          1           0       -0.096496    1.817301   -2.087569
     74          1           0        0.314373    0.272597   -2.656916
     75          1           0        1.063432   -0.612032    1.770234
     76          1           0        0.508281   -2.090955    1.010789
     77          1           0       -0.968049   -0.202873   -0.155656
     78          1           0       -1.053595    0.354315    1.461163
     79          1           0        2.988732    5.807836   -0.324105
     80          1           0        3.022252    5.428767   -2.085909
     81          1           0        4.070258    6.658786   -1.235464
     82          1           0        7.380193    8.112765   -1.228962
     83          1           0        5.973871    7.985147   -0.152901
     84          1           0        5.938296    7.389696   -1.915950
     85          1           0       10.570391    2.291567    1.032511
     86          1           0       10.805264   -0.268273   -0.270472
     87          1           0       10.329514    1.147808   -1.700970
     88          1           0       11.837573    1.824058   -1.066751
     89          1           0       10.509216    2.870420   -1.581621
     90          1           0       10.116429   -0.955230    2.358323
     91          1           0       10.805795    0.635023    2.683600
     92          1           0       12.073942   -1.715223    2.387639
     93          1           0       12.805149   -0.090954    2.611298
     94          1           0       12.509516   -0.702264    0.984114
     95          1           0        8.339014   -4.967554   -0.413389
     96          1           0        7.217289   -5.742200    0.650350
     97          1           0        8.551419   -4.697410    1.216950
     98          1           0        2.323951   -3.645101    0.948777
     99          1           0       -0.557818   -4.428411   -1.767362
    100          1           0       -0.522023   -6.102771   -1.065752
    101          1           0        0.479918   -5.644819   -2.478657
    102          1           0       -3.187027   -3.954363    1.042374
    103          1           0       -3.483863   -3.835086   -0.728682
    104          1           0       -4.477764   -1.448327    0.324498
    105          1           0       -6.616342   -4.736170   -0.853359
    106          1           0       -6.775978   -4.799154    0.968181
    107          1           0       -5.369641   -5.330316    0.178623
    108          1           0       -6.924546   -1.386142    1.085373
    109          1           0       -7.930190   -2.708313    0.584668
    110          1           0       -8.162944   -2.043850   -1.639424
    111          1           0       -6.426162   -1.640775   -1.678759
    112          1           0       -7.147683    0.543969   -1.725906
    113          1           0       -6.986682    0.327530   -0.028269
    114          1           0       -9.528991   -0.304526   -0.051096
    115          1           0       -9.198944   -0.052156   -2.824247
    116          1           0      -10.282986    1.237711   -2.334770
    117          1           0      -10.612086   -0.334741   -1.703781
    118          1           0       -9.914498    2.517051   -0.595116
    119          1           0       -8.416593    2.246584    0.338665
    120          1           0       -9.146157    1.120759    2.064581
    121          1           0      -10.694234    0.776292    1.208594
    122          1           0      -10.386133    3.809387    1.291212
    123          1           0      -10.006987    3.027962    2.887274
    124          1           0      -12.047921    1.774201    2.627655
    125          1           0      -13.361586    3.832511    3.706932
    126          1           0      -12.013944    4.743392    3.353255
    127          1           0      -11.919575    3.200700    4.334841
    128          1           0      -12.170702    3.042740    0.050755
    129          1           0      -13.290951    4.075153    0.893305
    130          1           0      -14.875826    2.595676    1.064411
    131          1           0      -13.993415    1.246303    1.374856
    132          1           0      -13.415603    2.099841   -1.302258
    133          1           0      -15.243804    2.163917   -1.079556
    134          1           0      -13.445223   -0.216041   -0.303987
    135          1           0      -14.302648    0.249296   -3.112728
    136          1           0      -13.541476   -1.253529   -2.692674
    137          1           0      -12.679453    0.315048   -2.586916
    138          1           0      -15.387469   -1.221510    0.324399
    139          1           0      -15.843067   -1.108916   -1.493638
    140          1           0      -16.262229    0.171299   -0.355364
 ---------------------------------------------------------------------

 SCF Done:  E(RZINDO/S) =  -474.021529151     A.U. after   20 cycles

 Excitation energies and oscillator strengths:

 Excited State   1:      Singlet-A      1.2484 eV  993.17 nm  f=0.6014  <S**2>=0.000
     175 ->178        -0.19923
     176 ->177         0.66002
 This state for optimization and/or second-order correction.
 Total Energy, E(CIS/TDA) =  -473.975652547
 Copying the excited state density for this state as the 1-particle RhoCI density.

 Excited State   2:      Singlet-A      1.9005 eV  652.37 nm  f=0.0375  <S**2>=0.000
     175 ->177         0.54137
     176 ->178         0.42817

 Excited State   3:      Singlet-A      2.7317 eV  453.87 nm  f=0.0009  <S**2>=0.000
     170 ->177         0.29395
     170 ->179         0.25021
     170 ->181         0.21779
     170 ->182        -0.17360
     170 ->183         0.30526
     170 ->185         0.22405
     170 ->187        -0.16941
     170 ->189        -0.11361

 Excited State   4:      Singlet-A      2.9763 eV  416.57 nm  f=0.4330  <S**2>=0.000
     175 ->177        -0.24849
     176 ->178         0.38003
     176 ->179         0.40800
     176 ->181         0.25303
     176 ->182         0.16529

 Excited State   5:      Singlet-A      3.0501 eV  406.50 nm  f=0.5380  <S**2>=0.000
     168 ->177         0.14154
     168 ->179        -0.16486
     168 ->183         0.10924
     168 ->185        -0.10012
     175 ->177        -0.25783
     176 ->178         0.32052
     176 ->179        -0.16108
     176 ->181        -0.30010
     176 ->182        -0.31293

 The electronic state is 1-A.
 Alpha  occ. eigenvalues --   -1.83151  -1.79650  -1.78896  -1.73605  -1.70555
 Alpha  occ. eigenvalues --   -1.68639  -1.65832  -1.62291  -1.59426  -1.58074
 Alpha  occ. eigenvalues --   -1.54199  -1.50990  -1.49862  -1.49208  -1.48255
 Alpha  occ. eigenvalues --   -1.44768  -1.43633  -1.38917  -1.38208  -1.37641
 Alpha  occ. eigenvalues --   -1.36520  -1.34592  -1.32899  -1.31080  -1.28953
 Alpha  occ. eigenvalues --   -1.27676  -1.24077  -1.21161  -1.19872  -1.18382
 Alpha  occ. eigenvalues --   -1.17604  -1.16461  -1.15126  -1.12865  -1.12288
 Alpha  occ. eigenvalues --   -1.11830  -1.10659  -1.10096  -1.04978  -1.03647
 Alpha  occ. eigenvalues --   -1.02038  -1.01403  -0.99766  -0.98011  -0.96746
 Alpha  occ. eigenvalues --   -0.95899  -0.93963  -0.93709  -0.92731  -0.92524
 Alpha  occ. eigenvalues --   -0.91861  -0.89858  -0.88690  -0.87501  -0.86252
 Alpha  occ. eigenvalues --   -0.85405  -0.84061  -0.83174  -0.82855  -0.81147
 Alpha  occ. eigenvalues --   -0.80162  -0.79050  -0.77820  -0.77237  -0.76464
 Alpha  occ. eigenvalues --   -0.75585  -0.75439  -0.74617  -0.74161  -0.73578
 Alpha  occ. eigenvalues --   -0.72682  -0.72508  -0.71894  -0.71573  -0.70834
 Alpha  occ. eigenvalues --   -0.70141  -0.68964  -0.68889  -0.68049  -0.67960
 Alpha  occ. eigenvalues --   -0.67645  -0.66826  -0.66644  -0.65935  -0.65857
 Alpha  occ. eigenvalues --   -0.65553  -0.65472  -0.65009  -0.64083  -0.63627
 Alpha  occ. eigenvalues --   -0.63377  -0.62665  -0.62493  -0.62141  -0.61904
 Alpha  occ. eigenvalues --   -0.61501  -0.61251  -0.60841  -0.60256  -0.59377
 Alpha  occ. eigenvalues --   -0.59133  -0.58899  -0.58808  -0.58726  -0.57952
 Alpha  occ. eigenvalues --   -0.57695  -0.57229  -0.57073  -0.56951  -0.56526
 Alpha  occ. eigenvalues --   -0.56378  -0.56096  -0.55789  -0.55460  -0.54984
 Alpha  occ. eigenvalues --   -0.54848  -0.54179  -0.53170  -0.52868  -0.52521
 Alpha  occ. eigenvalues --   -0.52395  -0.52369  -0.52338  -0.51861  -0.51351
 Alpha  occ. eigenvalues --   -0.51257  -0.50991  -0.50820  -0.50528  -0.50316
 Alpha  occ. eigenvalues --   -0.49973  -0.49920  -0.49618  -0.49417  -0.49259
 Alpha  occ. eigenvalues --   -0.49086  -0.48899  -0.48863  -0.48476  -0.47699
 Alpha  occ. eigenvalues --   -0.47453  -0.47378  -0.46954  -0.46839  -0.46616
 Alpha  occ. eigenvalues --   -0.46359  -0.46116  -0.45895  -0.45632  -0.45373
 Alpha  occ. eigenvalues --   -0.45217  -0.44894  -0.44283  -0.43583  -0.43523
 Alpha  occ. eigenvalues --   -0.43309  -0.42827  -0.42673  -0.42526  -0.42446
 Alpha  occ. eigenvalues --   -0.41788  -0.41676  -0.40895  -0.39635  -0.39545
 Alpha  occ. eigenvalues --   -0.38562  -0.37309  -0.35474  -0.34924  -0.33825
 Alpha  occ. eigenvalues --   -0.33345  -0.32857  -0.32548  -0.30651  -0.26751
 Alpha  occ. eigenvalues --   -0.22016
 Alpha virt. eigenvalues --   -0.08742  -0.02568  -0.00854   0.00470   0.00659
 Alpha virt. eigenvalues --    0.00885   0.02014   0.02902   0.04726   0.04731
 Alpha virt. eigenvalues --    0.06002   0.06581   0.07138   0.07756   0.08239

 Mulliken charges:
               1
     1  Mg   0.434740
     2  C   -0.033820
     3  C   -0.090597
     4  C   -0.057995
     5  C   -0.062442
     6  N   -0.279581
     7  C    0.100593
     8  C    0.009243
     9  C   -0.004365
    10  C    0.138116
    11  C   -0.049485
    12  C   -0.007834
    13  C    0.002501
    14  C    0.474335
    15  O   -0.511040
    16  O   -0.274095
    17  N   -0.313735
    18  C    0.094774
    19  C    0.002521
    20  C   -0.062008
    21  C    0.133377
    22  C   -0.048785
    23  C    0.324917
    24  O   -0.509732
    25  C   -0.029912
    26  N   -0.265208
    27  C    0.119282
    28  C    0.006335
    29  C    0.015198
    30  C    0.123023
    31  C   -0.055327
    32  C   -0.026104
    33  C   -0.057863
    34  N   -0.340853
    35  C    0.112328
    36  C    0.042551
    37  C   -0.061752
    38  C    0.121514
    39  C   -0.036038
    40  C    0.353364
    41  O   -0.490410
    42  C    0.068571
    43  C    0.483234
    44  O   -0.512483
    45  O   -0.291393
    46  C    0.072428
    47  C    0.106835
    48  C   -0.090431
    49  C   -0.013605
    50  C   -0.040870
    51  C   -0.019426
    52  C   -0.031189
    53  C   -0.032363
    54  C   -0.012722
    55  C   -0.062965
    56  C   -0.041315
    57  C   -0.039371
    58  C   -0.047068
    59  C   -0.018700
    60  C   -0.064035
    61  C   -0.031678
    62  C   -0.045169
    63  C   -0.036960
    64  C   -0.018583
    65  C   -0.063144
    66  C   -0.062769
    67  H    0.023062
    68  H    0.042251
    69  H    0.030907
    70  H    0.039839
    71  H    0.033084
    72  H    0.025915
    73  H    0.010806
    74  H    0.023689
    75  H    0.027036
    76  H    0.021405
    77  H    0.030931
    78  H    0.035711
    79  H    0.026246
    80  H    0.039605
    81  H    0.019823
    82  H    0.036026
    83  H    0.044997
    84  H    0.024234
    85  H    0.033148
    86  H    0.042346
    87  H    0.014797
    88  H    0.019796
    89  H    0.027039
    90  H    0.014886
    91  H    0.028948
    92  H    0.018852
    93  H    0.020457
    94  H    0.014879
    95  H    0.027945
    96  H    0.034868
    97  H    0.026699
    98  H    0.050371
    99  H    0.031452
   100  H    0.043289
   101  H    0.055906
   102  H    0.049146
   103  H    0.036753
   104  H    0.038023
   105  H    0.029957
   106  H    0.024985
   107  H    0.022139
   108  H    0.035386
   109  H    0.008068
   110  H    0.032581
   111  H    0.018001
   112  H    0.009912
   113  H    0.015209
   114  H    0.016755
   115  H    0.020506
   116  H    0.015470
   117  H    0.015116
   118  H    0.036245
   119  H    0.012041
   120  H    0.029885
   121  H    0.023258
   122  H    0.034732
   123  H    0.011215
   124  H    0.024250
   125  H    0.008788
   126  H    0.020516
   127  H    0.015708
   128  H    0.017125
   129  H    0.023758
   130  H    0.001445
   131  H    0.023253
   132  H    0.020256
   133  H    0.034114
   134  H    0.011864
   135  H    0.007034
   136  H    0.023293
   137  H    0.020242
   138  H    0.032018
   139  H    0.026839
   140  H    0.018303
 Sum of Mulliken charges =  -0.00000

 Dipole moment (field-independent basis, Debye):
    X=             -2.5896    Y=              3.5653    Z=             -0.6189  Tot=              4.4498
 N-N= 4.274880365384D+03 E-N= 0.000000000000D+00  KE=-9.223670979151D+03
 Leave Link  601 at Sat Apr 30 01:57:10 2022, MaxMem=  6710886400 cpu:               0.8 elap:               0.0
 (Enter /sw/apps/gaussian-16.0/g16/l9999.exe)
 1\1\GINC-BP1-COMPUTE139\SP\RZINDO CIS\STO-3G\C55H74Mg1N4O6\OF15641\30-
 Apr-2022\0\\#p ZINDO=(nstates=5)\\step_51_chromophore_4 ZINDO\\0,1\Mg,
 0,9.253,4.179,27.664\C,0,10.532,2.209,30.416\C,0,7.63,6.135,29.842\C,0
 ,7.755,5.518,24.973\C,0,10.339,1.352,25.613\N,0,9.056,4.164,29.843\C,0
 ,9.874,3.423,30.723\C,0,9.636,3.992,32.184\C,0,8.518,5.118,31.99\C,0,8
 .359,5.124,30.436\C,0,7.209,4.953,32.752\C,0,10.892,4.537,32.804\C,0,1
 0.766,5.37,34.098\C,0,11.528,5.026,35.35\O,0,12.521,5.646,35.793\O,0,1

 Normal termination of Gaussian 16 at Sat Apr 30 01:57:10 2022.
