 Gaussian 16, Revision A.03,
 Gaussian 16:  ES64L-G16RevA.03 25-Dec-2016

 ------------------------------
 #p blyp/Def2SVP td=(nstates=5)
 ------------------------------

 ---------------------------------------------------
 step_1601_chromophore_16 TDDFT with blyp functional
 ---------------------------------------------------
 Symbolic Z-matrix:
 Charge =  0 Multiplicity = 1

                         Standard orientation:
 ---------------------------------------------------------------------
 Center     Atomic      Atomic             Coordinates (Angstroms)
 Number     Number       Type             X           Y           Z
 ---------------------------------------------------------------------
      1         12           0        6.368170    0.747874    0.258491
      2          6           0        4.049439   -2.004183    0.212126
      3          6           0        3.777983    2.729112   -0.811690
      4          6           0        8.619018    3.042448   -0.124925
      5          6           0        8.902026   -1.635659    0.825304
      6          7           0        4.221601    0.323210   -0.490464
      7          6           0        3.449187   -0.831226   -0.218938
      8          6           0        1.923068   -0.566399   -0.595798
      9          6           0        1.918219    0.995443   -1.020633
     10          6           0        3.401100    1.374634   -0.789728
     11          6           0        1.473194    1.525697   -2.396590
     12          6           0        0.872449   -0.893129    0.552973
     13          6           0       -0.585291   -0.763746    0.284722
     14          6           0       -1.451694   -2.048665    0.405450
     15          8           0       -1.373844   -2.785705    1.376817
     16          8           0       -2.401382   -2.054460   -0.505364
     17          7           0        6.218803    2.574807   -0.295172
     18          6           0        5.118411    3.317164   -0.573355
     19          6           0        5.509768    4.685228   -0.798139
     20          6           0        6.828775    4.800332   -0.521493
     21          6           0        7.307379    3.434067   -0.358078
     22          6           0        4.436551    5.781088   -1.112638
     23          6           0        7.682362    6.052591   -0.348980
     24          8           0        8.895287    6.032719   -0.180593
     25          6           0        7.081364    7.406150   -0.477065
     26          7           0        8.503725    0.763667    0.416733
     27          6           0        9.265751    1.842574    0.136346
     28          6           0       10.784428    1.601024    0.356283
     29          6           0       10.723314    0.066873    0.736520
     30          6           0        9.312676   -0.277554    0.686477
     31          6           0       11.577613    1.980384   -0.893014
     32          6           0       11.548538   -0.380375    1.969651
     33          6           0       10.891448   -0.439439    3.428799
     34          7           0        6.498107   -1.339874    0.663186
     35          6           0        7.594696   -2.179150    0.803673
     36          6           0        7.173077   -3.573941    0.971239
     37          6           0        5.799415   -3.514209    0.699408
     38          6           0        5.462297   -2.141236    0.439257
     39          6           0        7.950891   -4.752102    1.262236
     40          6           0        4.663311   -4.367642    0.616601
     41          8           0        4.550875   -5.585002    0.743120
     42          6           0        3.537477   -3.448165    0.295500
     43          6           0        2.727865   -3.911715   -0.867109
     44          8           0        3.072974   -3.968708   -2.049194
     45          8           0        1.475977   -4.393345   -0.340157
     46          6           0        0.623365   -5.177631   -1.243318
     47          6           0       -3.588018   -2.897644   -0.247661
     48          6           0       -4.778877   -2.521397   -1.114219
     49          6           0       -6.013104   -3.083182   -1.024335
     50          6           0       -6.361730   -4.131038   -0.050748
     51          6           0       -7.046399   -2.585033   -1.950109
     52          6           0       -7.641766   -1.183422   -1.677388
     53          6           0       -9.195953   -1.296902   -1.559303
     54          6           0      -10.030827   -0.079924   -1.886068
     55          6           0       -9.436497    1.172294   -1.162560
     56          6           0      -11.475430   -0.322922   -1.280880
     57          6           0      -12.675502    0.070685   -2.097963
     58          6           0      -13.307946    1.456894   -1.760304
     59          6           0      -14.568006    1.426387   -0.882749
     60          6           0      -15.815510    1.508921   -1.711384
     61          6           0      -14.658039    2.530731    0.183179
     62          6           0      -13.699816    2.160572    1.373541
     63          6           0      -14.283874    2.749213    2.680493
     64          6           0      -15.043191    1.776146    3.599968
     65          6           0      -14.504249    1.690377    4.981355
     66          6           0      -16.551969    2.052260    3.636570
     67          1           0        2.981396    3.369970   -1.193884
     68          1           0        9.359324    3.833893   -0.256236
     69          1           0        9.788403   -2.241713    1.025223
     70          1           0        1.465687   -1.141102   -1.400913
     71          1           0        1.364986    1.489547   -0.221778
     72          1           0        0.680302    2.201614   -2.075525
     73          1           0        1.022687    0.687903   -2.929043
     74          1           0        2.226943    2.123523   -2.909044
     75          1           0        0.994709   -0.133672    1.325930
     76          1           0        1.172554   -1.918473    0.766592
     77          1           0       -0.650753   -0.316330   -0.707277
     78          1           0       -1.008323   -0.129194    1.062785
     79          1           0        3.393639    5.462735   -1.081119
     80          1           0        4.633412    6.154189   -2.117614
     81          1           0        4.473330    6.620565   -0.419091
     82          1           0        7.827315    8.173073   -0.268125
     83          1           0        6.231453    7.502583    0.199073
     84          1           0        6.674764    7.498820   -1.483946
     85          1           0       11.133480    2.126540    1.245721
     86          1           0       11.089380   -0.532100   -0.096996
     87          1           0       12.272883    2.784139   -0.648468
     88          1           0       10.992078    2.328161   -1.743176
     89          1           0       12.031337    1.140521   -1.418217
     90          1           0       12.357882    0.337656    2.106065
     91          1           0       11.998934   -1.320196    1.648931
     92          1           0       11.538027    0.168624    4.061500
     93          1           0       11.039585   -1.421787    3.878145
     94          1           0        9.873215   -0.065164    3.326204
     95          1           0        7.309899   -5.300275    1.952232
     96          1           0        8.746107   -4.452444    1.944854
     97          1           0        8.336740   -5.366137    0.448362
     98          1           0        2.852642   -3.546326    1.137686
     99          1           0       -0.128756   -4.548357   -1.719505
    100          1           0        0.244158   -6.027990   -0.677971
    101          1           0        1.122739   -5.606844   -2.111983
    102          1           0       -3.944424   -2.647172    0.751319
    103          1           0       -3.481573   -3.980662   -0.312204
    104          1           0       -4.512993   -1.832864   -1.916792
    105          1           0       -7.409898   -4.054498    0.238579
    106          1           0       -5.692887   -4.261866    0.800406
    107          1           0       -6.306741   -5.127408   -0.489553
    108          1           0       -7.862164   -3.307397   -1.912310
    109          1           0       -6.663005   -2.615694   -2.969209
    110          1           0       -7.373195   -0.385508   -2.368958
    111          1           0       -7.249683   -0.820116   -0.727078
    112          1           0       -9.400489   -1.646880   -0.547296
    113          1           0       -9.397397   -2.048187   -2.322405
    114          1           0      -10.188827    0.031688   -2.959073
    115          1           0       -8.838317    0.886855   -0.297799
    116          1           0      -10.280916    1.775592   -0.828175
    117          1           0       -8.886921    1.741750   -1.912682
    118          1           0      -11.552807   -0.016783   -0.237891
    119          1           0      -11.670487   -1.391429   -1.182950
    120          1           0      -13.493040   -0.590646   -1.811388
    121          1           0      -12.516633   -0.031987   -3.171990
    122          1           0      -13.478355    1.980412   -2.701268
    123          1           0      -12.651957    2.180569   -1.276516
    124          1           0      -14.686492    0.492434   -0.331908
    125          1           0      -15.897351    0.583967   -2.281822
    126          1           0      -15.694852    2.234902   -2.515738
    127          1           0      -16.729091    1.755157   -1.169868
    128          1           0      -15.674634    2.649013    0.558858
    129          1           0      -14.409078    3.482286   -0.287529
    130          1           0      -12.665519    2.485456    1.256528
    131          1           0      -13.682116    1.071787    1.410151
    132          1           0      -14.767905    3.677109    2.377924
    133          1           0      -13.501647    3.242894    3.257580
    134          1           0      -15.051991    0.759611    3.206488
    135          1           0      -13.931790    0.770826    5.103403
    136          1           0      -15.241331    1.636000    5.782661
    137          1           0      -13.864866    2.541650    5.214565
    138          1           0      -16.884432    2.409950    4.611886
    139          1           0      -17.121906    1.137007    3.476803
    140          1           0      -16.693850    2.775135    2.833897
 ---------------------------------------------------------------------

 SCF Done:  E(RB-LYP) =  -3007.34336578     A.U. after   22 cycles

 Excitation energies and oscillator strengths:

 Excited State   1:      Singlet-A      1.7649 eV  702.48 nm  f=0.2589  <S**2>=0.000
     245 -> 248        0.18135
     246 -> 247        0.67878
     246 <- 247       -0.14698
 This state for optimization and/or second-order correction.
 Total Energy, E(TD-HF/TD-DFT) =  -3007.27850539
 Copying the excited state density for this state as the 1-particle RhoCI density.

 Excited State   2:      Singlet-A      1.9237 eV  644.51 nm  f=0.0408  <S**2>=0.000
     244 -> 247        0.60592
     245 -> 247        0.32489
     246 -> 247       -0.11613
     246 -> 248       -0.10003

 Excited State   3:      Singlet-A      2.0167 eV  614.78 nm  f=0.0628  <S**2>=0.000
     243 -> 247        0.21264
     244 -> 247       -0.33878
     245 -> 247        0.52914
     246 -> 248       -0.21212

 Excited State   4:      Singlet-A      2.0782 eV  596.59 nm  f=0.0065  <S**2>=0.000
     243 -> 247        0.67227
     245 -> 247       -0.17497

 Excited State   5:      Singlet-A      2.2665 eV  547.02 nm  f=0.0000  <S**2>=0.000
     242 -> 247        0.70709

 The electronic state is 1-A.
 Alpha  occ. eigenvalues --  -46.26740 -18.83320 -18.81160 -18.77073 -18.76068
 Alpha  occ. eigenvalues --  -18.75841 -18.74917 -14.02898 -14.02864 -14.01246
 Alpha  occ. eigenvalues --  -14.01042 -10.03832 -10.03761 -10.00165  -9.98511
 Alpha  occ. eigenvalues --   -9.98497  -9.97009  -9.96675  -9.96123  -9.96059
 Alpha  occ. eigenvalues --   -9.95886  -9.95798  -9.95739  -9.95522  -9.94553
 Alpha  occ. eigenvalues --   -9.94444  -9.94415  -9.93692  -9.93644  -9.93538
 Alpha  occ. eigenvalues --   -9.93404  -9.93310  -9.93174  -9.93148  -9.93126
 Alpha  occ. eigenvalues --   -9.93064  -9.92825  -9.92725  -9.92692  -9.92673
 Alpha  occ. eigenvalues --   -9.92593  -9.92518  -9.92332  -9.92245  -9.92216
 Alpha  occ. eigenvalues --   -9.92182  -9.92041  -9.91921  -9.91874  -9.91652
 Alpha  occ. eigenvalues --   -9.91603  -9.91441  -9.91394  -9.91359  -9.91262
 Alpha  occ. eigenvalues --   -9.91202  -9.91138  -9.91086  -9.90930  -9.90886
 Alpha  occ. eigenvalues --   -9.90812  -9.90791  -9.90312  -9.90306  -9.90200
 Alpha  occ. eigenvalues --   -9.90102  -2.91575  -1.71981  -1.71466  -1.71304
 Alpha  occ. eigenvalues --   -0.99422  -0.95102  -0.91962  -0.90439  -0.89871
 Alpha  occ. eigenvalues --   -0.88709  -0.87079  -0.86071  -0.85873  -0.83642
 Alpha  occ. eigenvalues --   -0.75400  -0.74494  -0.73483  -0.72744  -0.72552
 Alpha  occ. eigenvalues --   -0.72305  -0.71568  -0.71381  -0.70984  -0.70728
 Alpha  occ. eigenvalues --   -0.70163  -0.69094  -0.68425  -0.67406  -0.67008
 Alpha  occ. eigenvalues --   -0.66531  -0.65844  -0.65687  -0.65075  -0.64637
 Alpha  occ. eigenvalues --   -0.64131  -0.62781  -0.62302  -0.62193  -0.60906
 Alpha  occ. eigenvalues --   -0.60332  -0.60073  -0.59964  -0.59691  -0.59044
 Alpha  occ. eigenvalues --   -0.58159  -0.57598  -0.56410  -0.55557  -0.55285
 Alpha  occ. eigenvalues --   -0.54401  -0.53790  -0.52906  -0.52460  -0.51377
 Alpha  occ. eigenvalues --   -0.51286  -0.51017  -0.50691  -0.49961  -0.49800
 Alpha  occ. eigenvalues --   -0.49404  -0.49286  -0.48801  -0.47719  -0.46812
 Alpha  occ. eigenvalues --   -0.46748  -0.45769  -0.45559  -0.44819  -0.44035
 Alpha  occ. eigenvalues --   -0.43916  -0.43684  -0.43191  -0.43010  -0.42689
 Alpha  occ. eigenvalues --   -0.42026  -0.41990  -0.41478  -0.41376  -0.41045
 Alpha  occ. eigenvalues --   -0.40919  -0.40630  -0.40533  -0.40202  -0.40042
 Alpha  occ. eigenvalues --   -0.39922  -0.39781  -0.39548  -0.39393  -0.39156
 Alpha  occ. eigenvalues --   -0.38848  -0.38741  -0.38670  -0.38439  -0.38287
 Alpha  occ. eigenvalues --   -0.37969  -0.37867  -0.37823  -0.37490  -0.37118
 Alpha  occ. eigenvalues --   -0.37059  -0.36975  -0.36884  -0.36776  -0.36598
 Alpha  occ. eigenvalues --   -0.36328  -0.36310  -0.35867  -0.35717  -0.35469
 Alpha  occ. eigenvalues --   -0.35279  -0.35137  -0.35072  -0.34964  -0.34814
 Alpha  occ. eigenvalues --   -0.34574  -0.34454  -0.34375  -0.33861  -0.33728
 Alpha  occ. eigenvalues --   -0.33547  -0.33519  -0.33372  -0.33024  -0.32949
 Alpha  occ. eigenvalues --   -0.32825  -0.32773  -0.32621  -0.32405  -0.32364
 Alpha  occ. eigenvalues --   -0.32170  -0.31988  -0.31800  -0.31685  -0.31470
 Alpha  occ. eigenvalues --   -0.31305  -0.31204  -0.31069  -0.30914  -0.30522
 Alpha  occ. eigenvalues --   -0.30481  -0.30000  -0.29975  -0.29936  -0.29559
 Alpha  occ. eigenvalues --   -0.29314  -0.29166  -0.28985  -0.28883  -0.28563
 Alpha  occ. eigenvalues --   -0.28378  -0.28106  -0.27779  -0.27753  -0.27678
 Alpha  occ. eigenvalues --   -0.27416  -0.27080  -0.26912  -0.26877  -0.26700
 Alpha  occ. eigenvalues --   -0.26515  -0.25945  -0.25663  -0.25395  -0.25365
 Alpha  occ. eigenvalues --   -0.24900  -0.24681  -0.24196  -0.24018  -0.23898
 Alpha  occ. eigenvalues --   -0.23197  -0.22442  -0.21807  -0.21313  -0.21185
 Alpha  occ. eigenvalues --   -0.20460  -0.19664  -0.18866  -0.18349  -0.16966
 Alpha  occ. eigenvalues --   -0.15512
 Alpha virt. eigenvalues --   -0.11335  -0.06961  -0.05905  -0.04400  -0.03063
 Alpha virt. eigenvalues --   -0.02657  -0.02181  -0.02094  -0.01408   0.00454
 Alpha virt. eigenvalues --    0.01200   0.01448   0.02323   0.02702   0.02986

 Mulliken charges:
               1
     1  Mg   0.732978
     2  C   -0.006321
     3  C   -0.044898
     4  C   -0.035794
     5  C   -0.082575
     6  N   -0.214340
     7  C   -0.010287
     8  C   -0.010017
     9  C   -0.027441
    10  C   -0.008284
    11  C    0.152464
    12  C    0.079148
    13  C    0.129576
    14  C    0.060475
    15  O   -0.199220
    16  O   -0.226467
    17  N   -0.351159
    18  C    0.118604
    19  C   -0.133463
    20  C    0.069665
    21  C    0.111703
    22  C    0.149455
    23  C   -0.078637
    24  O   -0.158591
    25  C    0.145266
    26  N   -0.201806
    27  C   -0.048867
    28  C    0.062719
    29  C    0.066426
    30  C   -0.054962
    31  C    0.138007
    32  C    0.051106
    33  C    0.076971
    34  N   -0.242883
    35  C    0.150066
    36  C   -0.161367
    37  C    0.046529
    38  C    0.087050
    39  C    0.186166
    40  C   -0.050754
    41  O   -0.133656
    42  C    0.101651
    43  C    0.118175
    44  O   -0.172257
    45  O   -0.311204
    46  C    0.216431
    47  C    0.300119
    48  C   -0.134957
    49  C   -0.156018
    50  C    0.158355
    51  C    0.174944
    52  C    0.094311
    53  C    0.046784
    54  C   -0.036680
    55  C    0.125126
    56  C    0.086280
    57  C    0.101713
    58  C    0.114744
    59  C   -0.077439
    60  C    0.125187
    61  C    0.071560
    62  C    0.068667
    63  C    0.113942
    64  C   -0.064690
    65  C    0.117165
    66  C    0.098301
    67  H   -0.070938
    68  H   -0.051467
    69  H   -0.074167
    70  H   -0.017296
    71  H   -0.023725
    72  H   -0.015551
    73  H   -0.000805
    74  H    0.017397
    75  H   -0.033245
    76  H    0.013178
    77  H   -0.022455
    78  H    0.007831
    79  H   -0.010845
    80  H    0.001940
    81  H   -0.006197
    82  H   -0.002216
    83  H    0.001586
    84  H    0.005873
    85  H   -0.011525
    86  H   -0.028974
    87  H    0.005402
    88  H   -0.011098
    89  H   -0.020959
    90  H   -0.023219
    91  H   -0.016563
    92  H   -0.014359
    93  H   -0.004523
    94  H    0.022137
    95  H    0.000822
    96  H   -0.030040
    97  H    0.026066
    98  H    0.014710
    99  H    0.003917
   100  H    0.024237
   101  H    0.006958
   102  H    0.009503
   103  H    0.019048
   104  H   -0.034241
   105  H   -0.008742
   106  H   -0.012083
   107  H   -0.004337
   108  H   -0.047578
   109  H   -0.021386
   110  H   -0.037659
   111  H   -0.036111
   112  H   -0.021323
   113  H   -0.025603
   114  H   -0.048285
   115  H   -0.009647
   116  H   -0.013750
   117  H   -0.014881
   118  H   -0.038854
   119  H   -0.050349
   120  H   -0.035351
   121  H   -0.034377
   122  H   -0.048967
   123  H   -0.044541
   124  H   -0.039776
   125  H   -0.035821
   126  H   -0.037119
   127  H   -0.016877
   128  H   -0.034266
   129  H   -0.034118
   130  H   -0.025392
   131  H   -0.026908
   132  H   -0.040057
   133  H   -0.061776
   134  H   -0.036615
   135  H   -0.022396
   136  H   -0.027290
   137  H   -0.018468
   138  H   -0.022510
   139  H   -0.020369
   140  H   -0.015409
 Sum of Mulliken charges =  -0.00000

 Dipole moment (field-independent basis, Debye):
    X=             -2.4613    Y=              3.7804    Z=             -0.3035  Tot=              4.5212
 Quadrupole moment (field-independent basis, Debye-Ang):
   XX=           -370.6439   YY=           -422.6969   ZZ=           -407.9190
   XY=             12.7893   XZ=             14.9718   YZ=              0.9170

 Normal termination of Gaussian 16 at Thu Apr 28 14:46:11 2022.
