 Gaussian 16, Revision A.03,
 Gaussian 16:  ES64L-G16RevA.03 25-Dec-2016

 -----------------------------------
 #p cam-b3lyp/Def2SVP td=(nstates=5)
 -----------------------------------

 --------------------------------------------------------
 step_1601_chromophore_16 TDDFT with cam-b3lyp functional
 --------------------------------------------------------
 Symbolic Z-matrix:
 Charge =  0 Multiplicity = 1

                         Standard orientation:
 ---------------------------------------------------------------------
 Center     Atomic      Atomic             Coordinates (Angstroms)
 Number     Number       Type             X           Y           Z
 ---------------------------------------------------------------------
      1         12           0        6.368170    0.747874    0.258491
      2          6           0        4.049439   -2.004183    0.212126
      3          6           0        3.777983    2.729112   -0.811690
      4          6           0        8.619018    3.042448   -0.124925
      5          6           0        8.902026   -1.635659    0.825304
      6          7           0        4.221601    0.323210   -0.490464
      7          6           0        3.449187   -0.831226   -0.218938
      8          6           0        1.923068   -0.566399   -0.595798
      9          6           0        1.918219    0.995443   -1.020633
     10          6           0        3.401100    1.374634   -0.789728
     11          6           0        1.473194    1.525697   -2.396590
     12          6           0        0.872449   -0.893129    0.552973
     13          6           0       -0.585291   -0.763746    0.284722
     14          6           0       -1.451694   -2.048665    0.405450
     15          8           0       -1.373844   -2.785705    1.376817
     16          8           0       -2.401382   -2.054460   -0.505364
     17          7           0        6.218803    2.574807   -0.295172
     18          6           0        5.118411    3.317164   -0.573355
     19          6           0        5.509768    4.685228   -0.798139
     20          6           0        6.828775    4.800332   -0.521493
     21          6           0        7.307379    3.434067   -0.358078
     22          6           0        4.436551    5.781088   -1.112638
     23          6           0        7.682362    6.052591   -0.348980
     24          8           0        8.895287    6.032719   -0.180593
     25          6           0        7.081364    7.406150   -0.477065
     26          7           0        8.503725    0.763667    0.416733
     27          6           0        9.265751    1.842574    0.136346
     28          6           0       10.784428    1.601024    0.356283
     29          6           0       10.723314    0.066873    0.736520
     30          6           0        9.312676   -0.277554    0.686477
     31          6           0       11.577613    1.980384   -0.893014
     32          6           0       11.548538   -0.380375    1.969651
     33          6           0       10.891448   -0.439439    3.428799
     34          7           0        6.498107   -1.339874    0.663186
     35          6           0        7.594696   -2.179150    0.803673
     36          6           0        7.173077   -3.573941    0.971239
     37          6           0        5.799415   -3.514209    0.699408
     38          6           0        5.462297   -2.141236    0.439257
     39          6           0        7.950891   -4.752102    1.262236
     40          6           0        4.663311   -4.367642    0.616601
     41          8           0        4.550875   -5.585002    0.743120
     42          6           0        3.537477   -3.448165    0.295500
     43          6           0        2.727865   -3.911715   -0.867109
     44          8           0        3.072974   -3.968708   -2.049194
     45          8           0        1.475977   -4.393345   -0.340157
     46          6           0        0.623365   -5.177631   -1.243318
     47          6           0       -3.588018   -2.897644   -0.247661
     48          6           0       -4.778877   -2.521397   -1.114219
     49          6           0       -6.013104   -3.083182   -1.024335
     50          6           0       -6.361730   -4.131038   -0.050748
     51          6           0       -7.046399   -2.585033   -1.950109
     52          6           0       -7.641766   -1.183422   -1.677388
     53          6           0       -9.195953   -1.296902   -1.559303
     54          6           0      -10.030827   -0.079924   -1.886068
     55          6           0       -9.436497    1.172294   -1.162560
     56          6           0      -11.475430   -0.322922   -1.280880
     57          6           0      -12.675502    0.070685   -2.097963
     58          6           0      -13.307946    1.456894   -1.760304
     59          6           0      -14.568006    1.426387   -0.882749
     60          6           0      -15.815510    1.508921   -1.711384
     61          6           0      -14.658039    2.530731    0.183179
     62          6           0      -13.699816    2.160572    1.373541
     63          6           0      -14.283874    2.749213    2.680493
     64          6           0      -15.043191    1.776146    3.599968
     65          6           0      -14.504249    1.690377    4.981355
     66          6           0      -16.551969    2.052260    3.636570
     67          1           0        2.981396    3.369970   -1.193884
     68          1           0        9.359324    3.833893   -0.256236
     69          1           0        9.788403   -2.241713    1.025223
     70          1           0        1.465687   -1.141102   -1.400913
     71          1           0        1.364986    1.489547   -0.221778
     72          1           0        0.680302    2.201614   -2.075525
     73          1           0        1.022687    0.687903   -2.929043
     74          1           0        2.226943    2.123523   -2.909044
     75          1           0        0.994709   -0.133672    1.325930
     76          1           0        1.172554   -1.918473    0.766592
     77          1           0       -0.650753   -0.316330   -0.707277
     78          1           0       -1.008323   -0.129194    1.062785
     79          1           0        3.393639    5.462735   -1.081119
     80          1           0        4.633412    6.154189   -2.117614
     81          1           0        4.473330    6.620565   -0.419091
     82          1           0        7.827315    8.173073   -0.268125
     83          1           0        6.231453    7.502583    0.199073
     84          1           0        6.674764    7.498820   -1.483946
     85          1           0       11.133480    2.126540    1.245721
     86          1           0       11.089380   -0.532100   -0.096996
     87          1           0       12.272883    2.784139   -0.648468
     88          1           0       10.992078    2.328161   -1.743176
     89          1           0       12.031337    1.140521   -1.418217
     90          1           0       12.357882    0.337656    2.106065
     91          1           0       11.998934   -1.320196    1.648931
     92          1           0       11.538027    0.168624    4.061500
     93          1           0       11.039585   -1.421787    3.878145
     94          1           0        9.873215   -0.065164    3.326204
     95          1           0        7.309899   -5.300275    1.952232
     96          1           0        8.746107   -4.452444    1.944854
     97          1           0        8.336740   -5.366137    0.448362
     98          1           0        2.852642   -3.546326    1.137686
     99          1           0       -0.128756   -4.548357   -1.719505
    100          1           0        0.244158   -6.027990   -0.677971
    101          1           0        1.122739   -5.606844   -2.111983
    102          1           0       -3.944424   -2.647172    0.751319
    103          1           0       -3.481573   -3.980662   -0.312204
    104          1           0       -4.512993   -1.832864   -1.916792
    105          1           0       -7.409898   -4.054498    0.238579
    106          1           0       -5.692887   -4.261866    0.800406
    107          1           0       -6.306741   -5.127408   -0.489553
    108          1           0       -7.862164   -3.307397   -1.912310
    109          1           0       -6.663005   -2.615694   -2.969209
    110          1           0       -7.373195   -0.385508   -2.368958
    111          1           0       -7.249683   -0.820116   -0.727078
    112          1           0       -9.400489   -1.646880   -0.547296
    113          1           0       -9.397397   -2.048187   -2.322405
    114          1           0      -10.188827    0.031688   -2.959073
    115          1           0       -8.838317    0.886855   -0.297799
    116          1           0      -10.280916    1.775592   -0.828175
    117          1           0       -8.886921    1.741750   -1.912682
    118          1           0      -11.552807   -0.016783   -0.237891
    119          1           0      -11.670487   -1.391429   -1.182950
    120          1           0      -13.493040   -0.590646   -1.811388
    121          1           0      -12.516633   -0.031987   -3.171990
    122          1           0      -13.478355    1.980412   -2.701268
    123          1           0      -12.651957    2.180569   -1.276516
    124          1           0      -14.686492    0.492434   -0.331908
    125          1           0      -15.897351    0.583967   -2.281822
    126          1           0      -15.694852    2.234902   -2.515738
    127          1           0      -16.729091    1.755157   -1.169868
    128          1           0      -15.674634    2.649013    0.558858
    129          1           0      -14.409078    3.482286   -0.287529
    130          1           0      -12.665519    2.485456    1.256528
    131          1           0      -13.682116    1.071787    1.410151
    132          1           0      -14.767905    3.677109    2.377924
    133          1           0      -13.501647    3.242894    3.257580
    134          1           0      -15.051991    0.759611    3.206488
    135          1           0      -13.931790    0.770826    5.103403
    136          1           0      -15.241331    1.636000    5.782661
    137          1           0      -13.864866    2.541650    5.214565
    138          1           0      -16.884432    2.409950    4.611886
    139          1           0      -17.121906    1.137007    3.476803
    140          1           0      -16.693850    2.775135    2.833897
 ---------------------------------------------------------------------

 SCF Done:  E(RCAM-B3LYP) =  -3007.14123665     A.U. after   19 cycles

 Excitation energies and oscillator strengths:

 Excited State   1:      Singlet-A      1.6669 eV  743.81 nm  f=0.3637  <S**2>=0.000
     245 -> 248       -0.17689
     246 -> 247        0.68528
     245 <- 248       -0.10569
 This state for optimization and/or second-order correction.
 Total Energy, E(TD-HF/TD-DFT) =  -3007.07998015
 Copying the excited state density for this state as the 1-particle RhoCI density.

 Excited State   2:      Singlet-A      2.2300 eV  555.98 nm  f=0.1110  <S**2>=0.000
     245 -> 247        0.63652
     246 -> 248        0.29573

 Excited State   3:      Singlet-A      3.4381 eV  360.62 nm  f=0.3778  <S**2>=0.000
     241 -> 247       -0.15148
     241 -> 249       -0.11854
     243 -> 247       -0.36919
     245 -> 247       -0.21220
     246 -> 248        0.50397

 Excited State   4:      Singlet-A      3.5089 eV  353.34 nm  f=0.3780  <S**2>=0.000
     241 -> 247        0.22032
     241 -> 249        0.14838
     241 -> 250       -0.10193
     243 -> 247        0.44844
     245 -> 247       -0.20746
     246 -> 248        0.38339

 Excited State   5:      Singlet-A      3.5958 eV  344.80 nm  f=0.0033  <S**2>=0.000
     241 -> 247        0.46849
     241 -> 249        0.24118
     241 -> 250       -0.14081
     242 -> 247        0.23235
     243 -> 247       -0.34386

 The electronic state is 1-A.
 Alpha  occ. eigenvalues --  -46.88267 -19.26181 -19.24033 -19.20213 -19.19200
 Alpha  occ. eigenvalues --  -19.18912 -19.18024 -14.41970 -14.41497 -14.39812
 Alpha  occ. eigenvalues --  -14.39476 -10.39380 -10.38976 -10.35454 -10.33720
 Alpha  occ. eigenvalues --  -10.32576 -10.31611 -10.30619 -10.30596 -10.30591
 Alpha  occ. eigenvalues --  -10.30298 -10.30100 -10.30044 -10.29666 -10.28937
 Alpha  occ. eigenvalues --  -10.28597 -10.28385 -10.28204 -10.27707 -10.27631
 Alpha  occ. eigenvalues --  -10.27593 -10.27419 -10.27346 -10.27142 -10.27116
 Alpha  occ. eigenvalues --  -10.27109 -10.27030 -10.26886 -10.26839 -10.26696
 Alpha  occ. eigenvalues --  -10.26320 -10.26204 -10.26145 -10.26099 -10.25971
 Alpha  occ. eigenvalues --  -10.25970 -10.25951 -10.25826 -10.25638 -10.25562
 Alpha  occ. eigenvalues --  -10.25344 -10.25297 -10.25054 -10.25048 -10.24930
 Alpha  occ. eigenvalues --  -10.24869 -10.24824 -10.24693 -10.24621 -10.24560
 Alpha  occ. eigenvalues --  -10.24468 -10.24443 -10.24189 -10.23879 -10.23849
 Alpha  occ. eigenvalues --  -10.23685  -3.17016  -1.91894  -1.91462  -1.91356
 Alpha  occ. eigenvalues --   -1.17845  -1.13580  -1.10507  -1.08760  -1.07696
 Alpha  occ. eigenvalues --   -1.06558  -1.04897  -1.03751  -1.03473  -1.01084
 Alpha  occ. eigenvalues --   -0.92517  -0.91433  -0.90331  -0.89479  -0.89288
 Alpha  occ. eigenvalues --   -0.89039  -0.88194  -0.88052  -0.87775  -0.87388
 Alpha  occ. eigenvalues --   -0.86651  -0.85391  -0.84745  -0.83505  -0.83150
 Alpha  occ. eigenvalues --   -0.82602  -0.82037  -0.81748  -0.81029  -0.80436
 Alpha  occ. eigenvalues --   -0.79931  -0.78490  -0.77908  -0.77727  -0.76277
 Alpha  occ. eigenvalues --   -0.75703  -0.75434  -0.75247  -0.75000  -0.74312
 Alpha  occ. eigenvalues --   -0.73141  -0.72622  -0.71282  -0.70299  -0.69992
 Alpha  occ. eigenvalues --   -0.69070  -0.68346  -0.67536  -0.66885  -0.65513
 Alpha  occ. eigenvalues --   -0.65449  -0.65039  -0.64765  -0.63993  -0.63726
 Alpha  occ. eigenvalues --   -0.63268  -0.63211  -0.62688  -0.61399  -0.60513
 Alpha  occ. eigenvalues --   -0.60212  -0.59272  -0.59162  -0.58145  -0.57551
 Alpha  occ. eigenvalues --   -0.57334  -0.57060  -0.56402  -0.56040  -0.55799
 Alpha  occ. eigenvalues --   -0.55155  -0.54905  -0.54528  -0.54204  -0.53844
 Alpha  occ. eigenvalues --   -0.53755  -0.53650  -0.53561  -0.53005  -0.52786
 Alpha  occ. eigenvalues --   -0.52553  -0.52408  -0.52272  -0.52128  -0.51626
 Alpha  occ. eigenvalues --   -0.51345  -0.51222  -0.51103  -0.50956  -0.50847
 Alpha  occ. eigenvalues --   -0.50527  -0.50316  -0.50062  -0.49974  -0.49649
 Alpha  occ. eigenvalues --   -0.49482  -0.49385  -0.49169  -0.49072  -0.48716
 Alpha  occ. eigenvalues --   -0.48675  -0.48305  -0.48292  -0.48062  -0.47786
 Alpha  occ. eigenvalues --   -0.47618  -0.47194  -0.47137  -0.46996  -0.46726
 Alpha  occ. eigenvalues --   -0.46421  -0.46316  -0.46118  -0.45631  -0.45594
 Alpha  occ. eigenvalues --   -0.45373  -0.45214  -0.45159  -0.44984  -0.44713
 Alpha  occ. eigenvalues --   -0.44468  -0.44436  -0.44219  -0.44189  -0.43938
 Alpha  occ. eigenvalues --   -0.43871  -0.43614  -0.43450  -0.43438  -0.43095
 Alpha  occ. eigenvalues --   -0.42844  -0.42601  -0.42530  -0.42327  -0.42140
 Alpha  occ. eigenvalues --   -0.41922  -0.41426  -0.41306  -0.41159  -0.41142
 Alpha  occ. eigenvalues --   -0.40843  -0.40661  -0.40138  -0.39904  -0.39822
 Alpha  occ. eigenvalues --   -0.39309  -0.39136  -0.38867  -0.38703  -0.38641
 Alpha  occ. eigenvalues --   -0.38301  -0.37946  -0.37879  -0.37687  -0.37671
 Alpha  occ. eigenvalues --   -0.37445  -0.37115  -0.36464  -0.36165  -0.35999
 Alpha  occ. eigenvalues --   -0.35717  -0.35353  -0.35227  -0.34669  -0.34535
 Alpha  occ. eigenvalues --   -0.34070  -0.33423  -0.32515  -0.32024  -0.31180
 Alpha  occ. eigenvalues --   -0.30614  -0.30575  -0.29703  -0.29206  -0.23728
 Alpha  occ. eigenvalues --   -0.20786
 Alpha virt. eigenvalues --   -0.08397  -0.01695   0.00555   0.02491   0.02900
 Alpha virt. eigenvalues --    0.04711   0.04777   0.05508   0.05670   0.06939
 Alpha virt. eigenvalues --    0.07667   0.08694   0.08811   0.08949   0.09229

 Mulliken charges:
               1
     1  Mg   0.866439
     2  C   -0.029967
     3  C   -0.067793
     4  C   -0.053623
     5  C   -0.076308
     6  N   -0.286843
     7  C    0.023550
     8  C   -0.047482
     9  C   -0.078073
    10  C    0.017557
    11  C    0.087292
    12  C    0.035453
    13  C    0.060309
    14  C    0.140945
    15  O   -0.239955
    16  O   -0.291846
    17  N   -0.443100
    18  C    0.136306
    19  C   -0.145109
    20  C    0.001035
    21  C    0.135343
    22  C    0.095852
    23  C    0.002336
    24  O   -0.199474
    25  C    0.062631
    26  N   -0.268913
    27  C   -0.032971
    28  C    0.010167
    29  C    0.005282
    30  C   -0.037844
    31  C    0.074224
    32  C   -0.003821
    33  C    0.016188
    34  N   -0.327740
    35  C    0.141571
    36  C   -0.148630
    37  C   -0.039261
    38  C    0.128874
    39  C    0.129519
    40  C    0.050475
    41  O   -0.173979
    42  C    0.015773
    43  C    0.207814
    44  O   -0.208577
    45  O   -0.376446
    46  C    0.180357
    47  C    0.268368
    48  C   -0.148733
    49  C   -0.178519
    50  C    0.088324
    51  C    0.107851
    52  C    0.040942
    53  C   -0.003900
    54  C   -0.095437
    55  C    0.066020
    56  C    0.033244
    57  C    0.047314
    58  C    0.059386
    59  C   -0.140262
    60  C    0.068295
    61  C    0.022640
    62  C    0.019593
    63  C    0.051768
    64  C   -0.128536
    65  C    0.055745
    66  C    0.044468
    67  H   -0.039367
    68  H   -0.009974
    69  H   -0.036143
    70  H    0.013756
    71  H    0.010195
    72  H    0.008383
    73  H    0.023931
    74  H    0.043910
    75  H   -0.003234
    76  H    0.038648
    77  H    0.009958
    78  H    0.039662
    79  H    0.018135
    80  H    0.028345
    81  H    0.018711
    82  H    0.033571
    83  H    0.028168
    84  H    0.032791
    85  H    0.022724
    86  H    0.007771
    87  H    0.029388
    88  H    0.016334
    89  H    0.005639
    90  H    0.005619
    91  H    0.010102
    92  H    0.009879
    93  H    0.019130
    94  H    0.042918
    95  H    0.029404
    96  H   -0.003353
    97  H    0.053170
    98  H    0.060351
    99  H    0.022668
   100  H    0.046192
   101  H    0.032273
   102  H    0.037189
   103  H    0.044306
   104  H    0.001854
   105  H    0.016148
   106  H    0.014148
   107  H    0.022200
   108  H   -0.014921
   109  H    0.010722
   110  H   -0.007478
   111  H   -0.006513
   112  H    0.005166
   113  H    0.002314
   114  H   -0.015095
   115  H    0.014329
   116  H    0.007318
   117  H    0.009735
   118  H   -0.011752
   119  H   -0.018236
   120  H   -0.006829
   121  H   -0.004897
   122  H   -0.017182
   123  H   -0.017131
   124  H   -0.008923
   125  H   -0.010045
   126  H   -0.012252
   127  H    0.008691
   128  H   -0.007457
   129  H   -0.005930
   130  H    0.001634
   131  H   -0.001493
   132  H   -0.009835
   133  H   -0.028826
   134  H   -0.003897
   135  H    0.002411
   136  H   -0.001626
   137  H    0.005160
   138  H    0.001867
   139  H    0.003965
   140  H    0.005405
 Sum of Mulliken charges =  -0.00000

 Dipole moment (field-independent basis, Debye):
    X=             -2.4716    Y=              4.4019    Z=             -0.3760  Tot=              5.0623
 Quadrupole moment (field-independent basis, Debye-Ang):
   XX=           -365.9942   YY=           -417.9488   ZZ=           -408.0936
   XY=             15.7281   XZ=             15.5715   YZ=              0.5755

 Normal termination of Gaussian 16 at Thu Apr 28 13:48:06 2022.
