 Gaussian 16, Revision A.03,
 Gaussian 16:  ES64L-G16RevA.03 25-Dec-2016

 ---------------------------------
 #p PBE1PBE/Def2SVP td=(nstates=5)
 ---------------------------------

 ------------------------------------------------------
 step_1601_chromophore_16 TDDFT with PBE1PBE functional
 ------------------------------------------------------
 Symbolic Z-matrix:
 Charge =  0 Multiplicity = 1

                         Standard orientation:
 ---------------------------------------------------------------------
 Center     Atomic      Atomic             Coordinates (Angstroms)
 Number     Number       Type             X           Y           Z
 ---------------------------------------------------------------------
      1         12           0        6.368170    0.747874    0.258491
      2          6           0        4.049439   -2.004183    0.212126
      3          6           0        3.777983    2.729112   -0.811690
      4          6           0        8.619018    3.042448   -0.124925
      5          6           0        8.902026   -1.635659    0.825304
      6          7           0        4.221601    0.323210   -0.490464
      7          6           0        3.449187   -0.831226   -0.218938
      8          6           0        1.923068   -0.566399   -0.595798
      9          6           0        1.918219    0.995443   -1.020633
     10          6           0        3.401100    1.374634   -0.789728
     11          6           0        1.473194    1.525697   -2.396590
     12          6           0        0.872449   -0.893129    0.552973
     13          6           0       -0.585291   -0.763746    0.284722
     14          6           0       -1.451694   -2.048665    0.405450
     15          8           0       -1.373844   -2.785705    1.376817
     16          8           0       -2.401382   -2.054460   -0.505364
     17          7           0        6.218803    2.574807   -0.295172
     18          6           0        5.118411    3.317164   -0.573355
     19          6           0        5.509768    4.685228   -0.798139
     20          6           0        6.828775    4.800332   -0.521493
     21          6           0        7.307379    3.434067   -0.358078
     22          6           0        4.436551    5.781088   -1.112638
     23          6           0        7.682362    6.052591   -0.348980
     24          8           0        8.895287    6.032719   -0.180593
     25          6           0        7.081364    7.406150   -0.477065
     26          7           0        8.503725    0.763667    0.416733
     27          6           0        9.265751    1.842574    0.136346
     28          6           0       10.784428    1.601024    0.356283
     29          6           0       10.723314    0.066873    0.736520
     30          6           0        9.312676   -0.277554    0.686477
     31          6           0       11.577613    1.980384   -0.893014
     32          6           0       11.548538   -0.380375    1.969651
     33          6           0       10.891448   -0.439439    3.428799
     34          7           0        6.498107   -1.339874    0.663186
     35          6           0        7.594696   -2.179150    0.803673
     36          6           0        7.173077   -3.573941    0.971239
     37          6           0        5.799415   -3.514209    0.699408
     38          6           0        5.462297   -2.141236    0.439257
     39          6           0        7.950891   -4.752102    1.262236
     40          6           0        4.663311   -4.367642    0.616601
     41          8           0        4.550875   -5.585002    0.743120
     42          6           0        3.537477   -3.448165    0.295500
     43          6           0        2.727865   -3.911715   -0.867109
     44          8           0        3.072974   -3.968708   -2.049194
     45          8           0        1.475977   -4.393345   -0.340157
     46          6           0        0.623365   -5.177631   -1.243318
     47          6           0       -3.588018   -2.897644   -0.247661
     48          6           0       -4.778877   -2.521397   -1.114219
     49          6           0       -6.013104   -3.083182   -1.024335
     50          6           0       -6.361730   -4.131038   -0.050748
     51          6           0       -7.046399   -2.585033   -1.950109
     52          6           0       -7.641766   -1.183422   -1.677388
     53          6           0       -9.195953   -1.296902   -1.559303
     54          6           0      -10.030827   -0.079924   -1.886068
     55          6           0       -9.436497    1.172294   -1.162560
     56          6           0      -11.475430   -0.322922   -1.280880
     57          6           0      -12.675502    0.070685   -2.097963
     58          6           0      -13.307946    1.456894   -1.760304
     59          6           0      -14.568006    1.426387   -0.882749
     60          6           0      -15.815510    1.508921   -1.711384
     61          6           0      -14.658039    2.530731    0.183179
     62          6           0      -13.699816    2.160572    1.373541
     63          6           0      -14.283874    2.749213    2.680493
     64          6           0      -15.043191    1.776146    3.599968
     65          6           0      -14.504249    1.690377    4.981355
     66          6           0      -16.551969    2.052260    3.636570
     67          1           0        2.981396    3.369970   -1.193884
     68          1           0        9.359324    3.833893   -0.256236
     69          1           0        9.788403   -2.241713    1.025223
     70          1           0        1.465687   -1.141102   -1.400913
     71          1           0        1.364986    1.489547   -0.221778
     72          1           0        0.680302    2.201614   -2.075525
     73          1           0        1.022687    0.687903   -2.929043
     74          1           0        2.226943    2.123523   -2.909044
     75          1           0        0.994709   -0.133672    1.325930
     76          1           0        1.172554   -1.918473    0.766592
     77          1           0       -0.650753   -0.316330   -0.707277
     78          1           0       -1.008323   -0.129194    1.062785
     79          1           0        3.393639    5.462735   -1.081119
     80          1           0        4.633412    6.154189   -2.117614
     81          1           0        4.473330    6.620565   -0.419091
     82          1           0        7.827315    8.173073   -0.268125
     83          1           0        6.231453    7.502583    0.199073
     84          1           0        6.674764    7.498820   -1.483946
     85          1           0       11.133480    2.126540    1.245721
     86          1           0       11.089380   -0.532100   -0.096996
     87          1           0       12.272883    2.784139   -0.648468
     88          1           0       10.992078    2.328161   -1.743176
     89          1           0       12.031337    1.140521   -1.418217
     90          1           0       12.357882    0.337656    2.106065
     91          1           0       11.998934   -1.320196    1.648931
     92          1           0       11.538027    0.168624    4.061500
     93          1           0       11.039585   -1.421787    3.878145
     94          1           0        9.873215   -0.065164    3.326204
     95          1           0        7.309899   -5.300275    1.952232
     96          1           0        8.746107   -4.452444    1.944854
     97          1           0        8.336740   -5.366137    0.448362
     98          1           0        2.852642   -3.546326    1.137686
     99          1           0       -0.128756   -4.548357   -1.719505
    100          1           0        0.244158   -6.027990   -0.677971
    101          1           0        1.122739   -5.606844   -2.111983
    102          1           0       -3.944424   -2.647172    0.751319
    103          1           0       -3.481573   -3.980662   -0.312204
    104          1           0       -4.512993   -1.832864   -1.916792
    105          1           0       -7.409898   -4.054498    0.238579
    106          1           0       -5.692887   -4.261866    0.800406
    107          1           0       -6.306741   -5.127408   -0.489553
    108          1           0       -7.862164   -3.307397   -1.912310
    109          1           0       -6.663005   -2.615694   -2.969209
    110          1           0       -7.373195   -0.385508   -2.368958
    111          1           0       -7.249683   -0.820116   -0.727078
    112          1           0       -9.400489   -1.646880   -0.547296
    113          1           0       -9.397397   -2.048187   -2.322405
    114          1           0      -10.188827    0.031688   -2.959073
    115          1           0       -8.838317    0.886855   -0.297799
    116          1           0      -10.280916    1.775592   -0.828175
    117          1           0       -8.886921    1.741750   -1.912682
    118          1           0      -11.552807   -0.016783   -0.237891
    119          1           0      -11.670487   -1.391429   -1.182950
    120          1           0      -13.493040   -0.590646   -1.811388
    121          1           0      -12.516633   -0.031987   -3.171990
    122          1           0      -13.478355    1.980412   -2.701268
    123          1           0      -12.651957    2.180569   -1.276516
    124          1           0      -14.686492    0.492434   -0.331908
    125          1           0      -15.897351    0.583967   -2.281822
    126          1           0      -15.694852    2.234902   -2.515738
    127          1           0      -16.729091    1.755157   -1.169868
    128          1           0      -15.674634    2.649013    0.558858
    129          1           0      -14.409078    3.482286   -0.287529
    130          1           0      -12.665519    2.485456    1.256528
    131          1           0      -13.682116    1.071787    1.410151
    132          1           0      -14.767905    3.677109    2.377924
    133          1           0      -13.501647    3.242894    3.257580
    134          1           0      -15.051991    0.759611    3.206488
    135          1           0      -13.931790    0.770826    5.103403
    136          1           0      -15.241331    1.636000    5.782661
    137          1           0      -13.864866    2.541650    5.214565
    138          1           0      -16.884432    2.409950    4.611886
    139          1           0      -17.121906    1.137007    3.476803
    140          1           0      -16.693850    2.775135    2.833897
 ---------------------------------------------------------------------

 SCF Done:  E(RPBE1PBE) =  -3005.33067860     A.U. after   15 cycles

 Excitation energies and oscillator strengths:

 Excited State   1:      Singlet-A      1.8225 eV  680.29 nm  f=0.3474  <S**2>=0.000
     245 -> 248        0.16841
     246 -> 247        0.69245
     246 <- 247       -0.10825
 This state for optimization and/or second-order correction.
 Total Energy, E(TD-HF/TD-DFT) =  -3005.26370211
 Copying the excited state density for this state as the 1-particle RhoCI density.

 Excited State   2:      Singlet-A      2.2226 eV  557.83 nm  f=0.1146  <S**2>=0.000
     245 -> 247        0.64789
     246 -> 248       -0.26895

 Excited State   3:      Singlet-A      2.9975 eV  413.62 nm  f=0.0010  <S**2>=0.000
     242 -> 247        0.26334
     242 -> 249       -0.11079
     243 -> 247        0.61736
     243 -> 249       -0.12976

 Excited State   4:      Singlet-A      3.2018 eV  387.23 nm  f=0.0159  <S**2>=0.000
     241 -> 247       -0.14832
     242 -> 247        0.59107
     243 -> 247       -0.24189
     246 -> 248       -0.21447

 Excited State   5:      Singlet-A      3.2077 eV  386.53 nm  f=0.0120  <S**2>=0.000
     241 -> 247        0.63542
     241 -> 248        0.13703
     241 -> 249        0.12680
     241 -> 250       -0.10738
     242 -> 247        0.16652

 The electronic state is 1-A.
 Alpha  occ. eigenvalues --  -46.91675 -19.26882 -19.24739 -19.20430 -19.19337
 Alpha  occ. eigenvalues --  -19.19251 -19.18309 -14.41313 -14.41214 -14.39424
 Alpha  occ. eigenvalues --  -14.39119 -10.36413 -10.36049 -10.32511 -10.30858
 Alpha  occ. eigenvalues --  -10.29999 -10.29386 -10.28325 -10.28199 -10.28034
 Alpha  occ. eigenvalues --  -10.27829 -10.27821 -10.27809 -10.27486 -10.26622
 Alpha  occ. eigenvalues --  -10.26459 -10.26185 -10.25844 -10.25563 -10.25539
 Alpha  occ. eigenvalues --  -10.25206 -10.25015 -10.24985 -10.24836 -10.24682
 Alpha  occ. eigenvalues --  -10.24621 -10.24565 -10.24564 -10.24525 -10.24471
 Alpha  occ. eigenvalues --  -10.23728 -10.23709 -10.23704 -10.23666 -10.23511
 Alpha  occ. eigenvalues --  -10.23405 -10.23376 -10.23306 -10.23131 -10.23120
 Alpha  occ. eigenvalues --  -10.22856 -10.22733 -10.22706 -10.22582 -10.22560
 Alpha  occ. eigenvalues --  -10.22496 -10.22386 -10.22198 -10.22122 -10.22097
 Alpha  occ. eigenvalues --  -10.22046 -10.22035 -10.21982 -10.21270 -10.21222
 Alpha  occ. eigenvalues --  -10.21070  -3.13999  -1.86817  -1.86364  -1.86263
 Alpha  occ. eigenvalues --   -1.12732  -1.08309  -1.05156  -1.03533  -1.02603
 Alpha  occ. eigenvalues --   -1.01396  -0.99482  -0.98401  -0.98171  -0.95739
 Alpha  occ. eigenvalues --   -0.86922  -0.85582  -0.84423  -0.83780  -0.83454
 Alpha  occ. eigenvalues --   -0.83212  -0.82352  -0.82317  -0.82050  -0.81693
 Alpha  occ. eigenvalues --   -0.80979  -0.79642  -0.78965  -0.77762  -0.77423
 Alpha  occ. eigenvalues --   -0.76873  -0.76148  -0.75935  -0.75307  -0.74619
 Alpha  occ. eigenvalues --   -0.74280  -0.72824  -0.72179  -0.72024  -0.70465
 Alpha  occ. eigenvalues --   -0.70026  -0.69613  -0.69530  -0.69126  -0.68473
 Alpha  occ. eigenvalues --   -0.67526  -0.67049  -0.65691  -0.64612  -0.64330
 Alpha  occ. eigenvalues --   -0.63438  -0.62784  -0.61933  -0.61105  -0.59992
 Alpha  occ. eigenvalues --   -0.59740  -0.59458  -0.59303  -0.58279  -0.58128
 Alpha  occ. eigenvalues --   -0.57731  -0.57387  -0.56863  -0.55987  -0.55030
 Alpha  occ. eigenvalues --   -0.54618  -0.53888  -0.53694  -0.52761  -0.52041
 Alpha  occ. eigenvalues --   -0.51775  -0.51541  -0.50911  -0.50626  -0.50328
 Alpha  occ. eigenvalues --   -0.49749  -0.49406  -0.49116  -0.48743  -0.48393
 Alpha  occ. eigenvalues --   -0.48216  -0.48108  -0.48019  -0.47447  -0.47276
 Alpha  occ. eigenvalues --   -0.47087  -0.46898  -0.46796  -0.46667  -0.46102
 Alpha  occ. eigenvalues --   -0.45939  -0.45756  -0.45675  -0.45530  -0.45463
 Alpha  occ. eigenvalues --   -0.45129  -0.44885  -0.44577  -0.44531  -0.44210
 Alpha  occ. eigenvalues --   -0.44074  -0.43997  -0.43766  -0.43671  -0.43345
 Alpha  occ. eigenvalues --   -0.43258  -0.42906  -0.42862  -0.42727  -0.42381
 Alpha  occ. eigenvalues --   -0.42241  -0.41860  -0.41772  -0.41642  -0.41443
 Alpha  occ. eigenvalues --   -0.41168  -0.40981  -0.40728  -0.40451  -0.40284
 Alpha  occ. eigenvalues --   -0.40107  -0.39910  -0.39757  -0.39705  -0.39465
 Alpha  occ. eigenvalues --   -0.39259  -0.39150  -0.39026  -0.38980  -0.38718
 Alpha  occ. eigenvalues --   -0.38553  -0.38373  -0.38213  -0.38173  -0.37899
 Alpha  occ. eigenvalues --   -0.37695  -0.37371  -0.37301  -0.37100  -0.36891
 Alpha  occ. eigenvalues --   -0.36799  -0.36340  -0.36088  -0.36023  -0.35879
 Alpha  occ. eigenvalues --   -0.35670  -0.35537  -0.35072  -0.34758  -0.34669
 Alpha  occ. eigenvalues --   -0.34087  -0.33947  -0.33781  -0.33588  -0.33459
 Alpha  occ. eigenvalues --   -0.33100  -0.32935  -0.32684  -0.32641  -0.32476
 Alpha  occ. eigenvalues --   -0.32226  -0.32147  -0.31521  -0.31246  -0.30842
 Alpha  occ. eigenvalues --   -0.30659  -0.30337  -0.30093  -0.29902  -0.29443
 Alpha  occ. eigenvalues --   -0.29005  -0.28263  -0.28063  -0.27485  -0.26220
 Alpha  occ. eigenvalues --   -0.25917  -0.25631  -0.25176  -0.24522  -0.20651
 Alpha  occ. eigenvalues --   -0.18426
 Alpha virt. eigenvalues --   -0.10896  -0.05229  -0.03647  -0.01852  -0.00018
 Alpha virt. eigenvalues --    0.00146   0.00354   0.01111   0.01356   0.03515
 Alpha virt. eigenvalues --    0.03791   0.04457   0.05205   0.05720   0.05912

 Mulliken charges:
               1
     1  Mg   1.018780
     2  C   -0.029773
     3  C   -0.060791
     4  C   -0.055599
     5  C   -0.061322
     6  N   -0.381105
     7  C    0.074632
     8  C   -0.105907
     9  C   -0.143685
    10  C    0.047963
    11  C    0.022537
    12  C   -0.016216
    13  C   -0.023650
    14  C    0.214764
    15  O   -0.272448
    16  O   -0.326938
    17  N   -0.567046
    18  C    0.166717
    19  C   -0.172398
    20  C   -0.054475
    21  C    0.166828
    22  C    0.038025
    23  C    0.055897
    24  O   -0.237501
    25  C   -0.011818
    26  N   -0.379886
    27  C    0.009537
    28  C   -0.077297
    29  C   -0.065333
    30  C    0.010013
    31  C    0.021982
    32  C   -0.065122
    33  C   -0.057391
    34  N   -0.447257
    35  C    0.149409
    36  C   -0.159300
    37  C   -0.088543
    38  C    0.178794
    39  C    0.076280
    40  C    0.143925
    41  O   -0.223464
    42  C   -0.094014
    43  C    0.295810
    44  O   -0.244376
    45  O   -0.406676
    46  C    0.126921
    47  C    0.228495
    48  C   -0.151638
    49  C   -0.227749
    50  C    0.024022
    51  C    0.040819
    52  C   -0.015462
    53  C   -0.062658
    54  C   -0.184755
    55  C    0.002135
    56  C   -0.018536
    57  C   -0.022440
    58  C    0.014688
    59  C   -0.236813
    60  C    0.010132
    61  C   -0.032958
    62  C   -0.042204
    63  C   -0.004383
    64  C   -0.221719
    65  C   -0.002573
    66  C   -0.014474
    67  H   -0.005865
    68  H    0.022498
    69  H   -0.004439
    70  H    0.051262
    71  H    0.047905
    72  H    0.036153
    73  H    0.052165
    74  H    0.070722
    75  H    0.029475
    76  H    0.078194
    77  H    0.043601
    78  H    0.072299
    79  H    0.044132
    80  H    0.056402
    81  H    0.045989
    82  H    0.060685
    83  H    0.055097
    84  H    0.060187
    85  H    0.059658
    86  H    0.047439
    87  H    0.056076
    88  H    0.043779
    89  H    0.032503
    90  H    0.039343
    91  H    0.040665
    92  H    0.037607
    93  H    0.046541
    94  H    0.072271
    95  H    0.057292
    96  H    0.025035
    97  H    0.078858
    98  H    0.097087
    99  H    0.045211
   100  H    0.067549
   101  H    0.053435
   102  H    0.063968
   103  H    0.069940
   104  H    0.031511
   105  H    0.043784
   106  H    0.040026
   107  H    0.050707
   108  H    0.017889
   109  H    0.043762
   110  H    0.024913
   111  H    0.027074
   112  H    0.038094
   113  H    0.037124
   114  H    0.021445
   115  H    0.041905
   116  H    0.038222
   117  H    0.037929
   118  H    0.022163
   119  H    0.015370
   120  H    0.027305
   121  H    0.026575
   122  H    0.014875
   123  H    0.017164
   124  H    0.029137
   125  H    0.019457
   126  H    0.016390
   127  H    0.035776
   128  H    0.026996
   129  H    0.027200
   130  H    0.033248
   131  H    0.030975
   132  H    0.022320
   133  H    0.004332
   134  H    0.033849
   135  H    0.030293
   136  H    0.025410
   137  H    0.031788
   138  H    0.029069
   139  H    0.031318
   140  H    0.032472
 Sum of Mulliken charges =  -0.00000

 Dipole moment (field-independent basis, Debye):
    X=             -2.5379    Y=              4.2766    Z=             -0.3391  Tot=              4.9845
 Quadrupole moment (field-independent basis, Debye-Ang):
   XX=           -360.4682   YY=           -415.4971   ZZ=           -405.4918
   XY=             14.7854   XZ=             16.1653   YZ=              0.1302

 Normal termination of Gaussian 16 at Thu Apr 28 14:07:52 2022.
