 Gaussian 16, Revision A.03,
 Gaussian 16:  ES64L-G16RevA.03 25-Dec-2016

 --------------------------------
 #p wB97XD/Def2SVP td=(nstates=5)
 --------------------------------

 -----------------------------------------------------
 step_1601_chromophore_16 TDDFT with wB97XD functional
 -----------------------------------------------------
 Symbolic Z-matrix:
 Charge =  0 Multiplicity = 1

                         Standard orientation:
 ---------------------------------------------------------------------
 Center     Atomic      Atomic             Coordinates (Angstroms)
 Number     Number       Type             X           Y           Z
 ---------------------------------------------------------------------
      1         12           0        6.368170    0.747874    0.258491
      2          6           0        4.049439   -2.004183    0.212126
      3          6           0        3.777983    2.729112   -0.811690
      4          6           0        8.619018    3.042448   -0.124925
      5          6           0        8.902026   -1.635659    0.825304
      6          7           0        4.221601    0.323210   -0.490464
      7          6           0        3.449187   -0.831226   -0.218938
      8          6           0        1.923068   -0.566399   -0.595798
      9          6           0        1.918219    0.995443   -1.020633
     10          6           0        3.401100    1.374634   -0.789728
     11          6           0        1.473194    1.525697   -2.396590
     12          6           0        0.872449   -0.893129    0.552973
     13          6           0       -0.585291   -0.763746    0.284722
     14          6           0       -1.451694   -2.048665    0.405450
     15          8           0       -1.373844   -2.785705    1.376817
     16          8           0       -2.401382   -2.054460   -0.505364
     17          7           0        6.218803    2.574807   -0.295172
     18          6           0        5.118411    3.317164   -0.573355
     19          6           0        5.509768    4.685228   -0.798139
     20          6           0        6.828775    4.800332   -0.521493
     21          6           0        7.307379    3.434067   -0.358078
     22          6           0        4.436551    5.781088   -1.112638
     23          6           0        7.682362    6.052591   -0.348980
     24          8           0        8.895287    6.032719   -0.180593
     25          6           0        7.081364    7.406150   -0.477065
     26          7           0        8.503725    0.763667    0.416733
     27          6           0        9.265751    1.842574    0.136346
     28          6           0       10.784428    1.601024    0.356283
     29          6           0       10.723314    0.066873    0.736520
     30          6           0        9.312676   -0.277554    0.686477
     31          6           0       11.577613    1.980384   -0.893014
     32          6           0       11.548538   -0.380375    1.969651
     33          6           0       10.891448   -0.439439    3.428799
     34          7           0        6.498107   -1.339874    0.663186
     35          6           0        7.594696   -2.179150    0.803673
     36          6           0        7.173077   -3.573941    0.971239
     37          6           0        5.799415   -3.514209    0.699408
     38          6           0        5.462297   -2.141236    0.439257
     39          6           0        7.950891   -4.752102    1.262236
     40          6           0        4.663311   -4.367642    0.616601
     41          8           0        4.550875   -5.585002    0.743120
     42          6           0        3.537477   -3.448165    0.295500
     43          6           0        2.727865   -3.911715   -0.867109
     44          8           0        3.072974   -3.968708   -2.049194
     45          8           0        1.475977   -4.393345   -0.340157
     46          6           0        0.623365   -5.177631   -1.243318
     47          6           0       -3.588018   -2.897644   -0.247661
     48          6           0       -4.778877   -2.521397   -1.114219
     49          6           0       -6.013104   -3.083182   -1.024335
     50          6           0       -6.361730   -4.131038   -0.050748
     51          6           0       -7.046399   -2.585033   -1.950109
     52          6           0       -7.641766   -1.183422   -1.677388
     53          6           0       -9.195953   -1.296902   -1.559303
     54          6           0      -10.030827   -0.079924   -1.886068
     55          6           0       -9.436497    1.172294   -1.162560
     56          6           0      -11.475430   -0.322922   -1.280880
     57          6           0      -12.675502    0.070685   -2.097963
     58          6           0      -13.307946    1.456894   -1.760304
     59          6           0      -14.568006    1.426387   -0.882749
     60          6           0      -15.815510    1.508921   -1.711384
     61          6           0      -14.658039    2.530731    0.183179
     62          6           0      -13.699816    2.160572    1.373541
     63          6           0      -14.283874    2.749213    2.680493
     64          6           0      -15.043191    1.776146    3.599968
     65          6           0      -14.504249    1.690377    4.981355
     66          6           0      -16.551969    2.052260    3.636570
     67          1           0        2.981396    3.369970   -1.193884
     68          1           0        9.359324    3.833893   -0.256236
     69          1           0        9.788403   -2.241713    1.025223
     70          1           0        1.465687   -1.141102   -1.400913
     71          1           0        1.364986    1.489547   -0.221778
     72          1           0        0.680302    2.201614   -2.075525
     73          1           0        1.022687    0.687903   -2.929043
     74          1           0        2.226943    2.123523   -2.909044
     75          1           0        0.994709   -0.133672    1.325930
     76          1           0        1.172554   -1.918473    0.766592
     77          1           0       -0.650753   -0.316330   -0.707277
     78          1           0       -1.008323   -0.129194    1.062785
     79          1           0        3.393639    5.462735   -1.081119
     80          1           0        4.633412    6.154189   -2.117614
     81          1           0        4.473330    6.620565   -0.419091
     82          1           0        7.827315    8.173073   -0.268125
     83          1           0        6.231453    7.502583    0.199073
     84          1           0        6.674764    7.498820   -1.483946
     85          1           0       11.133480    2.126540    1.245721
     86          1           0       11.089380   -0.532100   -0.096996
     87          1           0       12.272883    2.784139   -0.648468
     88          1           0       10.992078    2.328161   -1.743176
     89          1           0       12.031337    1.140521   -1.418217
     90          1           0       12.357882    0.337656    2.106065
     91          1           0       11.998934   -1.320196    1.648931
     92          1           0       11.538027    0.168624    4.061500
     93          1           0       11.039585   -1.421787    3.878145
     94          1           0        9.873215   -0.065164    3.326204
     95          1           0        7.309899   -5.300275    1.952232
     96          1           0        8.746107   -4.452444    1.944854
     97          1           0        8.336740   -5.366137    0.448362
     98          1           0        2.852642   -3.546326    1.137686
     99          1           0       -0.128756   -4.548357   -1.719505
    100          1           0        0.244158   -6.027990   -0.677971
    101          1           0        1.122739   -5.606844   -2.111983
    102          1           0       -3.944424   -2.647172    0.751319
    103          1           0       -3.481573   -3.980662   -0.312204
    104          1           0       -4.512993   -1.832864   -1.916792
    105          1           0       -7.409898   -4.054498    0.238579
    106          1           0       -5.692887   -4.261866    0.800406
    107          1           0       -6.306741   -5.127408   -0.489553
    108          1           0       -7.862164   -3.307397   -1.912310
    109          1           0       -6.663005   -2.615694   -2.969209
    110          1           0       -7.373195   -0.385508   -2.368958
    111          1           0       -7.249683   -0.820116   -0.727078
    112          1           0       -9.400489   -1.646880   -0.547296
    113          1           0       -9.397397   -2.048187   -2.322405
    114          1           0      -10.188827    0.031688   -2.959073
    115          1           0       -8.838317    0.886855   -0.297799
    116          1           0      -10.280916    1.775592   -0.828175
    117          1           0       -8.886921    1.741750   -1.912682
    118          1           0      -11.552807   -0.016783   -0.237891
    119          1           0      -11.670487   -1.391429   -1.182950
    120          1           0      -13.493040   -0.590646   -1.811388
    121          1           0      -12.516633   -0.031987   -3.171990
    122          1           0      -13.478355    1.980412   -2.701268
    123          1           0      -12.651957    2.180569   -1.276516
    124          1           0      -14.686492    0.492434   -0.331908
    125          1           0      -15.897351    0.583967   -2.281822
    126          1           0      -15.694852    2.234902   -2.515738
    127          1           0      -16.729091    1.755157   -1.169868
    128          1           0      -15.674634    2.649013    0.558858
    129          1           0      -14.409078    3.482286   -0.287529
    130          1           0      -12.665519    2.485456    1.256528
    131          1           0      -13.682116    1.071787    1.410151
    132          1           0      -14.767905    3.677109    2.377924
    133          1           0      -13.501647    3.242894    3.257580
    134          1           0      -15.051991    0.759611    3.206488
    135          1           0      -13.931790    0.770826    5.103403
    136          1           0      -15.241331    1.636000    5.782661
    137          1           0      -13.864866    2.541650    5.214565
    138          1           0      -16.884432    2.409950    4.611886
    139          1           0      -17.121906    1.137007    3.476803
    140          1           0      -16.693850    2.775135    2.833897
 ---------------------------------------------------------------------

 SCF Done:  E(RwB97XD) =  -3007.83777845     A.U. after   20 cycles

 Excitation energies and oscillator strengths:

 Excited State   1:      Singlet-A      1.6086 eV  770.76 nm  f=0.3624  <S**2>=0.000
     245 -> 248       -0.18286
     246 -> 247        0.68304
     245 <- 248       -0.11509
 This state for optimization and/or second-order correction.
 Total Energy, E(TD-HF/TD-DFT) =  -3007.77866383
 Copying the excited state density for this state as the 1-particle RhoCI density.

 Excited State   2:      Singlet-A      2.1819 eV  568.23 nm  f=0.1089  <S**2>=0.000
     245 -> 247        0.63539
     246 -> 248        0.29665

 Excited State   3:      Singlet-A      3.4589 eV  358.45 nm  f=0.3941  <S**2>=0.000
     242 -> 247       -0.10890
     242 -> 249       -0.11389
     243 -> 247       -0.38146
     243 -> 249       -0.10241
     245 -> 247       -0.21269
     246 -> 248        0.50671

 Excited State   4:      Singlet-A      3.5386 eV  350.38 nm  f=0.3892  <S**2>=0.000
     241 -> 247       -0.13416
     242 -> 247        0.14651
     242 -> 249        0.16387
     242 -> 250        0.11104
     243 -> 247        0.45861
     245 -> 247       -0.20653
     246 -> 248        0.37583

 Excited State   5:      Singlet-A      3.6247 eV  342.05 nm  f=0.0052  <S**2>=0.000
     242 -> 247        0.53431
     242 -> 249        0.26732
     242 -> 250        0.14957
     243 -> 247       -0.28331

 The electronic state is 1-A.
 Alpha  occ. eigenvalues --  -46.94613 -19.31425 -19.29267 -19.25148 -19.24227
 Alpha  occ. eigenvalues --  -19.23881 -19.23084 -14.46589 -14.46075 -14.44437
 Alpha  occ. eigenvalues --  -14.44066 -10.43255 -10.42792 -10.39418 -10.37716
 Alpha  occ. eigenvalues --  -10.36491 -10.35685 -10.34667 -10.34654 -10.34310
 Alpha  occ. eigenvalues --  -10.34309 -10.34145 -10.34006 -10.33687 -10.32950
 Alpha  occ. eigenvalues --  -10.32676 -10.32428 -10.32332 -10.31752 -10.31727
 Alpha  occ. eigenvalues --  -10.31722 -10.31384 -10.31373 -10.31194 -10.31164
 Alpha  occ. eigenvalues --  -10.31120 -10.31025 -10.30838 -10.30830 -10.30748
 Alpha  occ. eigenvalues --  -10.30154 -10.30075 -10.30072 -10.30010 -10.29954
 Alpha  occ. eigenvalues --  -10.29906 -10.29801 -10.29715 -10.29680 -10.29508
 Alpha  occ. eigenvalues --  -10.29240 -10.29210 -10.28978 -10.28961 -10.28872
 Alpha  occ. eigenvalues --  -10.28838 -10.28745 -10.28557 -10.28535 -10.28493
 Alpha  occ. eigenvalues --  -10.28404 -10.28370 -10.28228 -10.27687 -10.27643
 Alpha  occ. eigenvalues --  -10.27512  -3.20787  -1.94357  -1.93905  -1.93800
 Alpha  occ. eigenvalues --   -1.20071  -1.15720  -1.12720  -1.10990  -1.09904
 Alpha  occ. eigenvalues --   -1.08758  -1.06905  -1.05813  -1.05510  -1.03075
 Alpha  occ. eigenvalues --   -0.94504  -0.93255  -0.92084  -0.91366  -0.91093
 Alpha  occ. eigenvalues --   -0.90851  -0.89981  -0.89956  -0.89739  -0.89324
 Alpha  occ. eigenvalues --   -0.88572  -0.87277  -0.86615  -0.85393  -0.85047
 Alpha  occ. eigenvalues --   -0.84488  -0.83957  -0.83593  -0.82951  -0.82275
 Alpha  occ. eigenvalues --   -0.81896  -0.80446  -0.79825  -0.79625  -0.78132
 Alpha  occ. eigenvalues --   -0.77638  -0.77215  -0.77191  -0.76811  -0.76134
 Alpha  occ. eigenvalues --   -0.75092  -0.74603  -0.73241  -0.72209  -0.71915
 Alpha  occ. eigenvalues --   -0.71021  -0.70319  -0.69545  -0.68738  -0.67447
 Alpha  occ. eigenvalues --   -0.67344  -0.66986  -0.66760  -0.65796  -0.65720
 Alpha  occ. eigenvalues --   -0.65209  -0.65036  -0.64509  -0.63395  -0.62519
 Alpha  occ. eigenvalues --   -0.62127  -0.61272  -0.61133  -0.60128  -0.59515
 Alpha  occ. eigenvalues --   -0.59259  -0.58995  -0.58324  -0.58007  -0.57748
 Alpha  occ. eigenvalues --   -0.57122  -0.56820  -0.56482  -0.56127  -0.55781
 Alpha  occ. eigenvalues --   -0.55640  -0.55540  -0.55437  -0.54938  -0.54651
 Alpha  occ. eigenvalues --   -0.54486  -0.54294  -0.54186  -0.54037  -0.53494
 Alpha  occ. eigenvalues --   -0.53283  -0.53106  -0.52997  -0.52888  -0.52768
 Alpha  occ. eigenvalues --   -0.52437  -0.52250  -0.51927  -0.51909  -0.51621
 Alpha  occ. eigenvalues --   -0.51434  -0.51305  -0.51051  -0.50978  -0.50633
 Alpha  occ. eigenvalues --   -0.50590  -0.50240  -0.50168  -0.49996  -0.49667
 Alpha  occ. eigenvalues --   -0.49573  -0.49115  -0.49033  -0.48912  -0.48658
 Alpha  occ. eigenvalues --   -0.48341  -0.48198  -0.47964  -0.47561  -0.47481
 Alpha  occ. eigenvalues --   -0.47264  -0.47087  -0.47009  -0.46897  -0.46647
 Alpha  occ. eigenvalues --   -0.46345  -0.46318  -0.46194  -0.46109  -0.45861
 Alpha  occ. eigenvalues --   -0.45737  -0.45540  -0.45389  -0.45324  -0.45020
 Alpha  occ. eigenvalues --   -0.44773  -0.44467  -0.44437  -0.44207  -0.44165
 Alpha  occ. eigenvalues --   -0.43860  -0.43402  -0.43267  -0.43062  -0.43010
 Alpha  occ. eigenvalues --   -0.42740  -0.42578  -0.42044  -0.41749  -0.41725
 Alpha  occ. eigenvalues --   -0.41149  -0.40994  -0.40787  -0.40567  -0.40534
 Alpha  occ. eigenvalues --   -0.40155  -0.39912  -0.39725  -0.39589  -0.39508
 Alpha  occ. eigenvalues --   -0.39278  -0.39154  -0.38430  -0.38245  -0.37832
 Alpha  occ. eigenvalues --   -0.37705  -0.37204  -0.37070  -0.36669  -0.36369
 Alpha  occ. eigenvalues --   -0.36044  -0.35347  -0.34758  -0.34179  -0.33138
 Alpha  occ. eigenvalues --   -0.32795  -0.32593  -0.31859  -0.31255  -0.25656
 Alpha  occ. eigenvalues --   -0.22597
 Alpha virt. eigenvalues --   -0.06743   0.00239   0.02623   0.04616   0.06002
 Alpha virt. eigenvalues --    0.06838   0.07067   0.07933   0.08118   0.09918
 Alpha virt. eigenvalues --    0.10289   0.11302   0.11939   0.12488   0.12669

 Mulliken charges:
               1
     1  Mg   1.006870
     2  C   -0.039018
     3  C   -0.081436
     4  C   -0.064232
     5  C   -0.075998
     6  N   -0.353188
     7  C    0.054510
     8  C   -0.085742
     9  C   -0.123150
    10  C    0.045148
    11  C    0.035454
    12  C    0.005025
    13  C   -0.004580
    14  C    0.201633
    15  O   -0.269551
    16  O   -0.325026
    17  N   -0.534761
    18  C    0.159127
    19  C   -0.164449
    20  C   -0.044390
    21  C    0.156087
    22  C    0.050532
    23  C    0.050936
    24  O   -0.231630
    25  C    0.000737
    26  N   -0.340527
    27  C   -0.007146
    28  C   -0.048657
    29  C   -0.041695
    30  C   -0.010072
    31  C    0.027994
    32  C   -0.052924
    33  C   -0.039023
    34  N   -0.412797
    35  C    0.143742
    36  C   -0.155896
    37  C   -0.086258
    38  C    0.163980
    39  C    0.086336
    40  C    0.125970
    41  O   -0.211858
    42  C   -0.054451
    43  C    0.270848
    44  O   -0.238260
    45  O   -0.405327
    46  C    0.141935
    47  C    0.242246
    48  C   -0.164642
    49  C   -0.210043
    50  C    0.035898
    51  C    0.060688
    52  C   -0.003575
    53  C   -0.041334
    54  C   -0.159797
    55  C    0.018317
    56  C   -0.003660
    57  C   -0.000772
    58  C    0.023147
    59  C   -0.200348
    60  C    0.022545
    61  C   -0.015102
    62  C   -0.023659
    63  C    0.012932
    64  C   -0.195091
    65  C    0.008906
    66  C   -0.000180
    67  H   -0.016910
    68  H    0.016993
    69  H   -0.010234
    70  H    0.039017
    71  H    0.035252
    72  H    0.030158
    73  H    0.046766
    74  H    0.064953
    75  H    0.021445
    76  H    0.057189
    77  H    0.035477
    78  H    0.067235
    79  H    0.041382
    80  H    0.051329
    81  H    0.039753
    82  H    0.060205
    83  H    0.048603
    84  H    0.054303
    85  H    0.050440
    86  H    0.034669
    87  H    0.051620
    88  H    0.037448
    89  H    0.027587
    90  H    0.030755
    91  H    0.034098
    92  H    0.032280
    93  H    0.041097
    94  H    0.063007
    95  H    0.052774
    96  H    0.018740
    97  H    0.076602
    98  H    0.091240
    99  H    0.041052
   100  H    0.064231
   101  H    0.049049
   102  H    0.056957
   103  H    0.065317
   104  H    0.029758
   105  H    0.038208
   106  H    0.035550
   107  H    0.045257
   108  H    0.007203
   109  H    0.037568
   110  H    0.017673
   111  H    0.015629
   112  H    0.028006
   113  H    0.025521
   114  H    0.012508
   115  H    0.035213
   116  H    0.028079
   117  H    0.032414
   118  H    0.010535
   119  H    0.006263
   120  H    0.016526
   121  H    0.020344
   122  H    0.007420
   123  H    0.003134
   124  H    0.014158
   125  H    0.012682
   126  H    0.008399
   127  H    0.030850
   128  H    0.012963
   129  H    0.018511
   130  H    0.025980
   131  H    0.017546
   132  H    0.012365
   133  H   -0.004240
   134  H    0.022728
   135  H    0.024798
   136  H    0.019316
   137  H    0.025087
   138  H    0.022775
   139  H    0.026319
   140  H    0.023777
 Sum of Mulliken charges =  -0.00000

 Dipole moment (field-independent basis, Debye):
    X=             -2.5070    Y=              4.4738    Z=             -0.3481  Tot=              5.1402
 Quadrupole moment (field-independent basis, Debye-Ang):
   XX=           -360.1715   YY=           -413.4465   ZZ=           -405.2016
   XY=             16.0438   XZ=             16.2597   YZ=              0.1648

 Normal termination of Gaussian 16 at Thu Apr 28 14:34:54 2022.
