 Gaussian 16, Revision A.03,
 Gaussian 16:  ES64L-G16RevA.03 25-Dec-2016

 --------------------
 #p ZINDO=(nstates=5)
 --------------------

 ------------------------------
 step_1601_chromophore_16 ZINDO
 ------------------------------
 Symbolic Z-matrix:
 Charge =  0 Multiplicity = 1

                         Standard orientation:
 ---------------------------------------------------------------------
 Center     Atomic      Atomic             Coordinates (Angstroms)
 Number     Number       Type             X           Y           Z
 ---------------------------------------------------------------------
      1         12           0        6.368170    0.747874    0.258491
      2          6           0        4.049439   -2.004183    0.212126
      3          6           0        3.777983    2.729112   -0.811690
      4          6           0        8.619018    3.042448   -0.124925
      5          6           0        8.902026   -1.635659    0.825304
      6          7           0        4.221601    0.323210   -0.490464
      7          6           0        3.449187   -0.831226   -0.218938
      8          6           0        1.923068   -0.566399   -0.595798
      9          6           0        1.918219    0.995443   -1.020633
     10          6           0        3.401100    1.374634   -0.789728
     11          6           0        1.473194    1.525697   -2.396590
     12          6           0        0.872449   -0.893129    0.552973
     13          6           0       -0.585291   -0.763746    0.284722
     14          6           0       -1.451694   -2.048665    0.405450
     15          8           0       -1.373844   -2.785705    1.376817
     16          8           0       -2.401382   -2.054460   -0.505364
     17          7           0        6.218803    2.574807   -0.295172
     18          6           0        5.118411    3.317164   -0.573355
     19          6           0        5.509768    4.685228   -0.798139
     20          6           0        6.828775    4.800332   -0.521493
     21          6           0        7.307379    3.434067   -0.358078
     22          6           0        4.436551    5.781088   -1.112638
     23          6           0        7.682362    6.052591   -0.348980
     24          8           0        8.895287    6.032719   -0.180593
     25          6           0        7.081364    7.406150   -0.477065
     26          7           0        8.503725    0.763667    0.416733
     27          6           0        9.265751    1.842574    0.136346
     28          6           0       10.784428    1.601024    0.356283
     29          6           0       10.723314    0.066873    0.736520
     30          6           0        9.312676   -0.277554    0.686477
     31          6           0       11.577613    1.980384   -0.893014
     32          6           0       11.548538   -0.380375    1.969651
     33          6           0       10.891448   -0.439439    3.428799
     34          7           0        6.498107   -1.339874    0.663186
     35          6           0        7.594696   -2.179150    0.803673
     36          6           0        7.173077   -3.573941    0.971239
     37          6           0        5.799415   -3.514209    0.699408
     38          6           0        5.462297   -2.141236    0.439257
     39          6           0        7.950891   -4.752102    1.262236
     40          6           0        4.663311   -4.367642    0.616601
     41          8           0        4.550875   -5.585002    0.743120
     42          6           0        3.537477   -3.448165    0.295500
     43          6           0        2.727865   -3.911715   -0.867109
     44          8           0        3.072974   -3.968708   -2.049194
     45          8           0        1.475977   -4.393345   -0.340157
     46          6           0        0.623365   -5.177631   -1.243318
     47          6           0       -3.588018   -2.897644   -0.247661
     48          6           0       -4.778877   -2.521397   -1.114219
     49          6           0       -6.013104   -3.083182   -1.024335
     50          6           0       -6.361730   -4.131038   -0.050748
     51          6           0       -7.046399   -2.585033   -1.950109
     52          6           0       -7.641766   -1.183422   -1.677388
     53          6           0       -9.195953   -1.296902   -1.559303
     54          6           0      -10.030827   -0.079924   -1.886068
     55          6           0       -9.436497    1.172294   -1.162560
     56          6           0      -11.475430   -0.322922   -1.280880
     57          6           0      -12.675502    0.070685   -2.097963
     58          6           0      -13.307946    1.456894   -1.760304
     59          6           0      -14.568006    1.426387   -0.882749
     60          6           0      -15.815510    1.508921   -1.711384
     61          6           0      -14.658039    2.530731    0.183179
     62          6           0      -13.699816    2.160572    1.373541
     63          6           0      -14.283874    2.749213    2.680493
     64          6           0      -15.043191    1.776146    3.599968
     65          6           0      -14.504249    1.690377    4.981355
     66          6           0      -16.551969    2.052260    3.636570
     67          1           0        2.981396    3.369970   -1.193884
     68          1           0        9.359324    3.833893   -0.256236
     69          1           0        9.788403   -2.241713    1.025223
     70          1           0        1.465687   -1.141102   -1.400913
     71          1           0        1.364986    1.489547   -0.221778
     72          1           0        0.680302    2.201614   -2.075525
     73          1           0        1.022687    0.687903   -2.929043
     74          1           0        2.226943    2.123523   -2.909044
     75          1           0        0.994709   -0.133672    1.325930
     76          1           0        1.172554   -1.918473    0.766592
     77          1           0       -0.650753   -0.316330   -0.707277
     78          1           0       -1.008323   -0.129194    1.062785
     79          1           0        3.393639    5.462735   -1.081119
     80          1           0        4.633412    6.154189   -2.117614
     81          1           0        4.473330    6.620565   -0.419091
     82          1           0        7.827315    8.173073   -0.268125
     83          1           0        6.231453    7.502583    0.199073
     84          1           0        6.674764    7.498820   -1.483946
     85          1           0       11.133480    2.126540    1.245721
     86          1           0       11.089380   -0.532100   -0.096996
     87          1           0       12.272883    2.784139   -0.648468
     88          1           0       10.992078    2.328161   -1.743176
     89          1           0       12.031337    1.140521   -1.418217
     90          1           0       12.357882    0.337656    2.106065
     91          1           0       11.998934   -1.320196    1.648931
     92          1           0       11.538027    0.168624    4.061500
     93          1           0       11.039585   -1.421787    3.878145
     94          1           0        9.873215   -0.065164    3.326204
     95          1           0        7.309899   -5.300275    1.952232
     96          1           0        8.746107   -4.452444    1.944854
     97          1           0        8.336740   -5.366137    0.448362
     98          1           0        2.852642   -3.546326    1.137686
     99          1           0       -0.128756   -4.548357   -1.719505
    100          1           0        0.244158   -6.027990   -0.677971
    101          1           0        1.122739   -5.606844   -2.111983
    102          1           0       -3.944424   -2.647172    0.751319
    103          1           0       -3.481573   -3.980662   -0.312204
    104          1           0       -4.512993   -1.832864   -1.916792
    105          1           0       -7.409898   -4.054498    0.238579
    106          1           0       -5.692887   -4.261866    0.800406
    107          1           0       -6.306741   -5.127408   -0.489553
    108          1           0       -7.862164   -3.307397   -1.912310
    109          1           0       -6.663005   -2.615694   -2.969209
    110          1           0       -7.373195   -0.385508   -2.368958
    111          1           0       -7.249683   -0.820116   -0.727078
    112          1           0       -9.400489   -1.646880   -0.547296
    113          1           0       -9.397397   -2.048187   -2.322405
    114          1           0      -10.188827    0.031688   -2.959073
    115          1           0       -8.838317    0.886855   -0.297799
    116          1           0      -10.280916    1.775592   -0.828175
    117          1           0       -8.886921    1.741750   -1.912682
    118          1           0      -11.552807   -0.016783   -0.237891
    119          1           0      -11.670487   -1.391429   -1.182950
    120          1           0      -13.493040   -0.590646   -1.811388
    121          1           0      -12.516633   -0.031987   -3.171990
    122          1           0      -13.478355    1.980412   -2.701268
    123          1           0      -12.651957    2.180569   -1.276516
    124          1           0      -14.686492    0.492434   -0.331908
    125          1           0      -15.897351    0.583967   -2.281822
    126          1           0      -15.694852    2.234902   -2.515738
    127          1           0      -16.729091    1.755157   -1.169868
    128          1           0      -15.674634    2.649013    0.558858
    129          1           0      -14.409078    3.482286   -0.287529
    130          1           0      -12.665519    2.485456    1.256528
    131          1           0      -13.682116    1.071787    1.410151
    132          1           0      -14.767905    3.677109    2.377924
    133          1           0      -13.501647    3.242894    3.257580
    134          1           0      -15.051991    0.759611    3.206488
    135          1           0      -13.931790    0.770826    5.103403
    136          1           0      -15.241331    1.636000    5.782661
    137          1           0      -13.864866    2.541650    5.214565
    138          1           0      -16.884432    2.409950    4.611886
    139          1           0      -17.121906    1.137007    3.476803
    140          1           0      -16.693850    2.775135    2.833897
 ---------------------------------------------------------------------

 SCF Done:  E(RZINDO/S) =  -474.473095640     A.U. after   20 cycles

 Excitation energies and oscillator strengths:

 Excited State   1:      Singlet-A      1.2047 eV 1029.17 nm  f=0.5857  <S**2>=0.000
     175 ->178         0.18867
     176 ->177         0.66280
 This state for optimization and/or second-order correction.
 Total Energy, E(CIS/TDA) =  -474.428823736
 Copying the excited state density for this state as the 1-particle RhoCI density.

 Excited State   2:      Singlet-A      1.9529 eV  634.88 nm  f=0.0251  <S**2>=0.000
     175 ->177         0.53262
     176 ->178        -0.44255

 Excited State   3:      Singlet-A      2.9108 eV  425.95 nm  f=0.0263  <S**2>=0.000
     168 ->177         0.25073
     168 ->178         0.19046
     168 ->179         0.28996
     168 ->180         0.37054
     168 ->186         0.18242
     168 ->187         0.13677
     171 ->180        -0.10284

 Excited State   4:      Singlet-A      2.9478 eV  420.60 nm  f=0.7905  <S**2>=0.000
     169 ->177         0.14200
     169 ->179        -0.20796
     175 ->177         0.34457
     176 ->178         0.44047
     176 ->179         0.12276
     176 ->180         0.10310

 Excited State   5:      Singlet-A      2.9672 eV  417.85 nm  f=0.0182  <S**2>=0.000
     169 ->177        -0.15649
     169 ->179         0.19204
     169 ->180        -0.13082
     176 ->179         0.57545

 The electronic state is 1-A.
 Alpha  occ. eigenvalues --   -1.84078  -1.83229  -1.79010  -1.74191  -1.69430
 Alpha  occ. eigenvalues --   -1.68885  -1.66639  -1.62498  -1.59964  -1.57849
 Alpha  occ. eigenvalues --   -1.57237  -1.53412  -1.50191  -1.47460  -1.46961
 Alpha  occ. eigenvalues --   -1.44144  -1.43366  -1.40179  -1.40118  -1.38608
 Alpha  occ. eigenvalues --   -1.36803  -1.35410  -1.34295  -1.30950  -1.28855
 Alpha  occ. eigenvalues --   -1.28181  -1.24524  -1.21545  -1.21067  -1.18867
 Alpha  occ. eigenvalues --   -1.17393  -1.15893  -1.15619  -1.15040  -1.14225
 Alpha  occ. eigenvalues --   -1.13198  -1.11796  -1.10484  -1.04364  -1.03531
 Alpha  occ. eigenvalues --   -1.01912  -1.00717  -0.99470  -0.98067  -0.97643
 Alpha  occ. eigenvalues --   -0.95860  -0.95123  -0.93715  -0.93310  -0.91505
 Alpha  occ. eigenvalues --   -0.91011  -0.89546  -0.88923  -0.88121  -0.87076
 Alpha  occ. eigenvalues --   -0.85530  -0.84326  -0.83516  -0.81495  -0.81069
 Alpha  occ. eigenvalues --   -0.80221  -0.78798  -0.76631  -0.76541  -0.76307
 Alpha  occ. eigenvalues --   -0.75792  -0.75508  -0.73908  -0.73741  -0.73513
 Alpha  occ. eigenvalues --   -0.73066  -0.72916  -0.72391  -0.71341  -0.70626
 Alpha  occ. eigenvalues --   -0.70131  -0.69031  -0.68601  -0.68427  -0.67901
 Alpha  occ. eigenvalues --   -0.67241  -0.67068  -0.66363  -0.66081  -0.65539
 Alpha  occ. eigenvalues --   -0.64865  -0.64658  -0.64544  -0.64249  -0.63976
 Alpha  occ. eigenvalues --   -0.63162  -0.62863  -0.62415  -0.61988  -0.61872
 Alpha  occ. eigenvalues --   -0.61616  -0.61325  -0.60749  -0.60472  -0.60092
 Alpha  occ. eigenvalues --   -0.59790  -0.59244  -0.59074  -0.58478  -0.58287
 Alpha  occ. eigenvalues --   -0.57970  -0.57789  -0.57440  -0.57099  -0.56854
 Alpha  occ. eigenvalues --   -0.56310  -0.55948  -0.55291  -0.55006  -0.54494
 Alpha  occ. eigenvalues --   -0.54396  -0.53787  -0.53098  -0.53011  -0.52893
 Alpha  occ. eigenvalues --   -0.52102  -0.52019  -0.51576  -0.51352  -0.51210
 Alpha  occ. eigenvalues --   -0.50715  -0.50442  -0.50112  -0.49887  -0.49598
 Alpha  occ. eigenvalues --   -0.49436  -0.49208  -0.48978  -0.48739  -0.48372
 Alpha  occ. eigenvalues --   -0.48247  -0.47792  -0.47731  -0.47471  -0.47176
 Alpha  occ. eigenvalues --   -0.47134  -0.46806  -0.46660  -0.46395  -0.45865
 Alpha  occ. eigenvalues --   -0.45835  -0.45724  -0.45417  -0.45215  -0.45069
 Alpha  occ. eigenvalues --   -0.45010  -0.44870  -0.44776  -0.44207  -0.43981
 Alpha  occ. eigenvalues --   -0.43980  -0.43149  -0.42815  -0.42412  -0.41959
 Alpha  occ. eigenvalues --   -0.41812  -0.41495  -0.41362  -0.38898  -0.38430
 Alpha  occ. eigenvalues --   -0.37962  -0.37700  -0.35307  -0.34614  -0.34460
 Alpha  occ. eigenvalues --   -0.33758  -0.32682  -0.32293  -0.31402  -0.26618
 Alpha  occ. eigenvalues --   -0.21417
 Alpha virt. eigenvalues --   -0.08252  -0.01955  -0.00399   0.01459   0.02199
 Alpha virt. eigenvalues --    0.02504   0.02624   0.03027   0.04514   0.04917
 Alpha virt. eigenvalues --    0.06404   0.07001   0.07536   0.07936   0.08369

 Mulliken charges:
               1
     1  Mg   0.435133
     2  C   -0.057186
     3  C   -0.124627
     4  C   -0.040378
     5  C   -0.063630
     6  N   -0.320567
     7  C    0.131479
     8  C   -0.009420
     9  C   -0.010965
    10  C    0.147300
    11  C   -0.047638
    12  C   -0.030756
    13  C    0.007384
    14  C    0.470959
    15  O   -0.529148
    16  O   -0.254300
    17  N   -0.304317
    18  C    0.118141
    19  C   -0.003595
    20  C   -0.018655
    21  C    0.109119
    22  C   -0.052936
    23  C    0.329518
    24  O   -0.522226
    25  C   -0.025886
    26  N   -0.249975
    27  C    0.109209
    28  C    0.010914
    29  C    0.006703
    30  C    0.126934
    31  C   -0.050545
    32  C   -0.036862
    33  C   -0.061587
    34  N   -0.311973
    35  C    0.081491
    36  C    0.057978
    37  C   -0.069007
    38  C    0.137390
    39  C   -0.032948
    40  C    0.344337
    41  O   -0.533515
    42  C    0.067283
    43  C    0.484898
    44  O   -0.509462
    45  O   -0.281270
    46  C    0.072732
    47  C    0.097868
    48  C   -0.102006
    49  C    0.001036
    50  C   -0.038383
    51  C   -0.014791
    52  C   -0.036452
    53  C   -0.033075
    54  C   -0.012432
    55  C   -0.057268
    56  C   -0.039073
    57  C   -0.030416
    58  C   -0.033951
    59  C   -0.006722
    60  C   -0.058249
    61  C   -0.035176
    62  C   -0.041501
    63  C   -0.036281
    64  C   -0.000561
    65  C   -0.049923
    66  C   -0.062381
    67  H    0.023917
    68  H    0.033406
    69  H    0.026101
    70  H    0.040724
    71  H    0.025597
    72  H    0.013505
    73  H    0.029290
    74  H    0.041451
    75  H    0.024409
    76  H    0.038948
    77  H    0.032009
    78  H    0.046175
    79  H    0.024423
    80  H    0.026290
    81  H    0.024398
    82  H    0.040652
    83  H    0.032225
    84  H    0.038339
    85  H    0.040511
    86  H    0.028251
    87  H    0.025438
    88  H    0.022392
    89  H    0.021451
    90  H    0.014393
    91  H    0.020654
    92  H    0.018590
    93  H    0.026504
    94  H    0.037983
    95  H    0.034944
    96  H    0.014940
    97  H    0.052898
    98  H    0.056548
    99  H    0.036450
   100  H    0.041536
   101  H    0.041368
   102  H    0.045555
   103  H    0.060480
   104  H    0.032195
   105  H    0.023363
   106  H    0.027616
   107  H    0.026616
   108  H    0.014010
   109  H    0.022899
   110  H    0.024401
   111  H    0.013501
   112  H    0.025982
   113  H    0.013734
   114  H    0.031105
   115  H    0.029563
   116  H    0.016735
   117  H    0.017918
   118  H    0.022443
   119  H    0.000830
   120  H    0.014503
   121  H    0.023873
   122  H    0.012746
   123  H    0.014133
   124  H    0.018950
   125  H    0.007697
   126  H    0.010456
   127  H    0.021090
   128  H    0.021797
   129  H    0.018539
   130  H    0.022343
   131  H    0.019370
   132  H    0.019340
   133  H    0.005259
   134  H    0.018733
   135  H    0.010324
   136  H    0.015076
   137  H    0.017417
   138  H    0.019874
   139  H    0.015917
   140  H    0.021119
 Sum of Mulliken charges =  -0.00000

 Dipole moment (field-independent basis, Debye):
    X=             -3.6402    Y=              5.9687    Z=             -0.3318  Tot=              6.9991
 N-N= 4.167921882883D+03 E-N= 0.000000000000D+00  KE=-9.010592598449D+03
 Leave Link  601 at Thu Apr 28 14:46:17 2022, MaxMem=  6710886400 cpu:               0.8 elap:               0.0
 (Enter /sw/apps/gaussian-16.0/g16/l9999.exe)
 1\1\GINC-BP1-COMPUTE070\SP\RZINDO CIS\STO-3G\C55H74Mg1N4O6\OF15641\28-
 Apr-2022\0\\#p ZINDO=(nstates=5)\\step_1601_chromophore_16 ZINDO\\0,1\
 Mg,0,41.257,41.384,27.\C,0,40.189,43.667,29.569\C,0,42.188,39.248,29.5
 2\C,0,42.615,39.616,24.653\C,0,40.701,43.998,24.702\N,0,41.425,41.584,
 29.298\C,0,40.742,42.518,30.113\C,0,40.843,42.082,31.643\C,0,41.603,40
 .655,31.566\C,0,41.779,40.49,30.037\C,0,42.94,40.338,32.262\C,0,39.457
 ,41.998,32.419\C,0,39.438,41.683,33.873\C,0,38.849,42.757,34.83\O,0,37

 Normal termination of Gaussian 16 at Thu Apr 28 14:46:17 2022.
