 Gaussian 16, Revision A.03,
 Gaussian 16:  ES64L-G16RevA.03 25-Dec-2016

 ------------------------------
 #p blyp/Def2SVP td=(nstates=5)
 ------------------------------

 --------------------------------------------------
 step_101_chromophore_16 TDDFT with blyp functional
 --------------------------------------------------
 Symbolic Z-matrix:
 Charge =  0 Multiplicity = 1

                         Standard orientation:
 ---------------------------------------------------------------------
 Center     Atomic      Atomic             Coordinates (Angstroms)
 Number     Number       Type             X           Y           Z
 ---------------------------------------------------------------------
      1         12           0        5.870595    0.519762    0.059234
      2          6           0        3.558443   -2.045584    0.013984
      3          6           0        3.658138    2.614342   -1.238907
      4          6           0        8.326072    2.878328    0.118944
      5          6           0        8.240176   -1.919575    1.206573
      6          7           0        3.802514    0.357640   -0.266649
      7          6           0        2.977038   -0.797708   -0.199614
      8          6           0        1.596109   -0.533613   -0.758859
      9          6           0        1.680741    0.890891   -1.359490
     10          6           0        3.099857    1.354304   -0.827400
     11          6           0        1.379908    0.994006   -2.859308
     12          6           0        0.541309   -0.757026    0.238461
     13          6           0       -0.895271   -0.476101   -0.244904
     14          6           0       -1.732403   -1.737330   -0.425495
     15          8           0       -1.703061   -2.586492   -1.308814
     16          8           0       -2.605576   -1.864594    0.615744
     17          7           0        5.938163    2.468910   -0.510693
     18          6           0        4.928688    3.148636   -1.008381
     19          6           0        5.366065    4.506179   -1.267295
     20          6           0        6.699599    4.653180   -0.876635
     21          6           0        7.049622    3.270573   -0.422764
     22          6           0        4.487389    5.630350   -1.743750
     23          6           0        7.694655    5.828894   -1.061283
     24          8           0        8.862090    5.877204   -0.682755
     25          6           0        7.193632    7.038360   -1.727771
     26          7           0        7.938310    0.520795    0.612353
     27          6           0        8.750608    1.579331    0.525326
     28          6           0       10.165217    1.284246    1.132552
     29          6           0        9.965201   -0.132983    1.672632
     30          6           0        8.624095   -0.612810    1.165800
     31          6           0       11.369176    1.393390    0.205804
     32          6           0       10.063667   -0.279215    3.219917
     33          6           0        9.029850    0.582397    3.991106
     34          7           0        5.937339   -1.525187    0.415322
     35          6           0        6.938174   -2.400657    0.827894
     36          6           0        6.492181   -3.699619    0.978989
     37          6           0        5.107607   -3.606056    0.631845
     38          6           0        4.875820   -2.320696    0.290936
     39          6           0        7.294532   -4.956745    1.240893
     40          6           0        3.930756   -4.360117    0.457355
     41          8           0        3.679522   -5.490929    0.681442
     42          6           0        2.838097   -3.341583    0.005604
     43          6           0        2.345944   -3.805279   -1.337333
     44          8           0        3.051886   -3.948770   -2.290377
     45          8           0        0.944494   -4.160831   -1.339046
     46          6           0        0.400632   -4.409075   -2.600258
     47          6           0       -3.502034   -2.986976    0.648710
     48          6           0       -5.015230   -2.611189    0.591780
     49          6           0       -6.112525   -3.372239    0.490774
     50          6           0       -6.125268   -4.969712    0.443049
     51          6           0       -7.465128   -2.749949    0.275602
     52          6           0       -7.708135   -2.051781   -0.943593
     53          6           0       -8.010643   -0.522805   -0.761275
     54          6           0       -9.163782    0.046843   -1.532599
     55          6           0       -8.761063    1.495210   -2.128537
     56          6           0      -10.504264    0.173953   -0.716943
     57          6           0      -11.844823   -0.287822   -1.407926
     58          6           0      -12.977512    0.768469   -1.336892
     59          6           0      -13.954599    0.447634   -0.284125
     60          6           0      -15.401066    0.182219   -0.787015
     61          6           0      -14.140288    1.480844    0.892707
     62          6           0      -12.990217    1.411867    1.877319
     63          6           0      -12.105341    2.668221    1.796707
     64          6           0      -12.557284    3.751880    2.790219
     65          6           0      -11.479437    4.100033    3.832628
     66          6           0      -13.071199    5.033268    2.156640
     67          1           0        2.824001    3.219694   -1.600717
     68          1           0        9.078100    3.667368    0.059558
     69          1           0        8.930994   -2.635232    1.656346
     70          1           0        1.414048   -1.282786   -1.528953
     71          1           0        0.925284    1.548370   -0.928808
     72          1           0        0.796170    0.111165   -3.120019
     73          1           0        2.306761    1.082255   -3.426600
     74          1           0        0.833198    1.892875   -3.143539
     75          1           0        0.795138   -0.334769    1.210252
     76          1           0        0.560741   -1.841046    0.350360
     77          1           0       -0.882192    0.083081   -1.181120
     78          1           0       -1.427859    0.222414    0.399909
     79          1           0        4.541286    6.562676   -1.180348
     80          1           0        3.454775    5.301129   -1.855244
     81          1           0        4.726614    5.964188   -2.752598
     82          1           0        6.830007    6.816864   -2.731731
     83          1           0        8.061702    7.693600   -1.801948
     84          1           0        6.469926    7.542802   -1.087447
     85          1           0       10.220743    2.072927    1.882870
     86          1           0       10.733012   -0.707642    1.155427
     87          1           0       11.214005    0.803210   -0.697122
     88          1           0       12.260588    1.069227    0.741510
     89          1           0       11.452815    2.443908   -0.073547
     90          1           0       11.052538    0.148922    3.387591
     91          1           0        9.926324   -1.298804    3.578219
     92          1           0        9.479085    1.015779    4.883710
     93          1           0        8.266804   -0.127157    4.310576
     94          1           0        8.592792    1.332442    3.331399
     95          1           0        7.855412   -4.895568    2.174643
     96          1           0        7.935966   -5.233440    0.404281
     97          1           0        6.544012   -5.732751    1.393170
     98          1           0        2.056980   -3.440362    0.760055
     99          1           0        0.729875   -5.414508   -2.862480
    100          1           0        0.590474   -3.594210   -3.299072
    101          1           0       -0.670919   -4.594231   -2.521391
    102          1           0       -3.403974   -3.475457    1.617768
    103          1           0       -3.271818   -3.812760   -0.025115
    104          1           0       -5.270696   -1.555670    0.500481
    105          1           0       -6.314120   -5.306614   -0.576245
    106          1           0       -6.830139   -5.340063    1.187227
    107          1           0       -5.075204   -5.194809    0.628554
    108          1           0       -7.779483   -2.228987    1.180418
    109          1           0       -8.156823   -3.592209    0.247365
    110          1           0       -8.537675   -2.511377   -1.481993
    111          1           0       -6.853475   -2.263519   -1.585121
    112          1           0       -7.172744    0.160667   -0.902956
    113          1           0       -8.355622   -0.344116    0.256615
    114          1           0       -9.423513   -0.616131   -2.358085
    115          1           0       -9.511555    2.285775   -2.111382
    116          1           0       -8.625911    1.323488   -3.196510
    117          1           0       -7.839486    1.929888   -1.743111
    118          1           0      -10.668459    1.173155   -0.313208
    119          1           0      -10.468448   -0.466301    0.164521
    120          1           0      -12.154520   -1.229097   -0.953467
    121          1           0      -11.696714   -0.500963   -2.466541
    122          1           0      -13.337295    0.955776   -2.349038
    123          1           0      -12.558208    1.736089   -1.064856
    124          1           0      -13.598904   -0.459671    0.203517
    125          1           0      -15.670015    0.642346   -1.737714
    126          1           0      -16.076033    0.541607   -0.009862
    127          1           0      -15.559275   -0.872633   -1.011618
    128          1           0      -15.110871    1.570653    1.380778
    129          1           0      -14.075254    2.416491    0.337167
    130          1           0      -12.360708    0.548127    1.661925
    131          1           0      -13.413674    1.196390    2.858760
    132          1           0      -12.001251    3.198656    0.850129
    133          1           0      -11.089627    2.346921    2.028200
    134          1           0      -13.364451    3.383701    3.423849
    135          1           0      -10.457319    4.053837    3.456825
    136          1           0      -11.500477    3.345412    4.620030
    137          1           0      -11.673989    5.084792    4.257430
    138          1           0      -12.350867    5.608070    1.576360
    139          1           0      -13.422842    5.773467    2.875073
    140          1           0      -13.952947    4.654116    1.639546
 ---------------------------------------------------------------------

 SCF Done:  E(RB-LYP) =  -3007.35903173     A.U. after   19 cycles

 Excitation energies and oscillator strengths:

 Excited State   1:      Singlet-A      1.7712 eV  700.00 nm  f=0.0198  <S**2>=0.000
     244 -> 247        0.64810
     245 -> 247       -0.20584
     246 -> 247        0.18817
 This state for optimization and/or second-order correction.
 Total Energy, E(TD-HF/TD-DFT) =  -3007.29394090
 Copying the excited state density for this state as the 1-particle RhoCI density.

 Excited State   2:      Singlet-A      1.8150 eV  683.09 nm  f=0.2850  <S**2>=0.000
     244 -> 247       -0.19124
     245 -> 248        0.16084
     246 -> 247        0.66579
     246 <- 247       -0.13715

 Excited State   3:      Singlet-A      2.0554 eV  603.22 nm  f=0.0951  <S**2>=0.000
     244 -> 247        0.19917
     245 -> 247        0.62173
     246 -> 248       -0.22060

 Excited State   4:      Singlet-A      2.1742 eV  570.24 nm  f=0.0013  <S**2>=0.000
     243 -> 247        0.70435

 Excited State   5:      Singlet-A      2.2969 eV  539.79 nm  f=0.0000  <S**2>=0.000
     242 -> 247        0.70317

 The electronic state is 1-A.
 Alpha  occ. eigenvalues --  -46.26042 -18.82610 -18.79960 -18.77156 -18.76813
 Alpha  occ. eigenvalues --  -18.76718 -18.74995 -14.03906 -14.03068 -14.01581
 Alpha  occ. eigenvalues --  -14.00216 -10.04769 -10.03303 -10.00898  -9.98323
 Alpha  occ. eigenvalues --   -9.98200  -9.97453  -9.96877  -9.96781  -9.96370
 Alpha  occ. eigenvalues --   -9.96286  -9.95781  -9.95115  -9.94573  -9.94524
 Alpha  occ. eigenvalues --   -9.94461  -9.94336  -9.93831  -9.93576  -9.93515
 Alpha  occ. eigenvalues --   -9.93363  -9.93358  -9.93294  -9.93146  -9.93074
 Alpha  occ. eigenvalues --   -9.92947  -9.92936  -9.92871  -9.92696  -9.92649
 Alpha  occ. eigenvalues --   -9.92587  -9.92561  -9.92523  -9.92421  -9.92362
 Alpha  occ. eigenvalues --   -9.92325  -9.92130  -9.91922  -9.91887  -9.91609
 Alpha  occ. eigenvalues --   -9.91395  -9.91290  -9.91201  -9.91175  -9.91107
 Alpha  occ. eigenvalues --   -9.91053  -9.90993  -9.90975  -9.90964  -9.90813
 Alpha  occ. eigenvalues --   -9.90677  -9.90602  -9.90528  -9.90258  -9.90207
 Alpha  occ. eigenvalues --   -9.89633  -2.90904  -1.71341  -1.70747  -1.70648
 Alpha  occ. eigenvalues --   -0.98799  -0.96699  -0.93044  -0.92412  -0.90113
 Alpha  occ. eigenvalues --   -0.89951  -0.87470  -0.86789  -0.85551  -0.84791
 Alpha  occ. eigenvalues --   -0.76505  -0.74706  -0.74076  -0.73531  -0.72662
 Alpha  occ. eigenvalues --   -0.71869  -0.71506  -0.71342  -0.71039  -0.70701
 Alpha  occ. eigenvalues --   -0.69962  -0.69774  -0.68247  -0.67554  -0.67184
 Alpha  occ. eigenvalues --   -0.66664  -0.66297  -0.65737  -0.64956  -0.64329
 Alpha  occ. eigenvalues --   -0.64100  -0.62909  -0.62805  -0.61489  -0.60249
 Alpha  occ. eigenvalues --   -0.60050  -0.59986  -0.59546  -0.59529  -0.59065
 Alpha  occ. eigenvalues --   -0.58858  -0.58021  -0.57148  -0.56199  -0.54802
 Alpha  occ. eigenvalues --   -0.54131  -0.53771  -0.53201  -0.52831  -0.51731
 Alpha  occ. eigenvalues --   -0.51455  -0.51189  -0.50397  -0.50244  -0.49993
 Alpha  occ. eigenvalues --   -0.49837  -0.49564  -0.48962  -0.47455  -0.46925
 Alpha  occ. eigenvalues --   -0.46661  -0.45805  -0.45664  -0.45346  -0.45085
 Alpha  occ. eigenvalues --   -0.44579  -0.44394  -0.43104  -0.42589  -0.42410
 Alpha  occ. eigenvalues --   -0.42231  -0.41851  -0.41515  -0.41267  -0.40903
 Alpha  occ. eigenvalues --   -0.40818  -0.40621  -0.40585  -0.40222  -0.40109
 Alpha  occ. eigenvalues --   -0.40032  -0.39700  -0.39582  -0.39302  -0.39155
 Alpha  occ. eigenvalues --   -0.38977  -0.38747  -0.38661  -0.38607  -0.38172
 Alpha  occ. eigenvalues --   -0.38114  -0.38043  -0.37719  -0.37506  -0.37372
 Alpha  occ. eigenvalues --   -0.37195  -0.36994  -0.36923  -0.36697  -0.36621
 Alpha  occ. eigenvalues --   -0.36554  -0.36370  -0.36295  -0.35885  -0.35710
 Alpha  occ. eigenvalues --   -0.35543  -0.35394  -0.35316  -0.35104  -0.34929
 Alpha  occ. eigenvalues --   -0.34715  -0.34641  -0.34404  -0.34307  -0.34009
 Alpha  occ. eigenvalues --   -0.33794  -0.33720  -0.33677  -0.33531  -0.33158
 Alpha  occ. eigenvalues --   -0.33130  -0.32912  -0.32706  -0.32545  -0.32142
 Alpha  occ. eigenvalues --   -0.32085  -0.32012  -0.31979  -0.31896  -0.31754
 Alpha  occ. eigenvalues --   -0.31446  -0.31285  -0.31171  -0.31081  -0.30809
 Alpha  occ. eigenvalues --   -0.30798  -0.30563  -0.30455  -0.30243  -0.30086
 Alpha  occ. eigenvalues --   -0.29988  -0.29558  -0.29436  -0.29128  -0.28764
 Alpha  occ. eigenvalues --   -0.28642  -0.28167  -0.27930  -0.27660  -0.27611
 Alpha  occ. eigenvalues --   -0.27265  -0.27004  -0.26840  -0.26651  -0.26521
 Alpha  occ. eigenvalues --   -0.26415  -0.26212  -0.26069  -0.26057  -0.25121
 Alpha  occ. eigenvalues --   -0.24631  -0.24432  -0.24175  -0.23679  -0.23240
 Alpha  occ. eigenvalues --   -0.22689  -0.22478  -0.22315  -0.21889  -0.21362
 Alpha  occ. eigenvalues --   -0.20301  -0.20286  -0.19740  -0.18330  -0.17462
 Alpha  occ. eigenvalues --   -0.16236
 Alpha virt. eigenvalues --   -0.11845  -0.06861  -0.06316  -0.04234  -0.03275
 Alpha virt. eigenvalues --   -0.02342  -0.01977  -0.01432  -0.00834  -0.00095
 Alpha virt. eigenvalues --    0.00877   0.01541   0.02350   0.02975   0.02997

 Mulliken charges:
               1
     1  Mg   0.712933
     2  C   -0.014264
     3  C   -0.104428
     4  C   -0.044259
     5  C   -0.099945
     6  N   -0.253988
     7  C   -0.072068
     8  C    0.014732
     9  C    0.006958
    10  C    0.003471
    11  C    0.128723
    12  C    0.087145
    13  C    0.180257
    14  C    0.061062
    15  O   -0.184441
    16  O   -0.251093
    17  N   -0.269025
    18  C    0.200504
    19  C   -0.131423
    20  C    0.020804
    21  C    0.054074
    22  C    0.184445
    23  C   -0.059795
    24  O   -0.156991
    25  C    0.140792
    26  N   -0.237322
    27  C    0.027755
    28  C   -0.015310
    29  C    0.055291
    30  C    0.064752
    31  C    0.142307
    32  C    0.090847
    33  C    0.048772
    34  N   -0.244115
    35  C    0.118608
    36  C   -0.199447
    37  C    0.108008
    38  C    0.120275
    39  C    0.173106
    40  C   -0.134811
    41  O   -0.082991
    42  C    0.073498
    43  C    0.104385
    44  O   -0.144514
    45  O   -0.296677
    46  C    0.245459
    47  C    0.301011
    48  C   -0.075333
    49  C   -0.221757
    50  C    0.134899
    51  C    0.166209
    52  C    0.121681
    53  C    0.134208
    54  C   -0.075343
    55  C    0.076620
    56  C    0.067792
    57  C    0.043068
    58  C    0.140813
    59  C   -0.080415
    60  C    0.117210
    61  C    0.064583
    62  C    0.093756
    63  C    0.100590
    64  C   -0.069127
    65  C    0.092156
    66  C    0.096645
    67  H   -0.059148
    68  H   -0.042510
    69  H   -0.058096
    70  H   -0.012118
    71  H   -0.030665
    72  H    0.010179
    73  H   -0.003902
    74  H   -0.014759
    75  H   -0.023282
    76  H    0.009784
    77  H   -0.016512
    78  H   -0.014012
    79  H   -0.001884
    80  H   -0.025049
    81  H   -0.015746
    82  H    0.011060
    83  H   -0.011086
    84  H    0.013207
    85  H   -0.020130
    86  H   -0.042867
    87  H   -0.005060
    88  H   -0.000997
    89  H   -0.001058
    90  H   -0.021795
    91  H   -0.014077
    92  H   -0.004424
    93  H   -0.006735
    94  H    0.010615
    95  H   -0.009559
    96  H    0.012599
    97  H    0.001952
    98  H   -0.000975
    99  H   -0.013042
   100  H   -0.000211
   101  H    0.002997
   102  H   -0.000997
   103  H    0.014559
   104  H   -0.039995
   105  H    0.005382
   106  H    0.014506
   107  H   -0.024037
   108  H   -0.018669
   109  H   -0.066020
   110  H   -0.037352
   111  H   -0.030990
   112  H   -0.033994
   113  H   -0.043851
   114  H   -0.032597
   115  H   -0.017760
   116  H   -0.018086
   117  H   -0.011084
   118  H   -0.021567
   119  H   -0.030229
   120  H   -0.024965
   121  H   -0.036875
   122  H   -0.036984
   123  H   -0.044744
   124  H   -0.033667
   125  H   -0.024199
   126  H   -0.023358
   127  H   -0.025929
   128  H   -0.031354
   129  H   -0.032147
   130  H   -0.040095
   131  H   -0.027721
   132  H   -0.022055
   133  H   -0.038672
   134  H   -0.041714
   135  H   -0.021867
   136  H   -0.025780
   137  H   -0.024657
   138  H   -0.012498
   139  H   -0.026934
   140  H   -0.015020
 Sum of Mulliken charges =  -0.00000

 Dipole moment (field-independent basis, Debye):
    X=             -2.2502    Y=              4.6197    Z=              0.7506  Tot=              5.1931
 Quadrupole moment (field-independent basis, Debye-Ang):
   XX=           -390.4738   YY=           -425.8857   ZZ=           -403.1668
   XY=              7.9832   XZ=             10.7028   YZ=            -11.6561

 Normal termination of Gaussian 16 at Tue May  3 22:13:39 2022.
