 Gaussian 16, Revision A.03,
 Gaussian 16:  ES64L-G16RevA.03 25-Dec-2016

 -----------------------------------
 #p cam-b3lyp/Def2SVP td=(nstates=5)
 -----------------------------------

 -------------------------------------------------------
 step_101_chromophore_16 TDDFT with cam-b3lyp functional
 -------------------------------------------------------
 Symbolic Z-matrix:
 Charge =  0 Multiplicity = 1

                         Standard orientation:
 ---------------------------------------------------------------------
 Center     Atomic      Atomic             Coordinates (Angstroms)
 Number     Number       Type             X           Y           Z
 ---------------------------------------------------------------------
      1         12           0        5.870595    0.519762    0.059234
      2          6           0        3.558443   -2.045584    0.013984
      3          6           0        3.658138    2.614342   -1.238907
      4          6           0        8.326072    2.878328    0.118944
      5          6           0        8.240176   -1.919575    1.206573
      6          7           0        3.802514    0.357640   -0.266649
      7          6           0        2.977038   -0.797708   -0.199614
      8          6           0        1.596109   -0.533613   -0.758859
      9          6           0        1.680741    0.890891   -1.359490
     10          6           0        3.099857    1.354304   -0.827400
     11          6           0        1.379908    0.994006   -2.859308
     12          6           0        0.541309   -0.757026    0.238461
     13          6           0       -0.895271   -0.476101   -0.244904
     14          6           0       -1.732403   -1.737330   -0.425495
     15          8           0       -1.703061   -2.586492   -1.308814
     16          8           0       -2.605576   -1.864594    0.615744
     17          7           0        5.938163    2.468910   -0.510693
     18          6           0        4.928688    3.148636   -1.008381
     19          6           0        5.366065    4.506179   -1.267295
     20          6           0        6.699599    4.653180   -0.876635
     21          6           0        7.049622    3.270573   -0.422764
     22          6           0        4.487389    5.630350   -1.743750
     23          6           0        7.694655    5.828894   -1.061283
     24          8           0        8.862090    5.877204   -0.682755
     25          6           0        7.193632    7.038360   -1.727771
     26          7           0        7.938310    0.520795    0.612353
     27          6           0        8.750608    1.579331    0.525326
     28          6           0       10.165217    1.284246    1.132552
     29          6           0        9.965201   -0.132983    1.672632
     30          6           0        8.624095   -0.612810    1.165800
     31          6           0       11.369176    1.393390    0.205804
     32          6           0       10.063667   -0.279215    3.219917
     33          6           0        9.029850    0.582397    3.991106
     34          7           0        5.937339   -1.525187    0.415322
     35          6           0        6.938174   -2.400657    0.827894
     36          6           0        6.492181   -3.699619    0.978989
     37          6           0        5.107607   -3.606056    0.631845
     38          6           0        4.875820   -2.320696    0.290936
     39          6           0        7.294532   -4.956745    1.240893
     40          6           0        3.930756   -4.360117    0.457355
     41          8           0        3.679522   -5.490929    0.681442
     42          6           0        2.838097   -3.341583    0.005604
     43          6           0        2.345944   -3.805279   -1.337333
     44          8           0        3.051886   -3.948770   -2.290377
     45          8           0        0.944494   -4.160831   -1.339046
     46          6           0        0.400632   -4.409075   -2.600258
     47          6           0       -3.502034   -2.986976    0.648710
     48          6           0       -5.015230   -2.611189    0.591780
     49          6           0       -6.112525   -3.372239    0.490774
     50          6           0       -6.125268   -4.969712    0.443049
     51          6           0       -7.465128   -2.749949    0.275602
     52          6           0       -7.708135   -2.051781   -0.943593
     53          6           0       -8.010643   -0.522805   -0.761275
     54          6           0       -9.163782    0.046843   -1.532599
     55          6           0       -8.761063    1.495210   -2.128537
     56          6           0      -10.504264    0.173953   -0.716943
     57          6           0      -11.844823   -0.287822   -1.407926
     58          6           0      -12.977512    0.768469   -1.336892
     59          6           0      -13.954599    0.447634   -0.284125
     60          6           0      -15.401066    0.182219   -0.787015
     61          6           0      -14.140288    1.480844    0.892707
     62          6           0      -12.990217    1.411867    1.877319
     63          6           0      -12.105341    2.668221    1.796707
     64          6           0      -12.557284    3.751880    2.790219
     65          6           0      -11.479437    4.100033    3.832628
     66          6           0      -13.071199    5.033268    2.156640
     67          1           0        2.824001    3.219694   -1.600717
     68          1           0        9.078100    3.667368    0.059558
     69          1           0        8.930994   -2.635232    1.656346
     70          1           0        1.414048   -1.282786   -1.528953
     71          1           0        0.925284    1.548370   -0.928808
     72          1           0        0.796170    0.111165   -3.120019
     73          1           0        2.306761    1.082255   -3.426600
     74          1           0        0.833198    1.892875   -3.143539
     75          1           0        0.795138   -0.334769    1.210252
     76          1           0        0.560741   -1.841046    0.350360
     77          1           0       -0.882192    0.083081   -1.181120
     78          1           0       -1.427859    0.222414    0.399909
     79          1           0        4.541286    6.562676   -1.180348
     80          1           0        3.454775    5.301129   -1.855244
     81          1           0        4.726614    5.964188   -2.752598
     82          1           0        6.830007    6.816864   -2.731731
     83          1           0        8.061702    7.693600   -1.801948
     84          1           0        6.469926    7.542802   -1.087447
     85          1           0       10.220743    2.072927    1.882870
     86          1           0       10.733012   -0.707642    1.155427
     87          1           0       11.214005    0.803210   -0.697122
     88          1           0       12.260588    1.069227    0.741510
     89          1           0       11.452815    2.443908   -0.073547
     90          1           0       11.052538    0.148922    3.387591
     91          1           0        9.926324   -1.298804    3.578219
     92          1           0        9.479085    1.015779    4.883710
     93          1           0        8.266804   -0.127157    4.310576
     94          1           0        8.592792    1.332442    3.331399
     95          1           0        7.855412   -4.895568    2.174643
     96          1           0        7.935966   -5.233440    0.404281
     97          1           0        6.544012   -5.732751    1.393170
     98          1           0        2.056980   -3.440362    0.760055
     99          1           0        0.729875   -5.414508   -2.862480
    100          1           0        0.590474   -3.594210   -3.299072
    101          1           0       -0.670919   -4.594231   -2.521391
    102          1           0       -3.403974   -3.475457    1.617768
    103          1           0       -3.271818   -3.812760   -0.025115
    104          1           0       -5.270696   -1.555670    0.500481
    105          1           0       -6.314120   -5.306614   -0.576245
    106          1           0       -6.830139   -5.340063    1.187227
    107          1           0       -5.075204   -5.194809    0.628554
    108          1           0       -7.779483   -2.228987    1.180418
    109          1           0       -8.156823   -3.592209    0.247365
    110          1           0       -8.537675   -2.511377   -1.481993
    111          1           0       -6.853475   -2.263519   -1.585121
    112          1           0       -7.172744    0.160667   -0.902956
    113          1           0       -8.355622   -0.344116    0.256615
    114          1           0       -9.423513   -0.616131   -2.358085
    115          1           0       -9.511555    2.285775   -2.111382
    116          1           0       -8.625911    1.323488   -3.196510
    117          1           0       -7.839486    1.929888   -1.743111
    118          1           0      -10.668459    1.173155   -0.313208
    119          1           0      -10.468448   -0.466301    0.164521
    120          1           0      -12.154520   -1.229097   -0.953467
    121          1           0      -11.696714   -0.500963   -2.466541
    122          1           0      -13.337295    0.955776   -2.349038
    123          1           0      -12.558208    1.736089   -1.064856
    124          1           0      -13.598904   -0.459671    0.203517
    125          1           0      -15.670015    0.642346   -1.737714
    126          1           0      -16.076033    0.541607   -0.009862
    127          1           0      -15.559275   -0.872633   -1.011618
    128          1           0      -15.110871    1.570653    1.380778
    129          1           0      -14.075254    2.416491    0.337167
    130          1           0      -12.360708    0.548127    1.661925
    131          1           0      -13.413674    1.196390    2.858760
    132          1           0      -12.001251    3.198656    0.850129
    133          1           0      -11.089627    2.346921    2.028200
    134          1           0      -13.364451    3.383701    3.423849
    135          1           0      -10.457319    4.053837    3.456825
    136          1           0      -11.500477    3.345412    4.620030
    137          1           0      -11.673989    5.084792    4.257430
    138          1           0      -12.350867    5.608070    1.576360
    139          1           0      -13.422842    5.773467    2.875073
    140          1           0      -13.952947    4.654116    1.639546
 ---------------------------------------------------------------------

 SCF Done:  E(RCAM-B3LYP) =  -3007.17520573     A.U. after   16 cycles

 Excitation energies and oscillator strengths:

 Excited State   1:      Singlet-A      1.8483 eV  670.80 nm  f=0.3588  <S**2>=0.000
     245 -> 248        0.15362
     246 -> 247        0.69016
 This state for optimization and/or second-order correction.
 Total Energy, E(TD-HF/TD-DFT) =  -3007.10728182
 Copying the excited state density for this state as the 1-particle RhoCI density.

 Excited State   2:      Singlet-A      2.2918 eV  540.99 nm  f=0.1509  <S**2>=0.000
     245 -> 247        0.65298
     246 -> 248       -0.25361

 Excited State   3:      Singlet-A      3.4120 eV  363.38 nm  f=0.0166  <S**2>=0.000
     241 -> 247        0.15283
     244 -> 247        0.67266

 Excited State   4:      Singlet-A      3.6556 eV  339.17 nm  f=0.1555  <S**2>=0.000
     240 -> 247       -0.18499
     241 -> 247        0.16586
     243 -> 247        0.46188
     243 -> 249        0.14266
     243 -> 250        0.18670
     245 -> 247       -0.11866
     246 -> 248       -0.36010

 Excited State   5:      Singlet-A      3.6686 eV  337.96 nm  f=0.1347  <S**2>=0.000
     240 -> 247        0.28480
     241 -> 247       -0.23757
     243 -> 247        0.39538
     243 -> 249        0.11713
     243 -> 250        0.16129
     244 -> 247        0.12854
     246 -> 248        0.33167

 The electronic state is 1-A.
 Alpha  occ. eigenvalues --  -46.87511 -19.25356 -19.22589 -19.20639 -19.20073
 Alpha  occ. eigenvalues --  -19.19794 -19.17386 -14.42962 -14.41944 -14.40432
 Alpha  occ. eigenvalues --  -14.38100 -10.40005 -10.38633 -10.36794 -10.32732
 Alpha  occ. eigenvalues --  -10.32653 -10.32224 -10.32201 -10.32004 -10.31584
 Alpha  occ. eigenvalues --  -10.30352 -10.30187 -10.29620 -10.28912 -10.28837
 Alpha  occ. eigenvalues --  -10.28711 -10.28313 -10.27888 -10.27779 -10.27739
 Alpha  occ. eigenvalues --  -10.27670 -10.27638 -10.27149 -10.27135 -10.27037
 Alpha  occ. eigenvalues --  -10.26852 -10.26819 -10.26678 -10.26648 -10.26637
 Alpha  occ. eigenvalues --  -10.26546 -10.26233 -10.26219 -10.26172 -10.26161
 Alpha  occ. eigenvalues --  -10.26078 -10.25796 -10.25637 -10.25080 -10.25068
 Alpha  occ. eigenvalues --  -10.24969 -10.24964 -10.24874 -10.24762 -10.24737
 Alpha  occ. eigenvalues --  -10.24726 -10.24642 -10.24623 -10.24594 -10.24347
 Alpha  occ. eigenvalues --  -10.24274 -10.24189 -10.24183 -10.23853 -10.23793
 Alpha  occ. eigenvalues --  -10.22712  -3.16289  -1.91200  -1.90718  -1.90631
 Alpha  occ. eigenvalues --   -1.17164  -1.15081  -1.11493  -1.10850  -1.07859
 Alpha  occ. eigenvalues --   -1.07644  -1.05840  -1.04051  -1.03115  -1.02350
 Alpha  occ. eigenvalues --   -0.93273  -0.91559  -0.90914  -0.90364  -0.89430
 Alpha  occ. eigenvalues --   -0.88946  -0.88541  -0.88255  -0.87608  -0.87225
 Alpha  occ. eigenvalues --   -0.86305  -0.85790  -0.84474  -0.83741  -0.83222
 Alpha  occ. eigenvalues --   -0.83102  -0.82683  -0.81738  -0.80749  -0.80093
 Alpha  occ. eigenvalues --   -0.79801  -0.79094  -0.78316  -0.76801  -0.75485
 Alpha  occ. eigenvalues --   -0.75358  -0.75339  -0.74809  -0.74648  -0.74160
 Alpha  occ. eigenvalues --   -0.74097  -0.72856  -0.72169  -0.71104  -0.69425
 Alpha  occ. eigenvalues --   -0.68816  -0.68605  -0.67557  -0.67176  -0.65989
 Alpha  occ. eigenvalues --   -0.65681  -0.65249  -0.64211  -0.64050  -0.63982
 Alpha  occ. eigenvalues --   -0.63713  -0.63557  -0.62886  -0.61116  -0.60954
 Alpha  occ. eigenvalues --   -0.60280  -0.59287  -0.59051  -0.58715  -0.58497
 Alpha  occ. eigenvalues --   -0.57967  -0.57675  -0.56622  -0.55731  -0.55323
 Alpha  occ. eigenvalues --   -0.55241  -0.55076  -0.54571  -0.54285  -0.54154
 Alpha  occ. eigenvalues --   -0.53860  -0.53512  -0.53447  -0.53171  -0.52644
 Alpha  occ. eigenvalues --   -0.52511  -0.52377  -0.52184  -0.51977  -0.51781
 Alpha  occ. eigenvalues --   -0.51532  -0.51335  -0.51192  -0.51105  -0.51017
 Alpha  occ. eigenvalues --   -0.50687  -0.50351  -0.50247  -0.50124  -0.49780
 Alpha  occ. eigenvalues --   -0.49552  -0.49354  -0.49148  -0.49030  -0.48854
 Alpha  occ. eigenvalues --   -0.48676  -0.48661  -0.48463  -0.48291  -0.47969
 Alpha  occ. eigenvalues --   -0.47836  -0.47486  -0.47236  -0.47116  -0.46745
 Alpha  occ. eigenvalues --   -0.46627  -0.46382  -0.46354  -0.46336  -0.45835
 Alpha  occ. eigenvalues --   -0.45481  -0.45338  -0.45328  -0.45147  -0.45001
 Alpha  occ. eigenvalues --   -0.44844  -0.44527  -0.44423  -0.44168  -0.44121
 Alpha  occ. eigenvalues --   -0.43844  -0.43603  -0.43488  -0.43462  -0.43316
 Alpha  occ. eigenvalues --   -0.43266  -0.42862  -0.42597  -0.42521  -0.42328
 Alpha  occ. eigenvalues --   -0.42038  -0.41871  -0.41720  -0.41311  -0.41249
 Alpha  occ. eigenvalues --   -0.41228  -0.40899  -0.40678  -0.40199  -0.40059
 Alpha  occ. eigenvalues --   -0.39674  -0.39310  -0.39129  -0.38823  -0.38538
 Alpha  occ. eigenvalues --   -0.38264  -0.38139  -0.37840  -0.37386  -0.37265
 Alpha  occ. eigenvalues --   -0.37197  -0.36939  -0.36873  -0.36780  -0.36025
 Alpha  occ. eigenvalues --   -0.35173  -0.34921  -0.34755  -0.34533  -0.34472
 Alpha  occ. eigenvalues --   -0.33860  -0.33425  -0.33047  -0.32688  -0.32243
 Alpha  occ. eigenvalues --   -0.30939  -0.29945  -0.29574  -0.28865  -0.24404
 Alpha  occ. eigenvalues --   -0.21858
 Alpha virt. eigenvalues --   -0.08852  -0.01452  -0.00031   0.03047   0.03905
 Alpha virt. eigenvalues --    0.04414   0.05197   0.05720   0.06153   0.06197
 Alpha virt. eigenvalues --    0.07579   0.08351   0.08943   0.09282   0.09389

 Mulliken charges:
               1
     1  Mg   0.850284
     2  C   -0.036824
     3  C   -0.123547
     4  C   -0.067074
     5  C   -0.093675
     6  N   -0.324809
     7  C   -0.030164
     8  C   -0.039432
     9  C   -0.056524
    10  C    0.040839
    11  C    0.070499
    12  C    0.039337
    13  C    0.106531
    14  C    0.144991
    15  O   -0.226718
    16  O   -0.316420
    17  N   -0.365837
    18  C    0.213108
    19  C   -0.132848
    20  C   -0.039931
    21  C    0.088980
    22  C    0.121433
    23  C    0.025777
    24  O   -0.193168
    25  C    0.049498
    26  N   -0.307750
    27  C    0.057903
    28  C   -0.071560
    29  C   -0.007201
    30  C    0.069377
    31  C    0.086065
    32  C    0.042928
    33  C   -0.011320
    34  N   -0.334264
    35  C    0.111644
    36  C   -0.195446
    37  C    0.021428
    38  C    0.149962
    39  C    0.122021
    40  C   -0.033700
    41  O   -0.128026
    42  C   -0.010013
    43  C    0.193574
    44  O   -0.177286
    45  O   -0.358907
    46  C    0.200111
    47  C    0.274066
    48  C   -0.102263
    49  C   -0.241769
    50  C    0.081354
    51  C    0.099977
    52  C    0.058365
    53  C    0.079106
    54  C   -0.128598
    55  C    0.022186
    56  C    0.022290
    57  C   -0.009823
    58  C    0.081677
    59  C   -0.135619
    60  C    0.061944
    61  C    0.013919
    62  C    0.034885
    63  C    0.040135
    64  C   -0.127148
    65  C    0.035194
    66  C    0.038705
    67  H   -0.025427
    68  H   -0.002090
    69  H   -0.022874
    70  H    0.019312
    71  H    0.004680
    72  H    0.034617
    73  H    0.023529
    74  H    0.010417
    75  H    0.010086
    76  H    0.037383
    77  H    0.014383
    78  H    0.023521
    79  H    0.028279
    80  H    0.007682
    81  H    0.016226
    82  H    0.039484
    83  H    0.028583
    84  H    0.041559
    85  H    0.014979
    86  H   -0.004781
    87  H    0.020501
    88  H    0.024802
    89  H    0.021842
    90  H    0.003298
    91  H    0.014096
    92  H    0.019532
    93  H    0.018246
    94  H    0.026422
    95  H    0.011225
    96  H    0.034504
    97  H    0.027463
    98  H    0.043338
    99  H    0.011540
   100  H    0.019713
   101  H    0.026560
   102  H    0.025649
   103  H    0.044837
   104  H   -0.008564
   105  H    0.028885
   106  H    0.037181
   107  H   -0.001967
   108  H    0.012337
   109  H   -0.030909
   110  H   -0.006899
   111  H    0.001556
   112  H   -0.005216
   113  H   -0.015086
   114  H   -0.001686
   115  H    0.005243
   116  H    0.005736
   117  H    0.011327
   118  H    0.000289
   119  H   -0.004452
   120  H    0.003120
   121  H   -0.007499
   122  H   -0.005219
   123  H   -0.017148
   124  H   -0.002386
   125  H   -0.000564
   126  H    0.000913
   127  H   -0.000928
   128  H   -0.001167
   129  H   -0.006459
   130  H   -0.012085
   131  H    0.002348
   132  H    0.004593
   133  H   -0.008230
   134  H   -0.009680
   135  H    0.001479
   136  H   -0.001075
   137  H   -0.000119
   138  H    0.010842
   139  H   -0.001572
   140  H    0.007527
 Sum of Mulliken charges =  -0.00000

 Dipole moment (field-independent basis, Debye):
    X=             -2.2049    Y=              7.0198    Z=              0.1555  Tot=              7.3596
 Quadrupole moment (field-independent basis, Debye-Ang):
   XX=           -387.8378   YY=           -420.5938   ZZ=           -402.8779
   XY=             20.6074   XZ=              7.8389   YZ=            -13.9013

 Normal termination of Gaussian 16 at Tue May  3 20:59:34 2022.
