 Gaussian 16, Revision A.03,
 Gaussian 16:  ES64L-G16RevA.03 25-Dec-2016

 ---------------------------------
 #p PBE1PBE/Def2SVP td=(nstates=5)
 ---------------------------------

 -----------------------------------------------------
 step_101_chromophore_16 TDDFT with PBE1PBE functional
 -----------------------------------------------------
 Symbolic Z-matrix:
 Charge =  0 Multiplicity = 1

                         Standard orientation:
 ---------------------------------------------------------------------
 Center     Atomic      Atomic             Coordinates (Angstroms)
 Number     Number       Type             X           Y           Z
 ---------------------------------------------------------------------
      1         12           0        5.870595    0.519762    0.059234
      2          6           0        3.558443   -2.045584    0.013984
      3          6           0        3.658138    2.614342   -1.238907
      4          6           0        8.326072    2.878328    0.118944
      5          6           0        8.240176   -1.919575    1.206573
      6          7           0        3.802514    0.357640   -0.266649
      7          6           0        2.977038   -0.797708   -0.199614
      8          6           0        1.596109   -0.533613   -0.758859
      9          6           0        1.680741    0.890891   -1.359490
     10          6           0        3.099857    1.354304   -0.827400
     11          6           0        1.379908    0.994006   -2.859308
     12          6           0        0.541309   -0.757026    0.238461
     13          6           0       -0.895271   -0.476101   -0.244904
     14          6           0       -1.732403   -1.737330   -0.425495
     15          8           0       -1.703061   -2.586492   -1.308814
     16          8           0       -2.605576   -1.864594    0.615744
     17          7           0        5.938163    2.468910   -0.510693
     18          6           0        4.928688    3.148636   -1.008381
     19          6           0        5.366065    4.506179   -1.267295
     20          6           0        6.699599    4.653180   -0.876635
     21          6           0        7.049622    3.270573   -0.422764
     22          6           0        4.487389    5.630350   -1.743750
     23          6           0        7.694655    5.828894   -1.061283
     24          8           0        8.862090    5.877204   -0.682755
     25          6           0        7.193632    7.038360   -1.727771
     26          7           0        7.938310    0.520795    0.612353
     27          6           0        8.750608    1.579331    0.525326
     28          6           0       10.165217    1.284246    1.132552
     29          6           0        9.965201   -0.132983    1.672632
     30          6           0        8.624095   -0.612810    1.165800
     31          6           0       11.369176    1.393390    0.205804
     32          6           0       10.063667   -0.279215    3.219917
     33          6           0        9.029850    0.582397    3.991106
     34          7           0        5.937339   -1.525187    0.415322
     35          6           0        6.938174   -2.400657    0.827894
     36          6           0        6.492181   -3.699619    0.978989
     37          6           0        5.107607   -3.606056    0.631845
     38          6           0        4.875820   -2.320696    0.290936
     39          6           0        7.294532   -4.956745    1.240893
     40          6           0        3.930756   -4.360117    0.457355
     41          8           0        3.679522   -5.490929    0.681442
     42          6           0        2.838097   -3.341583    0.005604
     43          6           0        2.345944   -3.805279   -1.337333
     44          8           0        3.051886   -3.948770   -2.290377
     45          8           0        0.944494   -4.160831   -1.339046
     46          6           0        0.400632   -4.409075   -2.600258
     47          6           0       -3.502034   -2.986976    0.648710
     48          6           0       -5.015230   -2.611189    0.591780
     49          6           0       -6.112525   -3.372239    0.490774
     50          6           0       -6.125268   -4.969712    0.443049
     51          6           0       -7.465128   -2.749949    0.275602
     52          6           0       -7.708135   -2.051781   -0.943593
     53          6           0       -8.010643   -0.522805   -0.761275
     54          6           0       -9.163782    0.046843   -1.532599
     55          6           0       -8.761063    1.495210   -2.128537
     56          6           0      -10.504264    0.173953   -0.716943
     57          6           0      -11.844823   -0.287822   -1.407926
     58          6           0      -12.977512    0.768469   -1.336892
     59          6           0      -13.954599    0.447634   -0.284125
     60          6           0      -15.401066    0.182219   -0.787015
     61          6           0      -14.140288    1.480844    0.892707
     62          6           0      -12.990217    1.411867    1.877319
     63          6           0      -12.105341    2.668221    1.796707
     64          6           0      -12.557284    3.751880    2.790219
     65          6           0      -11.479437    4.100033    3.832628
     66          6           0      -13.071199    5.033268    2.156640
     67          1           0        2.824001    3.219694   -1.600717
     68          1           0        9.078100    3.667368    0.059558
     69          1           0        8.930994   -2.635232    1.656346
     70          1           0        1.414048   -1.282786   -1.528953
     71          1           0        0.925284    1.548370   -0.928808
     72          1           0        0.796170    0.111165   -3.120019
     73          1           0        2.306761    1.082255   -3.426600
     74          1           0        0.833198    1.892875   -3.143539
     75          1           0        0.795138   -0.334769    1.210252
     76          1           0        0.560741   -1.841046    0.350360
     77          1           0       -0.882192    0.083081   -1.181120
     78          1           0       -1.427859    0.222414    0.399909
     79          1           0        4.541286    6.562676   -1.180348
     80          1           0        3.454775    5.301129   -1.855244
     81          1           0        4.726614    5.964188   -2.752598
     82          1           0        6.830007    6.816864   -2.731731
     83          1           0        8.061702    7.693600   -1.801948
     84          1           0        6.469926    7.542802   -1.087447
     85          1           0       10.220743    2.072927    1.882870
     86          1           0       10.733012   -0.707642    1.155427
     87          1           0       11.214005    0.803210   -0.697122
     88          1           0       12.260588    1.069227    0.741510
     89          1           0       11.452815    2.443908   -0.073547
     90          1           0       11.052538    0.148922    3.387591
     91          1           0        9.926324   -1.298804    3.578219
     92          1           0        9.479085    1.015779    4.883710
     93          1           0        8.266804   -0.127157    4.310576
     94          1           0        8.592792    1.332442    3.331399
     95          1           0        7.855412   -4.895568    2.174643
     96          1           0        7.935966   -5.233440    0.404281
     97          1           0        6.544012   -5.732751    1.393170
     98          1           0        2.056980   -3.440362    0.760055
     99          1           0        0.729875   -5.414508   -2.862480
    100          1           0        0.590474   -3.594210   -3.299072
    101          1           0       -0.670919   -4.594231   -2.521391
    102          1           0       -3.403974   -3.475457    1.617768
    103          1           0       -3.271818   -3.812760   -0.025115
    104          1           0       -5.270696   -1.555670    0.500481
    105          1           0       -6.314120   -5.306614   -0.576245
    106          1           0       -6.830139   -5.340063    1.187227
    107          1           0       -5.075204   -5.194809    0.628554
    108          1           0       -7.779483   -2.228987    1.180418
    109          1           0       -8.156823   -3.592209    0.247365
    110          1           0       -8.537675   -2.511377   -1.481993
    111          1           0       -6.853475   -2.263519   -1.585121
    112          1           0       -7.172744    0.160667   -0.902956
    113          1           0       -8.355622   -0.344116    0.256615
    114          1           0       -9.423513   -0.616131   -2.358085
    115          1           0       -9.511555    2.285775   -2.111382
    116          1           0       -8.625911    1.323488   -3.196510
    117          1           0       -7.839486    1.929888   -1.743111
    118          1           0      -10.668459    1.173155   -0.313208
    119          1           0      -10.468448   -0.466301    0.164521
    120          1           0      -12.154520   -1.229097   -0.953467
    121          1           0      -11.696714   -0.500963   -2.466541
    122          1           0      -13.337295    0.955776   -2.349038
    123          1           0      -12.558208    1.736089   -1.064856
    124          1           0      -13.598904   -0.459671    0.203517
    125          1           0      -15.670015    0.642346   -1.737714
    126          1           0      -16.076033    0.541607   -0.009862
    127          1           0      -15.559275   -0.872633   -1.011618
    128          1           0      -15.110871    1.570653    1.380778
    129          1           0      -14.075254    2.416491    0.337167
    130          1           0      -12.360708    0.548127    1.661925
    131          1           0      -13.413674    1.196390    2.858760
    132          1           0      -12.001251    3.198656    0.850129
    133          1           0      -11.089627    2.346921    2.028200
    134          1           0      -13.364451    3.383701    3.423849
    135          1           0      -10.457319    4.053837    3.456825
    136          1           0      -11.500477    3.345412    4.620030
    137          1           0      -11.673989    5.084792    4.257430
    138          1           0      -12.350867    5.608070    1.576360
    139          1           0      -13.422842    5.773467    2.875073
    140          1           0      -13.952947    4.654116    1.639546
 ---------------------------------------------------------------------

 SCF Done:  E(RPBE1PBE) =  -3005.36033968     A.U. after   16 cycles

 Excitation energies and oscillator strengths:

 Excited State   1:      Singlet-A      1.8820 eV  658.78 nm  f=0.3496  <S**2>=0.000
     245 -> 248        0.15877
     246 -> 247        0.69491
 This state for optimization and/or second-order correction.
 Total Energy, E(TD-HF/TD-DFT) =  -3005.29117612
 Copying the excited state density for this state as the 1-particle RhoCI density.

 Excited State   2:      Singlet-A      2.2699 eV  546.21 nm  f=0.1417  <S**2>=0.000
     245 -> 247        0.66163
     246 -> 248       -0.24017

 Excited State   3:      Singlet-A      2.9026 eV  427.15 nm  f=0.0007  <S**2>=0.000
     243 -> 247       -0.11172
     244 -> 247        0.68191

 Excited State   4:      Singlet-A      2.9620 eV  418.58 nm  f=0.0063  <S**2>=0.000
     243 -> 247        0.68998
     244 -> 247        0.11683

 Excited State   5:      Singlet-A      3.2751 eV  378.57 nm  f=0.0002  <S**2>=0.000
     240 -> 247        0.66093
     240 -> 249       -0.20191

 The electronic state is 1-A.
 Alpha  occ. eigenvalues --  -46.90913 -19.26104 -19.23394 -19.20447 -19.20374
 Alpha  occ. eigenvalues --  -19.20113 -19.18066 -14.42442 -14.41484 -14.39826
 Alpha  occ. eigenvalues --  -14.38089 -10.37073 -10.35814 -10.33515 -10.30264
 Alpha  occ. eigenvalues --  -10.29975 -10.29702 -10.29327 -10.29320 -10.28582
 Alpha  occ. eigenvalues --  -10.28491 -10.27734 -10.27169 -10.26508 -10.26048
 Alpha  occ. eigenvalues --  -10.26041 -10.26002 -10.25847 -10.25582 -10.25355
 Alpha  occ. eigenvalues --  -10.25277 -10.25020 -10.24901 -10.24815 -10.24695
 Alpha  occ. eigenvalues --  -10.24672 -10.24557 -10.24553 -10.24367 -10.24204
 Alpha  occ. eigenvalues --  -10.24089 -10.24046 -10.23961 -10.23804 -10.23648
 Alpha  occ. eigenvalues --  -10.23602 -10.23536 -10.23395 -10.22823 -10.22712
 Alpha  occ. eigenvalues --  -10.22674 -10.22537 -10.22453 -10.22353 -10.22257
 Alpha  occ. eigenvalues --  -10.22204 -10.22177 -10.22175 -10.22163 -10.21889
 Alpha  occ. eigenvalues --  -10.21822 -10.21769 -10.21561 -10.21225 -10.21195
 Alpha  occ. eigenvalues --  -10.21010  -3.13264  -1.86118  -1.85613  -1.85532
 Alpha  occ. eigenvalues --   -1.12039  -1.09966  -1.06060  -1.05827  -1.02787
 Alpha  occ. eigenvalues --   -1.02617  -1.00093  -0.98991  -0.97802  -0.96963
 Alpha  occ. eigenvalues --   -0.87942  -0.85852  -0.85072  -0.84462  -0.83655
 Alpha  occ. eigenvalues --   -0.82777  -0.82658  -0.82432  -0.81759  -0.81554
 Alpha  occ. eigenvalues --   -0.80686  -0.80376  -0.78700  -0.77952  -0.77541
 Alpha  occ. eigenvalues --   -0.77047  -0.76885  -0.76021  -0.75015  -0.74398
 Alpha  occ. eigenvalues --   -0.74154  -0.73063  -0.72680  -0.71199  -0.69867
 Alpha  occ. eigenvalues --   -0.69528  -0.69430  -0.69082  -0.68966  -0.68474
 Alpha  occ. eigenvalues --   -0.68251  -0.67452  -0.66447  -0.65464  -0.63756
 Alpha  occ. eigenvalues --   -0.63043  -0.62820  -0.62194  -0.61449  -0.60290
 Alpha  occ. eigenvalues --   -0.60029  -0.59787  -0.58778  -0.58534  -0.58236
 Alpha  occ. eigenvalues --   -0.58167  -0.57692  -0.57055  -0.55689  -0.55283
 Alpha  occ. eigenvalues --   -0.54864  -0.53908  -0.53528  -0.53171  -0.53033
 Alpha  occ. eigenvalues --   -0.52543  -0.52437  -0.51066  -0.50316  -0.49985
 Alpha  occ. eigenvalues --   -0.49725  -0.49635  -0.49087  -0.48642  -0.48340
 Alpha  occ. eigenvalues --   -0.48233  -0.48020  -0.47949  -0.47612  -0.47254
 Alpha  occ. eigenvalues --   -0.47100  -0.47060  -0.46712  -0.46660  -0.46321
 Alpha  occ. eigenvalues --   -0.46062  -0.45899  -0.45853  -0.45597  -0.45302
 Alpha  occ. eigenvalues --   -0.45089  -0.44949  -0.44878  -0.44423  -0.44299
 Alpha  occ. eigenvalues --   -0.44164  -0.44068  -0.43777  -0.43741  -0.43550
 Alpha  occ. eigenvalues --   -0.43395  -0.43238  -0.43235  -0.42919  -0.42554
 Alpha  occ. eigenvalues --   -0.42268  -0.42181  -0.41827  -0.41783  -0.41363
 Alpha  occ. eigenvalues --   -0.41330  -0.41191  -0.41094  -0.41015  -0.40572
 Alpha  occ. eigenvalues --   -0.40275  -0.40216  -0.39957  -0.39805  -0.39760
 Alpha  occ. eigenvalues --   -0.39598  -0.39217  -0.39120  -0.38978  -0.38762
 Alpha  occ. eigenvalues --   -0.38513  -0.38372  -0.38286  -0.38211  -0.38088
 Alpha  occ. eigenvalues --   -0.37944  -0.37662  -0.37487  -0.37294  -0.37191
 Alpha  occ. eigenvalues --   -0.36997  -0.36766  -0.36611  -0.36214  -0.36144
 Alpha  occ. eigenvalues --   -0.36024  -0.35708  -0.35540  -0.35005  -0.34925
 Alpha  occ. eigenvalues --   -0.34601  -0.34204  -0.33918  -0.33618  -0.33560
 Alpha  occ. eigenvalues --   -0.33158  -0.33127  -0.32615  -0.32370  -0.32168
 Alpha  occ. eigenvalues --   -0.32011  -0.31956  -0.31741  -0.31595  -0.31003
 Alpha  occ. eigenvalues --   -0.30137  -0.29847  -0.29827  -0.29690  -0.29378
 Alpha  occ. eigenvalues --   -0.29187  -0.28593  -0.27978  -0.27431  -0.27049
 Alpha  occ. eigenvalues --   -0.26571  -0.25221  -0.25028  -0.24842  -0.21205
 Alpha  occ. eigenvalues --   -0.19288
 Alpha virt. eigenvalues --   -0.11434  -0.05093  -0.04113  -0.01555  -0.00097
 Alpha virt. eigenvalues --    0.00785   0.00943   0.01363   0.01648   0.02580
 Alpha virt. eigenvalues --    0.03594   0.04736   0.05133   0.05916   0.05963

 Mulliken charges:
               1
     1  Mg   1.008340
     2  C   -0.053250
     3  C   -0.110093
     4  C   -0.052144
     5  C   -0.075997
     6  N   -0.434196
     7  C    0.058716
     8  C   -0.127601
     9  C   -0.129323
    10  C    0.083916
    11  C    0.012071
    12  C   -0.016164
    13  C    0.034611
    14  C    0.210483
    15  O   -0.261990
    16  O   -0.349340
    17  N   -0.488476
    18  C    0.224953
    19  C   -0.167646
    20  C   -0.079837
    21  C    0.113150
    22  C    0.064045
    23  C    0.073083
    24  O   -0.233954
    25  C   -0.027467
    26  N   -0.410002
    27  C    0.092462
    28  C   -0.143653
    29  C   -0.089135
    30  C    0.100921
    31  C    0.024103
    32  C   -0.020884
    33  C   -0.085262
    34  N   -0.464504
    35  C    0.128947
    36  C   -0.193294
    37  C   -0.035584
    38  C    0.203481
    39  C    0.065291
    40  C    0.075879
    41  O   -0.174273
    42  C   -0.129588
    43  C    0.282962
    44  O   -0.211350
    45  O   -0.390757
    46  C    0.145004
    47  C    0.237938
    48  C   -0.116352
    49  C   -0.282687
    50  C    0.012402
    51  C    0.035129
    52  C   -0.004706
    53  C    0.023319
    54  C   -0.212408
    55  C   -0.036348
    56  C   -0.034184
    57  C   -0.073621
    58  C    0.030907
    59  C   -0.224197
    60  C    0.004807
    61  C   -0.039738
    62  C   -0.033606
    63  C   -0.017488
    64  C   -0.215358
    65  C   -0.024661
    66  C   -0.026885
    67  H    0.007381
    68  H    0.029505
    69  H    0.008219
    70  H    0.064916
    71  H    0.042087
    72  H    0.058716
    73  H    0.051967
    74  H    0.037297
    75  H    0.042233
    76  H    0.076805
    77  H    0.049514
    78  H    0.055745
    79  H    0.053589
    80  H    0.033985
    81  H    0.042298
    82  H    0.065853
    83  H    0.055209
    84  H    0.067776
    85  H    0.051041
    86  H    0.034026
    87  H    0.048036
    88  H    0.052101
    89  H    0.050829
    90  H    0.038942
    91  H    0.045683
    92  H    0.048158
    93  H    0.045911
    94  H    0.058754
    95  H    0.040657
    96  H    0.064456
    97  H    0.057513
    98  H    0.079648
    99  H    0.035444
   100  H    0.042290
   101  H    0.050065
   102  H    0.053300
   103  H    0.069207
   104  H    0.024440
   105  H    0.057043
   106  H    0.064196
   107  H    0.027407
   108  H    0.044397
   109  H    0.003609
   110  H    0.025450
   111  H    0.035232
   112  H    0.026624
   113  H    0.018289
   114  H    0.035728
   115  H    0.032175
   116  H    0.033868
   117  H    0.037445
   118  H    0.037797
   119  H    0.027542
   120  H    0.035053
   121  H    0.024865
   122  H    0.026165
   123  H    0.017313
   124  H    0.036669
   125  H    0.026700
   126  H    0.028147
   127  H    0.027130
   128  H    0.028835
   129  H    0.028564
   130  H    0.022824
   131  H    0.034721
   132  H    0.035055
   133  H    0.023794
   134  H    0.028551
   135  H    0.028993
   136  H    0.027469
   137  H    0.027284
   138  H    0.038095
   139  H    0.026668
   140  H    0.037793
 Sum of Mulliken charges =  -0.00000

 Dipole moment (field-independent basis, Debye):
    X=             -2.2488    Y=              5.8197    Z=              0.4500  Tot=              6.2553
 Quadrupole moment (field-independent basis, Debye-Ang):
   XX=           -382.8428   YY=           -418.3820   ZZ=           -400.2261
   XY=             13.1738   XZ=             10.6857   YZ=            -13.6706

 Normal termination of Gaussian 16 at Tue May  3 21:20:11 2022.
