 Gaussian 16, Revision A.03,
 Gaussian 16:  ES64L-G16RevA.03 25-Dec-2016

 --------------------------------
 #p wB97XD/Def2SVP td=(nstates=5)
 --------------------------------

 ----------------------------------------------------
 step_101_chromophore_16 TDDFT with wB97XD functional
 ----------------------------------------------------
 Symbolic Z-matrix:
 Charge =  0 Multiplicity = 1

                         Standard orientation:
 ---------------------------------------------------------------------
 Center     Atomic      Atomic             Coordinates (Angstroms)
 Number     Number       Type             X           Y           Z
 ---------------------------------------------------------------------
      1         12           0        5.870595    0.519762    0.059234
      2          6           0        3.558443   -2.045584    0.013984
      3          6           0        3.658138    2.614342   -1.238907
      4          6           0        8.326072    2.878328    0.118944
      5          6           0        8.240176   -1.919575    1.206573
      6          7           0        3.802514    0.357640   -0.266649
      7          6           0        2.977038   -0.797708   -0.199614
      8          6           0        1.596109   -0.533613   -0.758859
      9          6           0        1.680741    0.890891   -1.359490
     10          6           0        3.099857    1.354304   -0.827400
     11          6           0        1.379908    0.994006   -2.859308
     12          6           0        0.541309   -0.757026    0.238461
     13          6           0       -0.895271   -0.476101   -0.244904
     14          6           0       -1.732403   -1.737330   -0.425495
     15          8           0       -1.703061   -2.586492   -1.308814
     16          8           0       -2.605576   -1.864594    0.615744
     17          7           0        5.938163    2.468910   -0.510693
     18          6           0        4.928688    3.148636   -1.008381
     19          6           0        5.366065    4.506179   -1.267295
     20          6           0        6.699599    4.653180   -0.876635
     21          6           0        7.049622    3.270573   -0.422764
     22          6           0        4.487389    5.630350   -1.743750
     23          6           0        7.694655    5.828894   -1.061283
     24          8           0        8.862090    5.877204   -0.682755
     25          6           0        7.193632    7.038360   -1.727771
     26          7           0        7.938310    0.520795    0.612353
     27          6           0        8.750608    1.579331    0.525326
     28          6           0       10.165217    1.284246    1.132552
     29          6           0        9.965201   -0.132983    1.672632
     30          6           0        8.624095   -0.612810    1.165800
     31          6           0       11.369176    1.393390    0.205804
     32          6           0       10.063667   -0.279215    3.219917
     33          6           0        9.029850    0.582397    3.991106
     34          7           0        5.937339   -1.525187    0.415322
     35          6           0        6.938174   -2.400657    0.827894
     36          6           0        6.492181   -3.699619    0.978989
     37          6           0        5.107607   -3.606056    0.631845
     38          6           0        4.875820   -2.320696    0.290936
     39          6           0        7.294532   -4.956745    1.240893
     40          6           0        3.930756   -4.360117    0.457355
     41          8           0        3.679522   -5.490929    0.681442
     42          6           0        2.838097   -3.341583    0.005604
     43          6           0        2.345944   -3.805279   -1.337333
     44          8           0        3.051886   -3.948770   -2.290377
     45          8           0        0.944494   -4.160831   -1.339046
     46          6           0        0.400632   -4.409075   -2.600258
     47          6           0       -3.502034   -2.986976    0.648710
     48          6           0       -5.015230   -2.611189    0.591780
     49          6           0       -6.112525   -3.372239    0.490774
     50          6           0       -6.125268   -4.969712    0.443049
     51          6           0       -7.465128   -2.749949    0.275602
     52          6           0       -7.708135   -2.051781   -0.943593
     53          6           0       -8.010643   -0.522805   -0.761275
     54          6           0       -9.163782    0.046843   -1.532599
     55          6           0       -8.761063    1.495210   -2.128537
     56          6           0      -10.504264    0.173953   -0.716943
     57          6           0      -11.844823   -0.287822   -1.407926
     58          6           0      -12.977512    0.768469   -1.336892
     59          6           0      -13.954599    0.447634   -0.284125
     60          6           0      -15.401066    0.182219   -0.787015
     61          6           0      -14.140288    1.480844    0.892707
     62          6           0      -12.990217    1.411867    1.877319
     63          6           0      -12.105341    2.668221    1.796707
     64          6           0      -12.557284    3.751880    2.790219
     65          6           0      -11.479437    4.100033    3.832628
     66          6           0      -13.071199    5.033268    2.156640
     67          1           0        2.824001    3.219694   -1.600717
     68          1           0        9.078100    3.667368    0.059558
     69          1           0        8.930994   -2.635232    1.656346
     70          1           0        1.414048   -1.282786   -1.528953
     71          1           0        0.925284    1.548370   -0.928808
     72          1           0        0.796170    0.111165   -3.120019
     73          1           0        2.306761    1.082255   -3.426600
     74          1           0        0.833198    1.892875   -3.143539
     75          1           0        0.795138   -0.334769    1.210252
     76          1           0        0.560741   -1.841046    0.350360
     77          1           0       -0.882192    0.083081   -1.181120
     78          1           0       -1.427859    0.222414    0.399909
     79          1           0        4.541286    6.562676   -1.180348
     80          1           0        3.454775    5.301129   -1.855244
     81          1           0        4.726614    5.964188   -2.752598
     82          1           0        6.830007    6.816864   -2.731731
     83          1           0        8.061702    7.693600   -1.801948
     84          1           0        6.469926    7.542802   -1.087447
     85          1           0       10.220743    2.072927    1.882870
     86          1           0       10.733012   -0.707642    1.155427
     87          1           0       11.214005    0.803210   -0.697122
     88          1           0       12.260588    1.069227    0.741510
     89          1           0       11.452815    2.443908   -0.073547
     90          1           0       11.052538    0.148922    3.387591
     91          1           0        9.926324   -1.298804    3.578219
     92          1           0        9.479085    1.015779    4.883710
     93          1           0        8.266804   -0.127157    4.310576
     94          1           0        8.592792    1.332442    3.331399
     95          1           0        7.855412   -4.895568    2.174643
     96          1           0        7.935966   -5.233440    0.404281
     97          1           0        6.544012   -5.732751    1.393170
     98          1           0        2.056980   -3.440362    0.760055
     99          1           0        0.729875   -5.414508   -2.862480
    100          1           0        0.590474   -3.594210   -3.299072
    101          1           0       -0.670919   -4.594231   -2.521391
    102          1           0       -3.403974   -3.475457    1.617768
    103          1           0       -3.271818   -3.812760   -0.025115
    104          1           0       -5.270696   -1.555670    0.500481
    105          1           0       -6.314120   -5.306614   -0.576245
    106          1           0       -6.830139   -5.340063    1.187227
    107          1           0       -5.075204   -5.194809    0.628554
    108          1           0       -7.779483   -2.228987    1.180418
    109          1           0       -8.156823   -3.592209    0.247365
    110          1           0       -8.537675   -2.511377   -1.481993
    111          1           0       -6.853475   -2.263519   -1.585121
    112          1           0       -7.172744    0.160667   -0.902956
    113          1           0       -8.355622   -0.344116    0.256615
    114          1           0       -9.423513   -0.616131   -2.358085
    115          1           0       -9.511555    2.285775   -2.111382
    116          1           0       -8.625911    1.323488   -3.196510
    117          1           0       -7.839486    1.929888   -1.743111
    118          1           0      -10.668459    1.173155   -0.313208
    119          1           0      -10.468448   -0.466301    0.164521
    120          1           0      -12.154520   -1.229097   -0.953467
    121          1           0      -11.696714   -0.500963   -2.466541
    122          1           0      -13.337295    0.955776   -2.349038
    123          1           0      -12.558208    1.736089   -1.064856
    124          1           0      -13.598904   -0.459671    0.203517
    125          1           0      -15.670015    0.642346   -1.737714
    126          1           0      -16.076033    0.541607   -0.009862
    127          1           0      -15.559275   -0.872633   -1.011618
    128          1           0      -15.110871    1.570653    1.380778
    129          1           0      -14.075254    2.416491    0.337167
    130          1           0      -12.360708    0.548127    1.661925
    131          1           0      -13.413674    1.196390    2.858760
    132          1           0      -12.001251    3.198656    0.850129
    133          1           0      -11.089627    2.346921    2.028200
    134          1           0      -13.364451    3.383701    3.423849
    135          1           0      -10.457319    4.053837    3.456825
    136          1           0      -11.500477    3.345412    4.620030
    137          1           0      -11.673989    5.084792    4.257430
    138          1           0      -12.350867    5.608070    1.576360
    139          1           0      -13.422842    5.773467    2.875073
    140          1           0      -13.952947    4.654116    1.639546
 ---------------------------------------------------------------------

 SCF Done:  E(RwB97XD) =  -3007.87489387     A.U. after   17 cycles

 Excitation energies and oscillator strengths:

 Excited State   1:      Singlet-A      1.8515 eV  669.64 nm  f=0.3605  <S**2>=0.000
     245 -> 248        0.15295
     246 -> 247        0.68778
 This state for optimization and/or second-order correction.
 Total Energy, E(TD-HF/TD-DFT) =  -3007.80685197
 Copying the excited state density for this state as the 1-particle RhoCI density.

 Excited State   2:      Singlet-A      2.2534 eV  550.22 nm  f=0.1475  <S**2>=0.000
     245 -> 247        0.64973
     246 -> 248       -0.25435

 Excited State   3:      Singlet-A      3.4944 eV  354.81 nm  f=0.0277  <S**2>=0.000
     240 -> 247       -0.12421
     241 -> 247        0.21313
     244 -> 247        0.63561
     244 -> 249        0.10651

 Excited State   4:      Singlet-A      3.6711 eV  337.73 nm  f=0.2587  <S**2>=0.000
     240 -> 247        0.34110
     241 -> 247       -0.24840
     244 -> 247        0.21352
     245 -> 247        0.13423
     246 -> 248        0.47265

 Excited State   5:      Singlet-A      3.7256 eV  332.79 nm  f=0.0099  <S**2>=0.000
     239 -> 247        0.53502
     239 -> 248       -0.12444
     239 -> 249       -0.39257

 The electronic state is 1-A.
 Alpha  occ. eigenvalues --  -46.93876 -19.30601 -19.27775 -19.25751 -19.24997
 Alpha  occ. eigenvalues --  -19.24653 -19.22300 -14.47586 -14.46565 -14.45086
 Alpha  occ. eigenvalues --  -14.42650 -10.43809 -10.42453 -10.40848 -10.36788
 Alpha  occ. eigenvalues --  -10.36615 -10.36419 -10.36133 -10.36118 -10.35754
 Alpha  occ. eigenvalues --  -10.34465 -10.34333 -10.33588 -10.33136 -10.32908
 Alpha  occ. eigenvalues --  -10.32420 -10.32229 -10.31929 -10.31880 -10.31760
 Alpha  occ. eigenvalues --  -10.31728 -10.31518 -10.31176 -10.31166 -10.31094
 Alpha  occ. eigenvalues --  -10.30804 -10.30738 -10.30656 -10.30641 -10.30624
 Alpha  occ. eigenvalues --  -10.30396 -10.30166 -10.30150 -10.30078 -10.30044
 Alpha  occ. eigenvalues --  -10.30003 -10.29734 -10.29590 -10.29002 -10.28941
 Alpha  occ. eigenvalues --  -10.28888 -10.28800 -10.28751 -10.28714 -10.28621
 Alpha  occ. eigenvalues --  -10.28582 -10.28570 -10.28532 -10.28527 -10.28239
 Alpha  occ. eigenvalues --  -10.28179 -10.28104 -10.28005 -10.27657 -10.27616
 Alpha  occ. eigenvalues --  -10.26603  -3.20049  -1.93658  -1.93157  -1.93070
 Alpha  occ. eigenvalues --   -1.19348  -1.17173  -1.13793  -1.12977  -1.10035
 Alpha  occ. eigenvalues --   -1.09818  -1.07991  -1.06025  -1.05109  -1.04358
 Alpha  occ. eigenvalues --   -0.95192  -0.93409  -0.92698  -0.92113  -0.91366
 Alpha  occ. eigenvalues --   -0.90950  -0.90308  -0.90240  -0.89402  -0.89134
 Alpha  occ. eigenvalues --   -0.88201  -0.87661  -0.86333  -0.85616  -0.85148
 Alpha  occ. eigenvalues --   -0.84997  -0.84574  -0.83654  -0.82600  -0.81976
 Alpha  occ. eigenvalues --   -0.81728  -0.81104  -0.80192  -0.78691  -0.77434
 Alpha  occ. eigenvalues --   -0.77188  -0.77134  -0.76631  -0.76560  -0.76057
 Alpha  occ. eigenvalues --   -0.75913  -0.74797  -0.74103  -0.73075  -0.71372
 Alpha  occ. eigenvalues --   -0.70830  -0.70490  -0.69528  -0.69045  -0.67879
 Alpha  occ. eigenvalues --   -0.67608  -0.67210  -0.66189  -0.65973  -0.65822
 Alpha  occ. eigenvalues --   -0.65668  -0.65358  -0.64697  -0.63183  -0.62917
 Alpha  occ. eigenvalues --   -0.62249  -0.61292  -0.60947  -0.60605  -0.60480
 Alpha  occ. eigenvalues --   -0.59858  -0.59658  -0.58644  -0.57671  -0.57286
 Alpha  occ. eigenvalues --   -0.57171  -0.57007  -0.56467  -0.56275  -0.56066
 Alpha  occ. eigenvalues --   -0.55799  -0.55390  -0.55354  -0.55031  -0.54531
 Alpha  occ. eigenvalues --   -0.54402  -0.54294  -0.54052  -0.53871  -0.53690
 Alpha  occ. eigenvalues --   -0.53445  -0.53247  -0.53170  -0.52978  -0.52954
 Alpha  occ. eigenvalues --   -0.52698  -0.52224  -0.52163  -0.52100  -0.51692
 Alpha  occ. eigenvalues --   -0.51426  -0.51259  -0.51074  -0.50911  -0.50748
 Alpha  occ. eigenvalues --   -0.50559  -0.50531  -0.50360  -0.50172  -0.49998
 Alpha  occ. eigenvalues --   -0.49730  -0.49357  -0.49080  -0.49012  -0.48603
 Alpha  occ. eigenvalues --   -0.48564  -0.48290  -0.48248  -0.48238  -0.47769
 Alpha  occ. eigenvalues --   -0.47412  -0.47219  -0.47177  -0.46989  -0.46921
 Alpha  occ. eigenvalues --   -0.46744  -0.46423  -0.46357  -0.46061  -0.46003
 Alpha  occ. eigenvalues --   -0.45763  -0.45584  -0.45444  -0.45301  -0.45227
 Alpha  occ. eigenvalues --   -0.45168  -0.44771  -0.44501  -0.44396  -0.44266
 Alpha  occ. eigenvalues --   -0.43907  -0.43789  -0.43600  -0.43206  -0.43163
 Alpha  occ. eigenvalues --   -0.43097  -0.42804  -0.42573  -0.42070  -0.41959
 Alpha  occ. eigenvalues --   -0.41552  -0.41212  -0.40961  -0.40669  -0.40435
 Alpha  occ. eigenvalues --   -0.40189  -0.40050  -0.39681  -0.39257  -0.39209
 Alpha  occ. eigenvalues --   -0.39023  -0.38943  -0.38774  -0.38621  -0.37946
 Alpha  occ. eigenvalues --   -0.37021  -0.36775  -0.36704  -0.36492  -0.36392
 Alpha  occ. eigenvalues --   -0.35944  -0.35470  -0.34875  -0.34706  -0.34509
 Alpha  occ. eigenvalues --   -0.33139  -0.31969  -0.31460  -0.30941  -0.26383
 Alpha  occ. eigenvalues --   -0.23725
 Alpha virt. eigenvalues --   -0.07137   0.00500   0.01966   0.05176   0.06708
 Alpha virt. eigenvalues --    0.07028   0.07636   0.07901   0.08418   0.08839
 Alpha virt. eigenvalues --    0.10050   0.11652   0.11829   0.12552   0.12627

 Mulliken charges:
               1
     1  Mg   0.994317
     2  C   -0.049336
     3  C   -0.133396
     4  C   -0.074922
     5  C   -0.094836
     6  N   -0.399632
     7  C    0.014141
     8  C   -0.083533
     9  C   -0.109938
    10  C    0.071602
    11  C    0.022208
    12  C    0.000946
    13  C    0.046814
    14  C    0.201068
    15  O   -0.257428
    16  O   -0.347907
    17  N   -0.455489
    18  C    0.229979
    19  C   -0.152970
    20  C   -0.076176
    21  C    0.114259
    22  C    0.074594
    23  C    0.073088
    24  O   -0.224660
    25  C   -0.015704
    26  N   -0.378777
    27  C    0.082919
    28  C   -0.123407
    29  C   -0.055030
    30  C    0.086093
    31  C    0.035267
    32  C   -0.005736
    33  C   -0.065168
    34  N   -0.425178
    35  C    0.118493
    36  C   -0.201385
    37  C   -0.030123
    38  C    0.182191
    39  C    0.076966
    40  C    0.052514
    41  O   -0.168314
    42  C   -0.086534
    43  C    0.258876
    44  O   -0.206397
    45  O   -0.387661
    46  C    0.156123
    47  C    0.250415
    48  C   -0.125607
    49  C   -0.270367
    50  C    0.031163
    51  C    0.052824
    52  C    0.009552
    53  C    0.042394
    54  C   -0.184354
    55  C   -0.022787
    56  C   -0.010163
    57  C   -0.055492
    58  C    0.045478
    59  C   -0.193132
    60  C    0.017529
    61  C   -0.019781
    62  C   -0.011542
    63  C   -0.001872
    64  C   -0.188399
    65  C   -0.012378
    66  C   -0.011251
    67  H   -0.000323
    68  H    0.024488
    69  H    0.003148
    70  H    0.043326
    71  H    0.031537
    72  H    0.055154
    73  H    0.045971
    74  H    0.032697
    75  H    0.037190
    76  H    0.057543
    77  H    0.039622
    78  H    0.051639
    79  H    0.050513
    80  H    0.032096
    81  H    0.039391
    82  H    0.060768
    83  H    0.055654
    84  H    0.063202
    85  H    0.040917
    86  H    0.023517
    87  H    0.043022
    88  H    0.047446
    89  H    0.044644
    90  H    0.028026
    91  H    0.039278
    92  H    0.043201
    93  H    0.040490
    94  H    0.044075
    95  H    0.032578
    96  H    0.057079
    97  H    0.051374
    98  H    0.074561
    99  H    0.031312
   100  H    0.038085
   101  H    0.046426
   102  H    0.048069
   103  H    0.065112
   104  H    0.018738
   105  H    0.051207
   106  H    0.059095
   107  H    0.019785
   108  H    0.036534
   109  H   -0.004144
   110  H    0.017723
   111  H    0.026457
   112  H    0.018118
   113  H    0.005135
   114  H    0.021756
   115  H    0.026274
   116  H    0.027589
   117  H    0.031261
   118  H    0.016979
   119  H    0.016203
   120  H    0.026386
   121  H    0.017117
   122  H    0.020308
   123  H    0.001160
   124  H    0.020445
   125  H    0.020486
   126  H    0.021181
   127  H    0.021563
   128  H    0.022249
   129  H    0.011998
   130  H    0.009252
   131  H    0.027636
   132  H    0.024100
   133  H    0.015732
   134  H    0.016636
   135  H    0.022417
   136  H    0.021288
   137  H    0.021395
   138  H    0.032490
   139  H    0.020639
   140  H    0.028937
 Sum of Mulliken charges =  -0.00000

 Dipole moment (field-independent basis, Debye):
    X=             -2.1886    Y=              7.3572    Z=              0.0650  Tot=              7.6761
 Quadrupole moment (field-independent basis, Debye-Ang):
   XX=           -382.5575   YY=           -415.7456   ZZ=           -399.7945
   XY=             22.4299   XZ=              8.1214   YZ=            -14.4451

 Normal termination of Gaussian 16 at Tue May  3 21:58:26 2022.
