 Gaussian 16, Revision A.03,
 Gaussian 16:  ES64L-G16RevA.03 25-Dec-2016

 --------------------
 #p ZINDO=(nstates=5)
 --------------------

 -----------------------------
 step_101_chromophore_16 ZINDO
 -----------------------------
 Symbolic Z-matrix:
 Charge =  0 Multiplicity = 1

                         Standard orientation:
 ---------------------------------------------------------------------
 Center     Atomic      Atomic             Coordinates (Angstroms)
 Number     Number       Type             X           Y           Z
 ---------------------------------------------------------------------
      1         12           0        5.870595    0.519762    0.059234
      2          6           0        3.558443   -2.045584    0.013984
      3          6           0        3.658138    2.614342   -1.238907
      4          6           0        8.326072    2.878328    0.118944
      5          6           0        8.240176   -1.919575    1.206573
      6          7           0        3.802514    0.357640   -0.266649
      7          6           0        2.977038   -0.797708   -0.199614
      8          6           0        1.596109   -0.533613   -0.758859
      9          6           0        1.680741    0.890891   -1.359490
     10          6           0        3.099857    1.354304   -0.827400
     11          6           0        1.379908    0.994006   -2.859308
     12          6           0        0.541309   -0.757026    0.238461
     13          6           0       -0.895271   -0.476101   -0.244904
     14          6           0       -1.732403   -1.737330   -0.425495
     15          8           0       -1.703061   -2.586492   -1.308814
     16          8           0       -2.605576   -1.864594    0.615744
     17          7           0        5.938163    2.468910   -0.510693
     18          6           0        4.928688    3.148636   -1.008381
     19          6           0        5.366065    4.506179   -1.267295
     20          6           0        6.699599    4.653180   -0.876635
     21          6           0        7.049622    3.270573   -0.422764
     22          6           0        4.487389    5.630350   -1.743750
     23          6           0        7.694655    5.828894   -1.061283
     24          8           0        8.862090    5.877204   -0.682755
     25          6           0        7.193632    7.038360   -1.727771
     26          7           0        7.938310    0.520795    0.612353
     27          6           0        8.750608    1.579331    0.525326
     28          6           0       10.165217    1.284246    1.132552
     29          6           0        9.965201   -0.132983    1.672632
     30          6           0        8.624095   -0.612810    1.165800
     31          6           0       11.369176    1.393390    0.205804
     32          6           0       10.063667   -0.279215    3.219917
     33          6           0        9.029850    0.582397    3.991106
     34          7           0        5.937339   -1.525187    0.415322
     35          6           0        6.938174   -2.400657    0.827894
     36          6           0        6.492181   -3.699619    0.978989
     37          6           0        5.107607   -3.606056    0.631845
     38          6           0        4.875820   -2.320696    0.290936
     39          6           0        7.294532   -4.956745    1.240893
     40          6           0        3.930756   -4.360117    0.457355
     41          8           0        3.679522   -5.490929    0.681442
     42          6           0        2.838097   -3.341583    0.005604
     43          6           0        2.345944   -3.805279   -1.337333
     44          8           0        3.051886   -3.948770   -2.290377
     45          8           0        0.944494   -4.160831   -1.339046
     46          6           0        0.400632   -4.409075   -2.600258
     47          6           0       -3.502034   -2.986976    0.648710
     48          6           0       -5.015230   -2.611189    0.591780
     49          6           0       -6.112525   -3.372239    0.490774
     50          6           0       -6.125268   -4.969712    0.443049
     51          6           0       -7.465128   -2.749949    0.275602
     52          6           0       -7.708135   -2.051781   -0.943593
     53          6           0       -8.010643   -0.522805   -0.761275
     54          6           0       -9.163782    0.046843   -1.532599
     55          6           0       -8.761063    1.495210   -2.128537
     56          6           0      -10.504264    0.173953   -0.716943
     57          6           0      -11.844823   -0.287822   -1.407926
     58          6           0      -12.977512    0.768469   -1.336892
     59          6           0      -13.954599    0.447634   -0.284125
     60          6           0      -15.401066    0.182219   -0.787015
     61          6           0      -14.140288    1.480844    0.892707
     62          6           0      -12.990217    1.411867    1.877319
     63          6           0      -12.105341    2.668221    1.796707
     64          6           0      -12.557284    3.751880    2.790219
     65          6           0      -11.479437    4.100033    3.832628
     66          6           0      -13.071199    5.033268    2.156640
     67          1           0        2.824001    3.219694   -1.600717
     68          1           0        9.078100    3.667368    0.059558
     69          1           0        8.930994   -2.635232    1.656346
     70          1           0        1.414048   -1.282786   -1.528953
     71          1           0        0.925284    1.548370   -0.928808
     72          1           0        0.796170    0.111165   -3.120019
     73          1           0        2.306761    1.082255   -3.426600
     74          1           0        0.833198    1.892875   -3.143539
     75          1           0        0.795138   -0.334769    1.210252
     76          1           0        0.560741   -1.841046    0.350360
     77          1           0       -0.882192    0.083081   -1.181120
     78          1           0       -1.427859    0.222414    0.399909
     79          1           0        4.541286    6.562676   -1.180348
     80          1           0        3.454775    5.301129   -1.855244
     81          1           0        4.726614    5.964188   -2.752598
     82          1           0        6.830007    6.816864   -2.731731
     83          1           0        8.061702    7.693600   -1.801948
     84          1           0        6.469926    7.542802   -1.087447
     85          1           0       10.220743    2.072927    1.882870
     86          1           0       10.733012   -0.707642    1.155427
     87          1           0       11.214005    0.803210   -0.697122
     88          1           0       12.260588    1.069227    0.741510
     89          1           0       11.452815    2.443908   -0.073547
     90          1           0       11.052538    0.148922    3.387591
     91          1           0        9.926324   -1.298804    3.578219
     92          1           0        9.479085    1.015779    4.883710
     93          1           0        8.266804   -0.127157    4.310576
     94          1           0        8.592792    1.332442    3.331399
     95          1           0        7.855412   -4.895568    2.174643
     96          1           0        7.935966   -5.233440    0.404281
     97          1           0        6.544012   -5.732751    1.393170
     98          1           0        2.056980   -3.440362    0.760055
     99          1           0        0.729875   -5.414508   -2.862480
    100          1           0        0.590474   -3.594210   -3.299072
    101          1           0       -0.670919   -4.594231   -2.521391
    102          1           0       -3.403974   -3.475457    1.617768
    103          1           0       -3.271818   -3.812760   -0.025115
    104          1           0       -5.270696   -1.555670    0.500481
    105          1           0       -6.314120   -5.306614   -0.576245
    106          1           0       -6.830139   -5.340063    1.187227
    107          1           0       -5.075204   -5.194809    0.628554
    108          1           0       -7.779483   -2.228987    1.180418
    109          1           0       -8.156823   -3.592209    0.247365
    110          1           0       -8.537675   -2.511377   -1.481993
    111          1           0       -6.853475   -2.263519   -1.585121
    112          1           0       -7.172744    0.160667   -0.902956
    113          1           0       -8.355622   -0.344116    0.256615
    114          1           0       -9.423513   -0.616131   -2.358085
    115          1           0       -9.511555    2.285775   -2.111382
    116          1           0       -8.625911    1.323488   -3.196510
    117          1           0       -7.839486    1.929888   -1.743111
    118          1           0      -10.668459    1.173155   -0.313208
    119          1           0      -10.468448   -0.466301    0.164521
    120          1           0      -12.154520   -1.229097   -0.953467
    121          1           0      -11.696714   -0.500963   -2.466541
    122          1           0      -13.337295    0.955776   -2.349038
    123          1           0      -12.558208    1.736089   -1.064856
    124          1           0      -13.598904   -0.459671    0.203517
    125          1           0      -15.670015    0.642346   -1.737714
    126          1           0      -16.076033    0.541607   -0.009862
    127          1           0      -15.559275   -0.872633   -1.011618
    128          1           0      -15.110871    1.570653    1.380778
    129          1           0      -14.075254    2.416491    0.337167
    130          1           0      -12.360708    0.548127    1.661925
    131          1           0      -13.413674    1.196390    2.858760
    132          1           0      -12.001251    3.198656    0.850129
    133          1           0      -11.089627    2.346921    2.028200
    134          1           0      -13.364451    3.383701    3.423849
    135          1           0      -10.457319    4.053837    3.456825
    136          1           0      -11.500477    3.345412    4.620030
    137          1           0      -11.673989    5.084792    4.257430
    138          1           0      -12.350867    5.608070    1.576360
    139          1           0      -13.422842    5.773467    2.875073
    140          1           0      -13.952947    4.654116    1.639546
 ---------------------------------------------------------------------

 SCF Done:  E(RZINDO/S) =  -474.816687248     A.U. after   19 cycles

 Excitation energies and oscillator strengths:

 Excited State   1:      Singlet-A      1.4630 eV  847.44 nm  f=0.4627  <S**2>=0.000
     175 ->178         0.12358
     176 ->177         0.68033
 This state for optimization and/or second-order correction.
 Total Energy, E(CIS/TDA) =  -474.762921288
 Copying the excited state density for this state as the 1-particle RhoCI density.

 Excited State   2:      Singlet-A      2.0045 eV  618.53 nm  f=0.0904  <S**2>=0.000
     175 ->177         0.56969
     176 ->178        -0.36749

 Excited State   3:      Singlet-A      2.9525 eV  419.93 nm  f=0.0024  <S**2>=0.000
     167 ->177        -0.26929
     167 ->179         0.43069
     167 ->180        -0.10521
     167 ->182         0.15356
     167 ->184         0.10687
     167 ->185        -0.13166
     168 ->177        -0.18028
     168 ->179         0.26249

 Excited State   4:      Singlet-A      3.0532 eV  406.08 nm  f=0.3166  <S**2>=0.000
     171 ->177         0.13778
     171 ->178        -0.13645
     171 ->179         0.11417
     171 ->180         0.22501
     171 ->185        -0.15159
     171 ->188        -0.13172
     171 ->190        -0.10144
     172 ->177         0.16783
     172 ->178        -0.10313
     172 ->180         0.18849
     172 ->185        -0.11001
     175 ->177         0.19212
     176 ->178         0.29617
     176 ->180        -0.12944

 Excited State   5:      Singlet-A      3.0795 eV  402.61 nm  f=0.6670  <S**2>=0.000
     171 ->177        -0.17139
     171 ->180        -0.15671
     172 ->180        -0.12474
     175 ->177         0.28211
     176 ->178         0.45060
     176 ->180        -0.11704

 The electronic state is 1-A.
 Alpha  occ. eigenvalues --   -1.86643  -1.83974  -1.80598  -1.74323  -1.72226
 Alpha  occ. eigenvalues --   -1.71306  -1.67679  -1.62051  -1.61514  -1.61117
 Alpha  occ. eigenvalues --   -1.56264  -1.52384  -1.50324  -1.49402  -1.46075
 Alpha  occ. eigenvalues --   -1.44700  -1.43908  -1.40475  -1.39065  -1.37695
 Alpha  occ. eigenvalues --   -1.37008  -1.33854  -1.32698  -1.32311  -1.30205
 Alpha  occ. eigenvalues --   -1.29278  -1.24114  -1.23224  -1.21784  -1.18613
 Alpha  occ. eigenvalues --   -1.16882  -1.15785  -1.14119  -1.13972  -1.12778
 Alpha  occ. eigenvalues --   -1.11690  -1.11512  -1.10448  -1.04929  -1.04039
 Alpha  occ. eigenvalues --   -1.02307  -1.01996  -0.99922  -0.98375  -0.98050
 Alpha  occ. eigenvalues --   -0.96226  -0.95240  -0.94661  -0.93449  -0.92455
 Alpha  occ. eigenvalues --   -0.91528  -0.90672  -0.90432  -0.88276  -0.87994
 Alpha  occ. eigenvalues --   -0.85971  -0.85055  -0.82569  -0.81562  -0.79978
 Alpha  occ. eigenvalues --   -0.79214  -0.78583  -0.77694  -0.76303  -0.75611
 Alpha  occ. eigenvalues --   -0.75548  -0.75228  -0.74556  -0.74141  -0.74069
 Alpha  occ. eigenvalues --   -0.72775  -0.72583  -0.72359  -0.71945  -0.71517
 Alpha  occ. eigenvalues --   -0.70160  -0.69360  -0.69023  -0.68711  -0.68040
 Alpha  occ. eigenvalues --   -0.67361  -0.66627  -0.66447  -0.65786  -0.65180
 Alpha  occ. eigenvalues --   -0.65004  -0.64824  -0.64399  -0.63730  -0.63070
 Alpha  occ. eigenvalues --   -0.62720  -0.62598  -0.62142  -0.62006  -0.61765
 Alpha  occ. eigenvalues --   -0.61467  -0.61320  -0.61145  -0.60823  -0.60472
 Alpha  occ. eigenvalues --   -0.59583  -0.59456  -0.58926  -0.58401  -0.58159
 Alpha  occ. eigenvalues --   -0.57925  -0.57664  -0.57270  -0.56686  -0.56344
 Alpha  occ. eigenvalues --   -0.55583  -0.55115  -0.54999  -0.54753  -0.54468
 Alpha  occ. eigenvalues --   -0.54361  -0.53575  -0.53367  -0.52949  -0.52892
 Alpha  occ. eigenvalues --   -0.52439  -0.52026  -0.51844  -0.51798  -0.51172
 Alpha  occ. eigenvalues --   -0.50894  -0.50874  -0.50540  -0.50463  -0.50039
 Alpha  occ. eigenvalues --   -0.49884  -0.49754  -0.49641  -0.49150  -0.48688
 Alpha  occ. eigenvalues --   -0.48611  -0.47760  -0.47605  -0.47521  -0.47460
 Alpha  occ. eigenvalues --   -0.46997  -0.46979  -0.46638  -0.46512  -0.45864
 Alpha  occ. eigenvalues --   -0.45786  -0.45639  -0.45372  -0.45068  -0.45058
 Alpha  occ. eigenvalues --   -0.44905  -0.44719  -0.44231  -0.44047  -0.43851
 Alpha  occ. eigenvalues --   -0.43685  -0.42670  -0.42071  -0.41808  -0.41395
 Alpha  occ. eigenvalues --   -0.41212  -0.40381  -0.40119  -0.38995  -0.38818
 Alpha  occ. eigenvalues --   -0.37624  -0.37291  -0.36593  -0.35711  -0.34769
 Alpha  occ. eigenvalues --   -0.32495  -0.32375  -0.32123  -0.30886  -0.27076
 Alpha  occ. eigenvalues --   -0.22649
 Alpha virt. eigenvalues --   -0.08384  -0.01841  -0.01034   0.01503   0.02058
 Alpha virt. eigenvalues --    0.03056   0.03669   0.03879   0.04737   0.05095
 Alpha virt. eigenvalues --    0.05403   0.06707   0.06983   0.07555   0.07912

 Mulliken charges:
               1
     1  Mg   0.420011
     2  C    0.002697
     3  C   -0.104744
     4  C   -0.093816
     5  C   -0.056698
     6  N   -0.263836
     7  C    0.038548
     8  C    0.016941
     9  C    0.003511
    10  C    0.170003
    11  C   -0.046724
    12  C   -0.013096
    13  C    0.006973
    14  C    0.474658
    15  O   -0.520504
    16  O   -0.266614
    17  N   -0.316011
    18  C    0.173540
    19  C    0.044005
    20  C   -0.040671
    21  C    0.154641
    22  C   -0.047386
    23  C    0.341028
    24  O   -0.505395
    25  C   -0.028875
    26  N   -0.281239
    27  C    0.195385
    28  C    0.007958
    29  C    0.004132
    30  C    0.069971
    31  C   -0.043783
    32  C   -0.030173
    33  C   -0.059658
    34  N   -0.333245
    35  C    0.062512
    36  C   -0.016999
    37  C   -0.064274
    38  C    0.111657
    39  C   -0.041490
    40  C    0.337647
    41  O   -0.525381
    42  C    0.050293
    43  C    0.483735
    44  O   -0.497253
    45  O   -0.284413
    46  C    0.080133
    47  C    0.109246
    48  C   -0.087024
    49  C   -0.018342
    50  C   -0.053814
    51  C   -0.008293
    52  C   -0.015981
    53  C   -0.035368
    54  C   -0.006292
    55  C   -0.068221
    56  C   -0.042730
    57  C   -0.040523
    58  C   -0.023773
    59  C   -0.003535
    60  C   -0.066272
    61  C   -0.041631
    62  C   -0.030309
    63  C   -0.026809
    64  C   -0.010025
    65  C   -0.059969
    66  C   -0.056906
    67  H    0.021221
    68  H    0.046845
    69  H    0.030222
    70  H    0.037134
    71  H    0.022236
    72  H    0.031899
    73  H    0.024793
    74  H    0.016854
    75  H    0.030926
    76  H    0.025388
    77  H    0.034698
    78  H    0.029566
    79  H    0.035921
    80  H    0.021106
    81  H    0.029321
    82  H    0.039562
    83  H    0.034941
    84  H    0.043773
    85  H    0.033233
    86  H    0.020824
    87  H    0.027223
    88  H    0.025062
    89  H    0.018837
    90  H    0.012244
    91  H    0.031847
    92  H    0.019656
    93  H    0.019724
    94  H    0.027491
    95  H    0.021192
    96  H    0.033490
    97  H    0.026157
    98  H    0.050372
    99  H    0.038085
   100  H    0.044522
   101  H    0.030118
   102  H    0.032763
   103  H    0.062551
   104  H    0.025991
   105  H    0.034549
   106  H    0.037589
   107  H    0.021365
   108  H    0.024051
   109  H    0.002348
   110  H    0.015192
   111  H    0.021887
   112  H    0.024339
   113  H    0.015898
   114  H    0.022192
   115  H    0.019259
   116  H    0.009505
   117  H    0.023982
   118  H    0.023429
   119  H    0.009757
   120  H    0.021615
   121  H    0.012943
   122  H    0.020509
   123  H    0.013317
   124  H    0.018024
   125  H    0.017321
   126  H    0.021220
   127  H    0.012250
   128  H    0.028287
   129  H    0.008029
   130  H    0.013611
   131  H    0.020976
   132  H    0.026933
   133  H    0.008707
   134  H    0.016583
   135  H    0.016533
   136  H    0.009706
   137  H    0.017328
   138  H    0.025450
   139  H    0.010898
   140  H    0.015496
 Sum of Mulliken charges =  -0.00000

 Dipole moment (field-independent basis, Debye):
    X=             -4.1206    Y=             12.7039    Z=             -0.3756  Tot=             13.3607
 N-N= 4.282733659108D+03 E-N= 0.000000000000D+00  KE=-9.240559855782D+03
 Leave Link  601 at Tue May  3 22:13:50 2022, MaxMem=  6710886400 cpu:               3.2 elap:               0.2
 (Enter /sw/apps/gaussian-16.0/g16/l9999.exe)
 1\1\GINC-BP1-COMPUTE130\SP\RZINDO CIS\STO-3G\C55H74Mg1N4O6\OF15641\03-
 May-2022\0\\#p ZINDO=(nstates=5)\\step_101_chromophore_16 ZINDO\\0,1\M
 g,0,40.739,41.505,27.41\C,0,39.773,43.713,29.884\C,0,41.805,39.34,29.6
 78\C,0,41.69,39.517,24.814\C,0,39.795,44.051,25.063\N,0,40.519,41.431,
 29.497\C,0,40.053,42.442,30.381\C,0,40.297,42.077,31.829\C,0,41.139,40
 .779,31.771\C,0,41.057,40.44,30.225\C,0,42.515,40.854,32.443\C,0,39.05
 ,42.009,32.602\C,0,39.211,41.609,34.082\C,0,38.96,42.758,35.052\O,0,39

 Normal termination of Gaussian 16 at Tue May  3 22:13:50 2022.
