 Gaussian 16, Revision A.03,
 Gaussian 16:  ES64L-G16RevA.03 25-Dec-2016

 ------------------------------
 #p blyp/Def2SVP td=(nstates=5)
 ------------------------------

 ---------------------------------------------------
 step_1501_chromophore_21 TDDFT with blyp functional
 ---------------------------------------------------
 Symbolic Z-matrix:
 Charge =  0 Multiplicity = 1

                         Standard orientation:
 ---------------------------------------------------------------------
 Center     Atomic      Atomic             Coordinates (Angstroms)
 Number     Number       Type             X           Y           Z
 ---------------------------------------------------------------------
      1         12           0        5.420542    1.162191    0.081004
      2          6           0        4.664131   -2.264846    0.119349
      3          6           0        1.989869    1.747368   -0.059132
      4          6           0        6.097377    4.419754   -0.129338
      5          6           0        8.805553    0.477264   -0.159053
      6          7           0        3.640421   -0.123617    0.242901
      7          6           0        3.529144   -1.443460    0.303119
      8          6           0        2.124058   -1.922559    0.540509
      9          6           0        1.326568   -0.651172    0.218873
     10          6           0        2.382809    0.392759    0.017877
     11          6           0        0.368281   -0.631086   -1.029249
     12          6           0        1.888001   -2.490163    1.939462
     13          6           0        1.060098   -3.833050    2.056164
     14          6           0        0.275607   -4.341268    0.849263
     15          8           0        0.712819   -5.200938    0.046900
     16          8           0       -0.932936   -3.722294    0.704662
     17          7           0        4.232803    2.858550    0.014856
     18          6           0        2.802651    2.904315   -0.087140
     19          6           0        2.441740    4.297714   -0.149606
     20          6           0        3.643908    5.124195   -0.137919
     21          6           0        4.684896    4.143441   -0.130223
     22          6           0        0.983644    4.675397   -0.287363
     23          6           0        3.808889    6.597028   -0.188001
     24          8           0        4.905780    7.147451   -0.091178
     25          6           0        2.653447    7.500637   -0.319107
     26          7           0        7.206390    2.288033   -0.094530
     27          6           0        7.260513    3.674196   -0.092587
     28          6           0        8.782526    4.179622   -0.079905
     29          6           0        9.528801    2.907747    0.181650
     30          6           0        8.518157    1.845143   -0.086931
     31          6           0        9.248496    5.017598   -1.364890
     32          6           0       10.172251    2.757080    1.629944
     33          6           0       11.748379    2.793926    1.721149
     34          7           0        6.532351   -0.492542   -0.242773
     35          6           0        7.867350   -0.656129   -0.269642
     36          6           0        8.176859   -2.075564   -0.577166
     37          6           0        6.929448   -2.764466   -0.390789
     38          6           0        6.014348   -1.737515   -0.194128
     39          6           0        9.609948   -2.648233   -0.712774
     40          6           0        6.263154   -4.036149   -0.317549
     41          8           0        6.752688   -5.170940   -0.438405
     42          6           0        4.810182   -3.814322    0.108231
     43          6           0        3.823112   -4.459296   -0.798589
     44          8           0        3.324053   -4.008640   -1.842787
     45          8           0        3.965934   -5.808313   -0.591277
     46          6           0        3.435552   -6.846722   -1.430077
     47          6           0       -1.785075   -3.964966   -0.516468
     48          6           0       -3.066103   -3.105004   -0.319140
     49          6           0       -4.272159   -3.197090   -0.954468
     50          6           0       -4.489085   -4.164398   -2.167441
     51          6           0       -5.557911   -2.472277   -0.494902
     52          6           0       -5.782920   -2.218479    0.968479
     53          6           0       -7.320872   -2.419162    1.380230
     54          6           0       -8.120031   -1.028592    1.573163
     55          6           0       -7.858875   -0.484760    3.015458
     56          6           0       -9.671552   -1.274061    1.332769
     57          6           0      -10.372011   -0.275111    0.410162
     58          6           0      -11.894301   -0.467524    0.345778
     59          6           0      -12.680053    0.877714    0.407032
     60          6           0      -12.537284    1.471705    1.833660
     61          6           0      -14.136068    0.652792    0.152270
     62          6           0      -14.624861    1.290671   -1.266965
     63          6           0      -15.145204    2.714576   -1.054651
     64          6           0      -16.698640    2.836981   -1.091960
     65          6           0      -17.305185    3.238387   -2.510215
     66          6           0      -17.322119    3.713069    0.078142
     67          1           0        0.902716    1.842407   -0.023407
     68          1           0        6.388934    5.470437   -0.193297
     69          1           0        9.882344    0.339078   -0.276705
     70          1           0        1.882472   -2.596161   -0.282384
     71          1           0        0.719062   -0.358839    1.076059
     72          1           0        0.945811   -0.128914   -1.804729
     73          1           0       -0.650802   -0.285868   -0.852335
     74          1           0        0.238483   -1.659012   -1.366698
     75          1           0        1.452046   -1.744336    2.603249
     76          1           0        2.914379   -2.662018    2.263926
     77          1           0        0.344518   -3.576235    2.837592
     78          1           0        1.716225   -4.642020    2.378042
     79          1           0        0.992060    5.481281   -1.021103
     80          1           0        0.504118    4.908690    0.663485
     81          1           0        0.498075    3.813657   -0.744005
     82          1           0        1.850891    7.297941    0.390473
     83          1           0        2.258758    7.613382   -1.329562
     84          1           0        3.107053    8.441927   -0.010026
     85          1           0        9.109585    4.803534    0.752538
     86          1           0       10.326587    2.964779   -0.558868
     87          1           0       10.277735    4.900581   -1.702723
     88          1           0        9.138807    6.082232   -1.160871
     89          1           0        8.599166    4.790030   -2.209586
     90          1           0        9.877954    1.836917    2.133697
     91          1           0        9.739977    3.505472    2.295699
     92          1           0       12.069742    1.978470    2.367763
     93          1           0       12.097239    3.752841    2.103612
     94          1           0       12.058185    2.577750    0.698579
     95          1           0        9.928968   -2.711443    0.326911
     96          1           0       10.218863   -1.897682   -1.218146
     97          1           0        9.565310   -3.602598   -1.237321
     98          1           0        4.729900   -4.270755    1.094232
     99          1           0        4.253488   -7.388962   -1.904941
    100          1           0        2.860462   -6.471732   -2.277116
    101          1           0        2.742822   -7.437746   -0.830471
    102          1           0       -2.011790   -5.027033   -0.606753
    103          1           0       -1.354088   -3.626074   -1.458543
    104          1           0       -2.926294   -2.496901    0.575227
    105          1           0       -5.210273   -4.917696   -1.852986
    106          1           0       -3.521056   -4.600703   -2.413709
    107          1           0       -4.830218   -3.518536   -2.976830
    108          1           0       -6.504475   -2.751330   -0.959340
    109          1           0       -5.243706   -1.506770   -0.892727
    110          1           0       -5.490647   -1.204646    1.242928
    111          1           0       -5.232031   -2.962695    1.543113
    112          1           0       -7.398166   -2.862743    2.373366
    113          1           0       -7.812637   -3.044985    0.634806
    114          1           0       -7.820045   -0.217577    0.909309
    115          1           0       -7.838382    0.604050    3.052157
    116          1           0       -6.904267   -0.872101    3.371856
    117          1           0       -8.639482   -0.753903    3.727888
    118          1           0      -10.217782   -1.278742    2.276428
    119          1           0       -9.742267   -2.257867    0.868953
    120          1           0       -9.936968   -0.280072   -0.589387
    121          1           0      -10.092533    0.689341    0.832880
    122          1           0      -12.265538   -1.177759    1.083746
    123          1           0      -12.057373   -1.079963   -0.542106
    124          1           0      -12.080157    1.536028   -0.222473
    125          1           0      -13.239303    0.989446    2.512171
    126          1           0      -12.720473    2.532506    1.660780
    127          1           0      -11.494725    1.512043    2.149102
    128          1           0      -14.753337    0.857676    1.026842
    129          1           0      -14.230128   -0.428197    0.053953
    130          1           0      -15.421859    0.689399   -1.704072
    131          1           0      -13.918979    1.391431   -2.091758
    132          1           0      -14.715894    3.279747   -1.881939
    133          1           0      -14.781758    3.195630   -0.146777
    134          1           0      -17.154551    1.867660   -0.889579
    135          1           0      -16.559921    2.928349   -3.243247
    136          1           0      -17.457002    4.317554   -2.520760
    137          1           0      -18.227633    2.683207   -2.677153
    138          1           0      -18.100169    3.218602    0.659683
    139          1           0      -17.678553    4.666941   -0.308200
    140          1           0      -16.591090    4.007790    0.830866
 ---------------------------------------------------------------------

 SCF Done:  E(RB-LYP) =  -3007.36601761     A.U. after   22 cycles

 Excitation energies and oscillator strengths:

 Excited State   1:      Singlet-A      1.7693 eV  700.73 nm  f=0.2928  <S**2>=0.000
     245 -> 248        0.13258
     245 -> 249       -0.14036
     246 -> 247        0.69083
     246 <- 247       -0.15874
 This state for optimization and/or second-order correction.
 Total Energy, E(TD-HF/TD-DFT) =  -3007.30099526
 Copying the excited state density for this state as the 1-particle RhoCI density.

 Excited State   2:      Singlet-A      1.8351 eV  675.62 nm  f=0.0090  <S**2>=0.000
     244 -> 247        0.68306
     245 -> 247        0.16765

 Excited State   3:      Singlet-A      1.8966 eV  653.71 nm  f=0.0027  <S**2>=0.000
     243 -> 247        0.70086

 Excited State   4:      Singlet-A      1.9403 eV  639.00 nm  f=0.1034  <S**2>=0.000
     244 -> 247       -0.16945
     245 -> 247        0.64034
     246 -> 248       -0.15004
     246 -> 249        0.14194
     245 <- 247       -0.10242

 Excited State   5:      Singlet-A      2.2835 eV  542.95 nm  f=0.0000  <S**2>=0.000
     241 -> 247        0.70678

 The electronic state is 1-A.
 Alpha  occ. eigenvalues --  -46.26221 -18.83207 -18.80011 -18.76958 -18.75621
 Alpha  occ. eigenvalues --  -18.75302 -18.74928 -14.03168 -14.02681 -14.01069
 Alpha  occ. eigenvalues --  -14.00816 -10.04908 -10.03194  -9.99579  -9.99325
 Alpha  occ. eigenvalues --   -9.99245  -9.96259  -9.96169  -9.96136  -9.96077
 Alpha  occ. eigenvalues --   -9.96066  -9.95927  -9.95600  -9.95393  -9.94903
 Alpha  occ. eigenvalues --   -9.94338  -9.94320  -9.94195  -9.94174  -9.94169
 Alpha  occ. eigenvalues --   -9.94128  -9.93865  -9.93850  -9.93458  -9.93186
 Alpha  occ. eigenvalues --   -9.93083  -9.93079  -9.93044  -9.92920  -9.92752
 Alpha  occ. eigenvalues --   -9.92729  -9.92685  -9.92583  -9.92423  -9.92396
 Alpha  occ. eigenvalues --   -9.92329  -9.92319  -9.92311  -9.92281  -9.92159
 Alpha  occ. eigenvalues --   -9.92092  -9.92058  -9.91870  -9.91724  -9.91585
 Alpha  occ. eigenvalues --   -9.91263  -9.91230  -9.91224  -9.91196  -9.91166
 Alpha  occ. eigenvalues --   -9.91073  -9.91059  -9.90899  -9.90892  -9.90884
 Alpha  occ. eigenvalues --   -9.90710  -2.90997  -1.71431  -1.70860  -1.70725
 Alpha  occ. eigenvalues --   -0.97272  -0.95924  -0.91051  -0.90106  -0.88750
 Alpha  occ. eigenvalues --   -0.87807  -0.87251  -0.86456  -0.84937  -0.83675
 Alpha  occ. eigenvalues --   -0.75044  -0.73491  -0.73215  -0.73009  -0.72342
 Alpha  occ. eigenvalues --   -0.71527  -0.71320  -0.70429  -0.70332  -0.69633
 Alpha  occ. eigenvalues --   -0.69141  -0.68994  -0.68108  -0.67093  -0.66799
 Alpha  occ. eigenvalues --   -0.66293  -0.65816  -0.65152  -0.64739  -0.64321
 Alpha  occ. eigenvalues --   -0.64013  -0.62487  -0.62354  -0.61611  -0.60511
 Alpha  occ. eigenvalues --   -0.60275  -0.59824  -0.59723  -0.59415  -0.58996
 Alpha  occ. eigenvalues --   -0.58303  -0.57277  -0.56355  -0.55504  -0.54334
 Alpha  occ. eigenvalues --   -0.54242  -0.54004  -0.52801  -0.52703  -0.51246
 Alpha  occ. eigenvalues --   -0.50952  -0.50829  -0.50488  -0.50184  -0.50125
 Alpha  occ. eigenvalues --   -0.49534  -0.49155  -0.48601  -0.48081  -0.46810
 Alpha  occ. eigenvalues --   -0.46396  -0.45790  -0.45314  -0.45089  -0.44403
 Alpha  occ. eigenvalues --   -0.43848  -0.43322  -0.42656  -0.42210  -0.42001
 Alpha  occ. eigenvalues --   -0.41794  -0.41561  -0.41248  -0.41214  -0.40829
 Alpha  occ. eigenvalues --   -0.40570  -0.40477  -0.40264  -0.40066  -0.39706
 Alpha  occ. eigenvalues --   -0.39638  -0.39496  -0.39446  -0.39068  -0.38928
 Alpha  occ. eigenvalues --   -0.38779  -0.38523  -0.38358  -0.38203  -0.38145
 Alpha  occ. eigenvalues --   -0.37948  -0.37824  -0.37682  -0.37522  -0.37393
 Alpha  occ. eigenvalues --   -0.37294  -0.36964  -0.36483  -0.36436  -0.36190
 Alpha  occ. eigenvalues --   -0.35981  -0.35811  -0.35632  -0.35451  -0.35141
 Alpha  occ. eigenvalues --   -0.35068  -0.34985  -0.34883  -0.34731  -0.34598
 Alpha  occ. eigenvalues --   -0.34419  -0.34385  -0.33973  -0.33916  -0.33786
 Alpha  occ. eigenvalues --   -0.33730  -0.33603  -0.33467  -0.33045  -0.32603
 Alpha  occ. eigenvalues --   -0.32593  -0.32540  -0.32303  -0.32105  -0.31996
 Alpha  occ. eigenvalues --   -0.31642  -0.31459  -0.31333  -0.31254  -0.31056
 Alpha  occ. eigenvalues --   -0.31022  -0.30902  -0.30791  -0.30325  -0.30244
 Alpha  occ. eigenvalues --   -0.30135  -0.30107  -0.29808  -0.29662  -0.29612
 Alpha  occ. eigenvalues --   -0.29479  -0.29380  -0.29349  -0.28876  -0.28782
 Alpha  occ. eigenvalues --   -0.28519  -0.28486  -0.28415  -0.28192  -0.27777
 Alpha  occ. eigenvalues --   -0.27546  -0.27153  -0.26873  -0.26859  -0.26532
 Alpha  occ. eigenvalues --   -0.26456  -0.26360  -0.26301  -0.25856  -0.25616
 Alpha  occ. eigenvalues --   -0.25501  -0.25229  -0.24102  -0.23306  -0.23262
 Alpha  occ. eigenvalues --   -0.23164  -0.21717  -0.21572  -0.20749  -0.20511
 Alpha  occ. eigenvalues --   -0.20083  -0.20068  -0.18565  -0.18376  -0.16855
 Alpha  occ. eigenvalues --   -0.15764
 Alpha virt. eigenvalues --   -0.11691  -0.06557  -0.06212  -0.05165  -0.04124
 Alpha virt. eigenvalues --   -0.02991  -0.02380  -0.02035  -0.00679   0.00301
 Alpha virt. eigenvalues --    0.00896   0.01501   0.02407   0.02653   0.02866

 Mulliken charges:
               1
     1  Mg   0.710608
     2  C   -0.005057
     3  C   -0.083610
     4  C   -0.032531
     5  C   -0.061664
     6  N   -0.187680
     7  C   -0.128949
     8  C    0.063308
     9  C   -0.077819
    10  C    0.027543
    11  C    0.138669
    12  C    0.153788
    13  C    0.166444
    14  C    0.085665
    15  O   -0.222661
    16  O   -0.283437
    17  N   -0.326557
    18  C    0.180657
    19  C   -0.169467
    20  C    0.094151
    21  C    0.106590
    22  C    0.165746
    23  C   -0.100068
    24  O   -0.173088
    25  C    0.116918
    26  N   -0.247323
    27  C    0.017964
    28  C    0.027110
    29  C    0.066120
    30  C   -0.000486
    31  C    0.095401
    32  C    0.068025
    33  C    0.065025
    34  N   -0.250521
    35  C    0.117605
    36  C   -0.214020
    37  C    0.102399
    38  C    0.064309
    39  C    0.169345
    40  C   -0.070643
    41  O   -0.143160
    42  C    0.095388
    43  C    0.139752
    44  O   -0.208180
    45  O   -0.261385
    46  C    0.221515
    47  C    0.286536
    48  C   -0.134261
    49  C   -0.161022
    50  C    0.130681
    51  C    0.141925
    52  C    0.085850
    53  C    0.058845
    54  C   -0.072938
    55  C    0.090725
    56  C    0.087660
    57  C    0.057465
    58  C    0.103488
    59  C   -0.076278
    60  C    0.096353
    61  C    0.169287
    62  C    0.068114
    63  C    0.111832
    64  C   -0.097452
    65  C    0.097388
    66  C    0.074851
    67  H   -0.055358
    68  H   -0.050226
    69  H   -0.066466
    70  H    0.006305
    71  H   -0.027945
    72  H   -0.002196
    73  H   -0.002169
    74  H   -0.015172
    75  H   -0.020114
    76  H   -0.022186
    77  H   -0.012695
    78  H    0.004667
    79  H   -0.002349
    80  H    0.014791
    81  H   -0.010953
    82  H   -0.001573
    83  H    0.022469
    84  H   -0.012123
    85  H   -0.026240
    86  H   -0.037507
    87  H   -0.005886
    88  H    0.003394
    89  H   -0.002164
    90  H   -0.020672
    91  H   -0.024803
    92  H   -0.003087
    93  H    0.007332
    94  H   -0.007397
    95  H    0.013379
    96  H   -0.002847
    97  H    0.021029
    98  H    0.010171
    99  H    0.015880
   100  H    0.002580
   101  H    0.018165
   102  H    0.018836
   103  H    0.031774
   104  H   -0.022884
   105  H    0.014632
   106  H   -0.014041
   107  H    0.008624
   108  H   -0.027751
   109  H   -0.011979
   110  H   -0.020730
   111  H   -0.020883
   112  H   -0.025241
   113  H   -0.021908
   114  H   -0.036400
   115  H   -0.018099
   116  H   -0.013724
   117  H   -0.015818
   118  H   -0.028196
   119  H   -0.040836
   120  H   -0.032620
   121  H   -0.035519
   122  H   -0.046786
   123  H   -0.042938
   124  H   -0.038528
   125  H   -0.002967
   126  H   -0.020302
   127  H   -0.028202
   128  H   -0.030520
   129  H   -0.048068
   130  H   -0.034821
   131  H   -0.030716
   132  H   -0.046255
   133  H   -0.031256
   134  H   -0.032622
   135  H   -0.018545
   136  H   -0.005054
   137  H   -0.008075
   138  H   -0.011530
   139  H   -0.021066
   140  H   -0.027810
 Sum of Mulliken charges =  -0.00000

 Dipole moment (field-independent basis, Debye):
    X=             -3.9549    Y=              1.5994    Z=              2.1156  Tot=              4.7619
 Quadrupole moment (field-independent basis, Debye-Ang):
   XX=           -378.5489   YY=           -439.7188   ZZ=           -401.9024
   XY=             24.2437   XZ=             14.1472   YZ=             -5.1265

 Normal termination of Gaussian 16 at Thu Apr 28 08:35:29 2022.
