 Gaussian 16, Revision A.03,
 Gaussian 16:  ES64L-G16RevA.03 25-Dec-2016

 -----------------------------------
 #p cam-b3lyp/Def2SVP td=(nstates=5)
 -----------------------------------

 --------------------------------------------------------
 step_1501_chromophore_21 TDDFT with cam-b3lyp functional
 --------------------------------------------------------
 Symbolic Z-matrix:
 Charge =  0 Multiplicity = 1

                         Standard orientation:
 ---------------------------------------------------------------------
 Center     Atomic      Atomic             Coordinates (Angstroms)
 Number     Number       Type             X           Y           Z
 ---------------------------------------------------------------------
      1         12           0        5.420542    1.162191    0.081004
      2          6           0        4.664131   -2.264846    0.119349
      3          6           0        1.989869    1.747368   -0.059132
      4          6           0        6.097377    4.419754   -0.129338
      5          6           0        8.805553    0.477264   -0.159053
      6          7           0        3.640421   -0.123617    0.242901
      7          6           0        3.529144   -1.443460    0.303119
      8          6           0        2.124058   -1.922559    0.540509
      9          6           0        1.326568   -0.651172    0.218873
     10          6           0        2.382809    0.392759    0.017877
     11          6           0        0.368281   -0.631086   -1.029249
     12          6           0        1.888001   -2.490163    1.939462
     13          6           0        1.060098   -3.833050    2.056164
     14          6           0        0.275607   -4.341268    0.849263
     15          8           0        0.712819   -5.200938    0.046900
     16          8           0       -0.932936   -3.722294    0.704662
     17          7           0        4.232803    2.858550    0.014856
     18          6           0        2.802651    2.904315   -0.087140
     19          6           0        2.441740    4.297714   -0.149606
     20          6           0        3.643908    5.124195   -0.137919
     21          6           0        4.684896    4.143441   -0.130223
     22          6           0        0.983644    4.675397   -0.287363
     23          6           0        3.808889    6.597028   -0.188001
     24          8           0        4.905780    7.147451   -0.091178
     25          6           0        2.653447    7.500637   -0.319107
     26          7           0        7.206390    2.288033   -0.094530
     27          6           0        7.260513    3.674196   -0.092587
     28          6           0        8.782526    4.179622   -0.079905
     29          6           0        9.528801    2.907747    0.181650
     30          6           0        8.518157    1.845143   -0.086931
     31          6           0        9.248496    5.017598   -1.364890
     32          6           0       10.172251    2.757080    1.629944
     33          6           0       11.748379    2.793926    1.721149
     34          7           0        6.532351   -0.492542   -0.242773
     35          6           0        7.867350   -0.656129   -0.269642
     36          6           0        8.176859   -2.075564   -0.577166
     37          6           0        6.929448   -2.764466   -0.390789
     38          6           0        6.014348   -1.737515   -0.194128
     39          6           0        9.609948   -2.648233   -0.712774
     40          6           0        6.263154   -4.036149   -0.317549
     41          8           0        6.752688   -5.170940   -0.438405
     42          6           0        4.810182   -3.814322    0.108231
     43          6           0        3.823112   -4.459296   -0.798589
     44          8           0        3.324053   -4.008640   -1.842787
     45          8           0        3.965934   -5.808313   -0.591277
     46          6           0        3.435552   -6.846722   -1.430077
     47          6           0       -1.785075   -3.964966   -0.516468
     48          6           0       -3.066103   -3.105004   -0.319140
     49          6           0       -4.272159   -3.197090   -0.954468
     50          6           0       -4.489085   -4.164398   -2.167441
     51          6           0       -5.557911   -2.472277   -0.494902
     52          6           0       -5.782920   -2.218479    0.968479
     53          6           0       -7.320872   -2.419162    1.380230
     54          6           0       -8.120031   -1.028592    1.573163
     55          6           0       -7.858875   -0.484760    3.015458
     56          6           0       -9.671552   -1.274061    1.332769
     57          6           0      -10.372011   -0.275111    0.410162
     58          6           0      -11.894301   -0.467524    0.345778
     59          6           0      -12.680053    0.877714    0.407032
     60          6           0      -12.537284    1.471705    1.833660
     61          6           0      -14.136068    0.652792    0.152270
     62          6           0      -14.624861    1.290671   -1.266965
     63          6           0      -15.145204    2.714576   -1.054651
     64          6           0      -16.698640    2.836981   -1.091960
     65          6           0      -17.305185    3.238387   -2.510215
     66          6           0      -17.322119    3.713069    0.078142
     67          1           0        0.902716    1.842407   -0.023407
     68          1           0        6.388934    5.470437   -0.193297
     69          1           0        9.882344    0.339078   -0.276705
     70          1           0        1.882472   -2.596161   -0.282384
     71          1           0        0.719062   -0.358839    1.076059
     72          1           0        0.945811   -0.128914   -1.804729
     73          1           0       -0.650802   -0.285868   -0.852335
     74          1           0        0.238483   -1.659012   -1.366698
     75          1           0        1.452046   -1.744336    2.603249
     76          1           0        2.914379   -2.662018    2.263926
     77          1           0        0.344518   -3.576235    2.837592
     78          1           0        1.716225   -4.642020    2.378042
     79          1           0        0.992060    5.481281   -1.021103
     80          1           0        0.504118    4.908690    0.663485
     81          1           0        0.498075    3.813657   -0.744005
     82          1           0        1.850891    7.297941    0.390473
     83          1           0        2.258758    7.613382   -1.329562
     84          1           0        3.107053    8.441927   -0.010026
     85          1           0        9.109585    4.803534    0.752538
     86          1           0       10.326587    2.964779   -0.558868
     87          1           0       10.277735    4.900581   -1.702723
     88          1           0        9.138807    6.082232   -1.160871
     89          1           0        8.599166    4.790030   -2.209586
     90          1           0        9.877954    1.836917    2.133697
     91          1           0        9.739977    3.505472    2.295699
     92          1           0       12.069742    1.978470    2.367763
     93          1           0       12.097239    3.752841    2.103612
     94          1           0       12.058185    2.577750    0.698579
     95          1           0        9.928968   -2.711443    0.326911
     96          1           0       10.218863   -1.897682   -1.218146
     97          1           0        9.565310   -3.602598   -1.237321
     98          1           0        4.729900   -4.270755    1.094232
     99          1           0        4.253488   -7.388962   -1.904941
    100          1           0        2.860462   -6.471732   -2.277116
    101          1           0        2.742822   -7.437746   -0.830471
    102          1           0       -2.011790   -5.027033   -0.606753
    103          1           0       -1.354088   -3.626074   -1.458543
    104          1           0       -2.926294   -2.496901    0.575227
    105          1           0       -5.210273   -4.917696   -1.852986
    106          1           0       -3.521056   -4.600703   -2.413709
    107          1           0       -4.830218   -3.518536   -2.976830
    108          1           0       -6.504475   -2.751330   -0.959340
    109          1           0       -5.243706   -1.506770   -0.892727
    110          1           0       -5.490647   -1.204646    1.242928
    111          1           0       -5.232031   -2.962695    1.543113
    112          1           0       -7.398166   -2.862743    2.373366
    113          1           0       -7.812637   -3.044985    0.634806
    114          1           0       -7.820045   -0.217577    0.909309
    115          1           0       -7.838382    0.604050    3.052157
    116          1           0       -6.904267   -0.872101    3.371856
    117          1           0       -8.639482   -0.753903    3.727888
    118          1           0      -10.217782   -1.278742    2.276428
    119          1           0       -9.742267   -2.257867    0.868953
    120          1           0       -9.936968   -0.280072   -0.589387
    121          1           0      -10.092533    0.689341    0.832880
    122          1           0      -12.265538   -1.177759    1.083746
    123          1           0      -12.057373   -1.079963   -0.542106
    124          1           0      -12.080157    1.536028   -0.222473
    125          1           0      -13.239303    0.989446    2.512171
    126          1           0      -12.720473    2.532506    1.660780
    127          1           0      -11.494725    1.512043    2.149102
    128          1           0      -14.753337    0.857676    1.026842
    129          1           0      -14.230128   -0.428197    0.053953
    130          1           0      -15.421859    0.689399   -1.704072
    131          1           0      -13.918979    1.391431   -2.091758
    132          1           0      -14.715894    3.279747   -1.881939
    133          1           0      -14.781758    3.195630   -0.146777
    134          1           0      -17.154551    1.867660   -0.889579
    135          1           0      -16.559921    2.928349   -3.243247
    136          1           0      -17.457002    4.317554   -2.520760
    137          1           0      -18.227633    2.683207   -2.677153
    138          1           0      -18.100169    3.218602    0.659683
    139          1           0      -17.678553    4.666941   -0.308200
    140          1           0      -16.591090    4.007790    0.830866
 ---------------------------------------------------------------------

 SCF Done:  E(RCAM-B3LYP) =  -3007.14348142     A.U. after   17 cycles

 Excitation energies and oscillator strengths:

 Excited State   1:      Singlet-A      1.6455 eV  753.46 nm  f=0.3769  <S**2>=0.000
     245 -> 248       -0.17680
     246 -> 247        0.68650
     245 <- 248       -0.10930
 This state for optimization and/or second-order correction.
 Total Energy, E(TD-HF/TD-DFT) =  -3007.08300915
 Copying the excited state density for this state as the 1-particle RhoCI density.

 Excited State   2:      Singlet-A      2.1109 eV  587.35 nm  f=0.1837  <S**2>=0.000
     245 -> 247        0.66373
     246 -> 248        0.23085

 Excited State   3:      Singlet-A      3.2362 eV  383.12 nm  f=0.0048  <S**2>=0.000
     243 -> 247       -0.11034
     244 -> 247        0.68220

 Excited State   4:      Singlet-A      3.4184 eV  362.70 nm  f=0.0048  <S**2>=0.000
     239 -> 247        0.12845
     240 -> 247       -0.14839
     243 -> 247        0.63553
     246 -> 248       -0.10352

 Excited State   5:      Singlet-A      3.4427 eV  360.14 nm  f=0.0003  <S**2>=0.000
     239 -> 247       -0.11021
     240 -> 247        0.44041
     240 -> 249       -0.27972
     240 -> 250       -0.14633
     241 -> 247       -0.31912
     241 -> 249        0.14802
     243 -> 247        0.14901

 The electronic state is 1-A.
 Alpha  occ. eigenvalues --  -46.87640 -19.26144 -19.22878 -19.19976 -19.18813
 Alpha  occ. eigenvalues --  -19.18466 -19.18127 -14.42138 -14.41462 -14.39470
 Alpha  occ. eigenvalues --  -14.39215 -10.40309 -10.38863 -10.34927 -10.34409
 Alpha  occ. eigenvalues --  -10.33534 -10.30693 -10.30676 -10.30492 -10.30478
 Alpha  occ. eigenvalues --  -10.30471 -10.29973 -10.29783 -10.29640 -10.29298
 Alpha  occ. eigenvalues --  -10.28763 -10.28733 -10.28522 -10.28455 -10.28370
 Alpha  occ. eigenvalues --  -10.28326 -10.28168 -10.28073 -10.27283 -10.27280
 Alpha  occ. eigenvalues --  -10.27133 -10.27126 -10.26834 -10.26792 -10.26633
 Alpha  occ. eigenvalues --  -10.26623 -10.26544 -10.26541 -10.26481 -10.26291
 Alpha  occ. eigenvalues --  -10.26170 -10.26137 -10.25948 -10.25937 -10.25935
 Alpha  occ. eigenvalues --  -10.25820 -10.25780 -10.25569 -10.25427 -10.25346
 Alpha  occ. eigenvalues --  -10.25292 -10.25283 -10.25143 -10.24848 -10.24806
 Alpha  occ. eigenvalues --  -10.24792 -10.24739 -10.24568 -10.24547 -10.24506
 Alpha  occ. eigenvalues --  -10.24348  -3.16329  -1.91238  -1.90767  -1.90659
 Alpha  occ. eigenvalues --   -1.15683  -1.14455  -1.09445  -1.08441  -1.06608
 Alpha  occ. eigenvalues --   -1.05763  -1.05060  -1.04085  -1.02494  -1.01098
 Alpha  occ. eigenvalues --   -0.92242  -0.90367  -0.90043  -0.89823  -0.88974
 Alpha  occ. eigenvalues --   -0.88195  -0.87998  -0.87005  -0.86926  -0.86159
 Alpha  occ. eigenvalues --   -0.85539  -0.85443  -0.84406  -0.83275  -0.82897
 Alpha  occ. eigenvalues --   -0.82322  -0.81944  -0.81160  -0.80638  -0.80122
 Alpha  occ. eigenvalues --   -0.79770  -0.78178  -0.78050  -0.77056  -0.75893
 Alpha  occ. eigenvalues --   -0.75629  -0.75150  -0.75055  -0.74646  -0.74240
 Alpha  occ. eigenvalues --   -0.73372  -0.72282  -0.71247  -0.70278  -0.68968
 Alpha  occ. eigenvalues --   -0.68793  -0.68619  -0.67310  -0.67145  -0.65436
 Alpha  occ. eigenvalues --   -0.65166  -0.64875  -0.64430  -0.64199  -0.64148
 Alpha  occ. eigenvalues --   -0.63329  -0.63114  -0.62472  -0.61824  -0.60383
 Alpha  occ. eigenvalues --   -0.60032  -0.59295  -0.58676  -0.58585  -0.57814
 Alpha  occ. eigenvalues --   -0.57315  -0.56563  -0.55900  -0.55314  -0.55243
 Alpha  occ. eigenvalues --   -0.54621  -0.54481  -0.54421  -0.54111  -0.53509
 Alpha  occ. eigenvalues --   -0.53379  -0.53208  -0.53027  -0.52820  -0.52556
 Alpha  occ. eigenvalues --   -0.52231  -0.52224  -0.52103  -0.51829  -0.51741
 Alpha  occ. eigenvalues --   -0.51289  -0.50953  -0.50748  -0.50684  -0.50560
 Alpha  occ. eigenvalues --   -0.50466  -0.50123  -0.50002  -0.49773  -0.49680
 Alpha  occ. eigenvalues --   -0.49461  -0.49130  -0.48966  -0.48719  -0.48442
 Alpha  occ. eigenvalues --   -0.48159  -0.48127  -0.48027  -0.47812  -0.47394
 Alpha  occ. eigenvalues --   -0.47212  -0.47096  -0.46969  -0.46855  -0.46630
 Alpha  occ. eigenvalues --   -0.46409  -0.46112  -0.45894  -0.45833  -0.45517
 Alpha  occ. eigenvalues --   -0.45430  -0.45339  -0.45239  -0.44876  -0.44237
 Alpha  occ. eigenvalues --   -0.44169  -0.44105  -0.44031  -0.43832  -0.43718
 Alpha  occ. eigenvalues --   -0.43115  -0.43000  -0.42876  -0.42760  -0.42655
 Alpha  occ. eigenvalues --   -0.42601  -0.42562  -0.42213  -0.41999  -0.41595
 Alpha  occ. eigenvalues --   -0.41453  -0.41316  -0.41295  -0.40847  -0.40771
 Alpha  occ. eigenvalues --   -0.40690  -0.40468  -0.40437  -0.40038  -0.39765
 Alpha  occ. eigenvalues --   -0.39726  -0.39450  -0.39346  -0.39214  -0.38977
 Alpha  occ. eigenvalues --   -0.38615  -0.38390  -0.37931  -0.37789  -0.37607
 Alpha  occ. eigenvalues --   -0.37421  -0.37271  -0.37248  -0.37044  -0.36100
 Alpha  occ. eigenvalues --   -0.36086  -0.35756  -0.35071  -0.34689  -0.33999
 Alpha  occ. eigenvalues --   -0.33550  -0.33206  -0.32600  -0.30934  -0.30737
 Alpha  occ. eigenvalues --   -0.30580  -0.29782  -0.29733  -0.29290  -0.23446
 Alpha  occ. eigenvalues --   -0.21172
 Alpha virt. eigenvalues --   -0.09021  -0.01072   0.00140   0.01675   0.03302
 Alpha virt. eigenvalues --    0.03591   0.04513   0.05382   0.05784   0.06354
 Alpha virt. eigenvalues --    0.08202   0.08266   0.08749   0.09135   0.09329

 Mulliken charges:
               1
     1  Mg   0.844550
     2  C   -0.030907
     3  C   -0.088642
     4  C   -0.057707
     5  C   -0.070648
     6  N   -0.256883
     7  C   -0.081674
     8  C   -0.004453
     9  C   -0.124378
    10  C    0.041249
    11  C    0.082246
    12  C    0.106029
    13  C    0.094035
    14  C    0.163146
    15  O   -0.264021
    16  O   -0.349135
    17  N   -0.411612
    18  C    0.176478
    19  C   -0.169534
    20  C    0.014940
    21  C    0.138388
    22  C    0.110389
    23  C   -0.016636
    24  O   -0.215326
    25  C    0.032872
    26  N   -0.319804
    27  C    0.031123
    28  C   -0.019221
    29  C    0.006660
    30  C    0.018385
    31  C    0.040749
    32  C    0.011334
    33  C    0.006642
    34  N   -0.340045
    35  C    0.120333
    36  C   -0.200362
    37  C    0.017354
    38  C    0.101338
    39  C    0.119507
    40  C    0.031446
    41  O   -0.180397
    42  C    0.022899
    43  C    0.227065
    44  O   -0.243496
    45  O   -0.325699
    46  C    0.186121
    47  C    0.261950
    48  C   -0.157789
    49  C   -0.181031
    50  C    0.074238
    51  C    0.083757
    52  C    0.026959
    53  C    0.008062
    54  C   -0.127836
    55  C    0.034700
    56  C    0.040630
    57  C    0.004344
    58  C    0.049828
    59  C   -0.132297
    60  C    0.041783
    61  C    0.105358
    62  C    0.013472
    63  C    0.056628
    64  C   -0.157294
    65  C    0.042933
    66  C    0.019689
    67  H   -0.019459
    68  H   -0.010355
    69  H   -0.031865
    70  H    0.040317
    71  H    0.007538
    72  H    0.025774
    73  H    0.021617
    74  H    0.005407
    75  H    0.011741
    76  H    0.009583
    77  H    0.022200
    78  H    0.036134
    79  H    0.022558
    80  H    0.041148
    81  H    0.015697
    82  H    0.027422
    83  H    0.050565
    84  H    0.024282
    85  H    0.009699
    86  H   -0.001263
    87  H    0.017743
    88  H    0.026523
    89  H    0.022977
    90  H    0.010703
    91  H    0.004173
    92  H    0.020367
    93  H    0.029303
    94  H    0.013034
    95  H    0.038605
    96  H    0.020414
    97  H    0.047063
    98  H    0.051320
    99  H    0.036898
   100  H    0.028305
   101  H    0.039272
   102  H    0.046295
   103  H    0.054646
   104  H    0.010796
   105  H    0.037918
   106  H    0.008678
   107  H    0.031799
   108  H    0.002661
   109  H    0.017755
   110  H    0.005956
   111  H    0.009621
   112  H    0.004025
   113  H    0.004294
   114  H   -0.005717
   115  H    0.006008
   116  H    0.008889
   117  H    0.007942
   118  H   -0.002209
   119  H   -0.012786
   120  H   -0.004099
   121  H   -0.011042
   122  H   -0.017290
   123  H   -0.012514
   124  H   -0.006428
   125  H    0.019161
   126  H    0.003815
   127  H   -0.004420
   128  H   -0.000939
   129  H   -0.015623
   130  H   -0.006189
   131  H   -0.001839
   132  H   -0.015769
   133  H   -0.005407
   134  H   -0.001587
   135  H    0.003762
   136  H    0.016305
   137  H    0.015391
   138  H    0.012195
   139  H    0.001534
   140  H   -0.003805
 Sum of Mulliken charges =  -0.00000

 Dipole moment (field-independent basis, Debye):
    X=             -4.3677    Y=              1.8598    Z=              2.2457  Tot=              5.2516
 Quadrupole moment (field-independent basis, Debye-Ang):
   XX=           -378.8101   YY=           -436.5424   ZZ=           -401.6466
   XY=             24.9061   XZ=             14.3759   YZ=             -5.5778

 Normal termination of Gaussian 16 at Thu Apr 28 07:06:23 2022.
