 Gaussian 16, Revision A.03,
 Gaussian 16:  ES64L-G16RevA.03 25-Dec-2016

 ---------------------------------
 #p PBE1PBE/Def2SVP td=(nstates=5)
 ---------------------------------

 ------------------------------------------------------
 step_1501_chromophore_21 TDDFT with PBE1PBE functional
 ------------------------------------------------------
 Symbolic Z-matrix:
 Charge =  0 Multiplicity = 1

                         Standard orientation:
 ---------------------------------------------------------------------
 Center     Atomic      Atomic             Coordinates (Angstroms)
 Number     Number       Type             X           Y           Z
 ---------------------------------------------------------------------
      1         12           0        5.420542    1.162191    0.081004
      2          6           0        4.664131   -2.264846    0.119349
      3          6           0        1.989869    1.747368   -0.059132
      4          6           0        6.097377    4.419754   -0.129338
      5          6           0        8.805553    0.477264   -0.159053
      6          7           0        3.640421   -0.123617    0.242901
      7          6           0        3.529144   -1.443460    0.303119
      8          6           0        2.124058   -1.922559    0.540509
      9          6           0        1.326568   -0.651172    0.218873
     10          6           0        2.382809    0.392759    0.017877
     11          6           0        0.368281   -0.631086   -1.029249
     12          6           0        1.888001   -2.490163    1.939462
     13          6           0        1.060098   -3.833050    2.056164
     14          6           0        0.275607   -4.341268    0.849263
     15          8           0        0.712819   -5.200938    0.046900
     16          8           0       -0.932936   -3.722294    0.704662
     17          7           0        4.232803    2.858550    0.014856
     18          6           0        2.802651    2.904315   -0.087140
     19          6           0        2.441740    4.297714   -0.149606
     20          6           0        3.643908    5.124195   -0.137919
     21          6           0        4.684896    4.143441   -0.130223
     22          6           0        0.983644    4.675397   -0.287363
     23          6           0        3.808889    6.597028   -0.188001
     24          8           0        4.905780    7.147451   -0.091178
     25          6           0        2.653447    7.500637   -0.319107
     26          7           0        7.206390    2.288033   -0.094530
     27          6           0        7.260513    3.674196   -0.092587
     28          6           0        8.782526    4.179622   -0.079905
     29          6           0        9.528801    2.907747    0.181650
     30          6           0        8.518157    1.845143   -0.086931
     31          6           0        9.248496    5.017598   -1.364890
     32          6           0       10.172251    2.757080    1.629944
     33          6           0       11.748379    2.793926    1.721149
     34          7           0        6.532351   -0.492542   -0.242773
     35          6           0        7.867350   -0.656129   -0.269642
     36          6           0        8.176859   -2.075564   -0.577166
     37          6           0        6.929448   -2.764466   -0.390789
     38          6           0        6.014348   -1.737515   -0.194128
     39          6           0        9.609948   -2.648233   -0.712774
     40          6           0        6.263154   -4.036149   -0.317549
     41          8           0        6.752688   -5.170940   -0.438405
     42          6           0        4.810182   -3.814322    0.108231
     43          6           0        3.823112   -4.459296   -0.798589
     44          8           0        3.324053   -4.008640   -1.842787
     45          8           0        3.965934   -5.808313   -0.591277
     46          6           0        3.435552   -6.846722   -1.430077
     47          6           0       -1.785075   -3.964966   -0.516468
     48          6           0       -3.066103   -3.105004   -0.319140
     49          6           0       -4.272159   -3.197090   -0.954468
     50          6           0       -4.489085   -4.164398   -2.167441
     51          6           0       -5.557911   -2.472277   -0.494902
     52          6           0       -5.782920   -2.218479    0.968479
     53          6           0       -7.320872   -2.419162    1.380230
     54          6           0       -8.120031   -1.028592    1.573163
     55          6           0       -7.858875   -0.484760    3.015458
     56          6           0       -9.671552   -1.274061    1.332769
     57          6           0      -10.372011   -0.275111    0.410162
     58          6           0      -11.894301   -0.467524    0.345778
     59          6           0      -12.680053    0.877714    0.407032
     60          6           0      -12.537284    1.471705    1.833660
     61          6           0      -14.136068    0.652792    0.152270
     62          6           0      -14.624861    1.290671   -1.266965
     63          6           0      -15.145204    2.714576   -1.054651
     64          6           0      -16.698640    2.836981   -1.091960
     65          6           0      -17.305185    3.238387   -2.510215
     66          6           0      -17.322119    3.713069    0.078142
     67          1           0        0.902716    1.842407   -0.023407
     68          1           0        6.388934    5.470437   -0.193297
     69          1           0        9.882344    0.339078   -0.276705
     70          1           0        1.882472   -2.596161   -0.282384
     71          1           0        0.719062   -0.358839    1.076059
     72          1           0        0.945811   -0.128914   -1.804729
     73          1           0       -0.650802   -0.285868   -0.852335
     74          1           0        0.238483   -1.659012   -1.366698
     75          1           0        1.452046   -1.744336    2.603249
     76          1           0        2.914379   -2.662018    2.263926
     77          1           0        0.344518   -3.576235    2.837592
     78          1           0        1.716225   -4.642020    2.378042
     79          1           0        0.992060    5.481281   -1.021103
     80          1           0        0.504118    4.908690    0.663485
     81          1           0        0.498075    3.813657   -0.744005
     82          1           0        1.850891    7.297941    0.390473
     83          1           0        2.258758    7.613382   -1.329562
     84          1           0        3.107053    8.441927   -0.010026
     85          1           0        9.109585    4.803534    0.752538
     86          1           0       10.326587    2.964779   -0.558868
     87          1           0       10.277735    4.900581   -1.702723
     88          1           0        9.138807    6.082232   -1.160871
     89          1           0        8.599166    4.790030   -2.209586
     90          1           0        9.877954    1.836917    2.133697
     91          1           0        9.739977    3.505472    2.295699
     92          1           0       12.069742    1.978470    2.367763
     93          1           0       12.097239    3.752841    2.103612
     94          1           0       12.058185    2.577750    0.698579
     95          1           0        9.928968   -2.711443    0.326911
     96          1           0       10.218863   -1.897682   -1.218146
     97          1           0        9.565310   -3.602598   -1.237321
     98          1           0        4.729900   -4.270755    1.094232
     99          1           0        4.253488   -7.388962   -1.904941
    100          1           0        2.860462   -6.471732   -2.277116
    101          1           0        2.742822   -7.437746   -0.830471
    102          1           0       -2.011790   -5.027033   -0.606753
    103          1           0       -1.354088   -3.626074   -1.458543
    104          1           0       -2.926294   -2.496901    0.575227
    105          1           0       -5.210273   -4.917696   -1.852986
    106          1           0       -3.521056   -4.600703   -2.413709
    107          1           0       -4.830218   -3.518536   -2.976830
    108          1           0       -6.504475   -2.751330   -0.959340
    109          1           0       -5.243706   -1.506770   -0.892727
    110          1           0       -5.490647   -1.204646    1.242928
    111          1           0       -5.232031   -2.962695    1.543113
    112          1           0       -7.398166   -2.862743    2.373366
    113          1           0       -7.812637   -3.044985    0.634806
    114          1           0       -7.820045   -0.217577    0.909309
    115          1           0       -7.838382    0.604050    3.052157
    116          1           0       -6.904267   -0.872101    3.371856
    117          1           0       -8.639482   -0.753903    3.727888
    118          1           0      -10.217782   -1.278742    2.276428
    119          1           0       -9.742267   -2.257867    0.868953
    120          1           0       -9.936968   -0.280072   -0.589387
    121          1           0      -10.092533    0.689341    0.832880
    122          1           0      -12.265538   -1.177759    1.083746
    123          1           0      -12.057373   -1.079963   -0.542106
    124          1           0      -12.080157    1.536028   -0.222473
    125          1           0      -13.239303    0.989446    2.512171
    126          1           0      -12.720473    2.532506    1.660780
    127          1           0      -11.494725    1.512043    2.149102
    128          1           0      -14.753337    0.857676    1.026842
    129          1           0      -14.230128   -0.428197    0.053953
    130          1           0      -15.421859    0.689399   -1.704072
    131          1           0      -13.918979    1.391431   -2.091758
    132          1           0      -14.715894    3.279747   -1.881939
    133          1           0      -14.781758    3.195630   -0.146777
    134          1           0      -17.154551    1.867660   -0.889579
    135          1           0      -16.559921    2.928349   -3.243247
    136          1           0      -17.457002    4.317554   -2.520760
    137          1           0      -18.227633    2.683207   -2.677153
    138          1           0      -18.100169    3.218602    0.659683
    139          1           0      -17.678553    4.666941   -0.308200
    140          1           0      -16.591090    4.007790    0.830866
 ---------------------------------------------------------------------

 SCF Done:  E(RPBE1PBE) =  -3005.33242939     A.U. after   15 cycles

 Excitation energies and oscillator strengths:

 Excited State   1:      Singlet-A      1.8102 eV  684.91 nm  f=0.3630  <S**2>=0.000
     245 -> 248        0.16565
     246 -> 247        0.69477
     246 <- 247       -0.11591
 This state for optimization and/or second-order correction.
 Total Energy, E(TD-HF/TD-DFT) =  -3005.26590441
 Copying the excited state density for this state as the 1-particle RhoCI density.

 Excited State   2:      Singlet-A      2.1283 eV  582.54 nm  f=0.1631  <S**2>=0.000
     245 -> 247        0.67041
     246 -> 248       -0.20783

 Excited State   3:      Singlet-A      2.9290 eV  423.30 nm  f=0.0089  <S**2>=0.000
     240 -> 247       -0.15732
     244 -> 247        0.68000

 Excited State   4:      Singlet-A      2.9556 eV  419.49 nm  f=0.0000  <S**2>=0.000
     240 -> 247        0.57498
     240 -> 249       -0.16746
     242 -> 247       -0.31950
     244 -> 247        0.14124

 Excited State   5:      Singlet-A      3.0022 eV  412.98 nm  f=0.0001  <S**2>=0.000
     241 -> 247        0.67262
     241 -> 249        0.11241
     241 -> 250       -0.11789

 The electronic state is 1-A.
 Alpha  occ. eigenvalues --  -46.91078 -19.26809 -19.23529 -19.20239 -19.19001
 Alpha  occ. eigenvalues --  -19.18699 -19.18374 -14.41564 -14.41062 -14.39113
 Alpha  occ. eigenvalues --  -14.38945 -10.37343 -10.35805 -10.32047 -10.31512
 Alpha  occ. eigenvalues --  -10.30950 -10.28469 -10.28349 -10.28244 -10.28206
 Alpha  occ. eigenvalues --  -10.28196 -10.27658 -10.27418 -10.26990 -10.26988
 Alpha  occ. eigenvalues --  -10.26460 -10.26329 -10.26201 -10.26146 -10.26126
 Alpha  occ. eigenvalues --  -10.25918 -10.25855 -10.25774 -10.25125 -10.24923
 Alpha  occ. eigenvalues --  -10.24894 -10.24866 -10.24500 -10.24331 -10.24296
 Alpha  occ. eigenvalues --  -10.24288 -10.24216 -10.24058 -10.24032 -10.23855
 Alpha  occ. eigenvalues --  -10.23777 -10.23633 -10.23595 -10.23467 -10.23403
 Alpha  occ. eigenvalues --  -10.23385 -10.23263 -10.23247 -10.23052 -10.22994
 Alpha  occ. eigenvalues --  -10.22877 -10.22859 -10.22560 -10.22379 -10.22277
 Alpha  occ. eigenvalues --  -10.22262 -10.22181 -10.22135 -10.22089 -10.21926
 Alpha  occ. eigenvalues --  -10.21748  -3.13342  -1.86193  -1.85699  -1.85597
 Alpha  occ. eigenvalues --   -1.10467  -1.09186  -1.04174  -1.03157  -1.01434
 Alpha  occ. eigenvalues --   -1.00520  -0.99672  -0.98771  -0.97124  -0.95779
 Alpha  occ. eigenvalues --   -0.86561  -0.84494  -0.84192  -0.83983  -0.83306
 Alpha  occ. eigenvalues --   -0.82500  -0.82099  -0.81266  -0.81051  -0.80473
 Alpha  occ. eigenvalues --   -0.79830  -0.79691  -0.78609  -0.77555  -0.77130
 Alpha  occ. eigenvalues --   -0.76520  -0.76159  -0.75360  -0.74866  -0.74308
 Alpha  occ. eigenvalues --   -0.74136  -0.72463  -0.72318  -0.71369  -0.70211
 Alpha  occ. eigenvalues --   -0.69788  -0.69253  -0.69137  -0.69032  -0.68417
 Alpha  occ. eigenvalues --   -0.67682  -0.66731  -0.65569  -0.64697  -0.63442
 Alpha  occ. eigenvalues --   -0.63124  -0.62842  -0.61747  -0.61371  -0.59900
 Alpha  occ. eigenvalues --   -0.59394  -0.59316  -0.58949  -0.58679  -0.58306
 Alpha  occ. eigenvalues --   -0.57919  -0.57295  -0.56663  -0.56366  -0.54948
 Alpha  occ. eigenvalues --   -0.54487  -0.53815  -0.53252  -0.53180  -0.52462
 Alpha  occ. eigenvalues --   -0.51685  -0.51103  -0.50311  -0.49815  -0.49718
 Alpha  occ. eigenvalues --   -0.49176  -0.49033  -0.48841  -0.48527  -0.47988
 Alpha  occ. eigenvalues --   -0.47914  -0.47741  -0.47491  -0.47405  -0.47137
 Alpha  occ. eigenvalues --   -0.46755  -0.46631  -0.46543  -0.46428  -0.46275
 Alpha  occ. eigenvalues --   -0.45842  -0.45601  -0.45355  -0.45203  -0.45121
 Alpha  occ. eigenvalues --   -0.44967  -0.44654  -0.44547  -0.44350  -0.44282
 Alpha  occ. eigenvalues --   -0.44020  -0.43721  -0.43555  -0.43364  -0.43033
 Alpha  occ. eigenvalues --   -0.42794  -0.42712  -0.42618  -0.42487  -0.42030
 Alpha  occ. eigenvalues --   -0.41877  -0.41783  -0.41626  -0.41524  -0.41300
 Alpha  occ. eigenvalues --   -0.41085  -0.40752  -0.40601  -0.40551  -0.40295
 Alpha  occ. eigenvalues --   -0.40080  -0.40052  -0.39839  -0.39537  -0.39043
 Alpha  occ. eigenvalues --   -0.38905  -0.38891  -0.38722  -0.38563  -0.38464
 Alpha  occ. eigenvalues --   -0.37905  -0.37741  -0.37632  -0.37542  -0.37445
 Alpha  occ. eigenvalues --   -0.37402  -0.37350  -0.37041  -0.36733  -0.36481
 Alpha  occ. eigenvalues --   -0.36338  -0.36183  -0.36054  -0.35794  -0.35578
 Alpha  occ. eigenvalues --   -0.35533  -0.35409  -0.35242  -0.34996  -0.34644
 Alpha  occ. eigenvalues --   -0.34599  -0.34264  -0.34228  -0.34142  -0.33745
 Alpha  occ. eigenvalues --   -0.33461  -0.33208  -0.32810  -0.32755  -0.32453
 Alpha  occ. eigenvalues --   -0.32433  -0.32224  -0.32127  -0.31840  -0.31208
 Alpha  occ. eigenvalues --   -0.30935  -0.30715  -0.30269  -0.29612  -0.28738
 Alpha  occ. eigenvalues --   -0.28544  -0.28308  -0.27854  -0.26469  -0.25562
 Alpha  occ. eigenvalues --   -0.25497  -0.25378  -0.25035  -0.24969  -0.20443
 Alpha  occ. eigenvalues --   -0.18742
 Alpha virt. eigenvalues --   -0.11369  -0.04673  -0.04041  -0.02680  -0.01003
 Alpha virt. eigenvalues --   -0.00171   0.00295   0.00951   0.01846   0.03033
 Alpha virt. eigenvalues --    0.03943   0.04305   0.05472   0.05633   0.05828

 Mulliken charges:
               1
     1  Mg   1.001777
     2  C   -0.034206
     3  C   -0.078796
     4  C   -0.059733
     5  C   -0.064653
     6  N   -0.365457
     7  C   -0.015152
     8  C   -0.082003
     9  C   -0.192773
    10  C    0.070980
    11  C    0.019823
    12  C    0.058213
    13  C    0.019827
    14  C    0.225930
    15  O   -0.295302
    16  O   -0.380659
    17  N   -0.521468
    18  C    0.197319
    19  C   -0.195156
    20  C   -0.037092
    21  C    0.169139
    22  C    0.050491
    23  C    0.032749
    24  O   -0.252524
    25  C   -0.036353
    26  N   -0.417300
    27  C    0.064070
    28  C   -0.088059
    29  C   -0.069273
    30  C    0.052103
    31  C   -0.016693
    32  C   -0.043139
    33  C   -0.067688
    34  N   -0.467772
    35  C    0.137258
    36  C   -0.203523
    37  C   -0.030816
    38  C    0.147892
    39  C    0.059186
    40  C    0.125494
    41  O   -0.224500
    42  C   -0.079103
    43  C    0.310508
    44  O   -0.277711
    45  O   -0.359377
    46  C    0.136296
    47  C    0.225351
    48  C   -0.170216
    49  C   -0.226595
    50  C    0.008719
    51  C    0.025696
    52  C   -0.036950
    53  C   -0.050635
    54  C   -0.209545
    55  C   -0.023493
    56  C   -0.009776
    57  C   -0.062546
    58  C    0.002523
    59  C   -0.221643
    60  C   -0.018291
    61  C    0.047739
    62  C   -0.050471
    63  C    0.000948
    64  C   -0.244464
    65  C   -0.020434
    66  C   -0.038266
    67  H    0.010838
    68  H    0.023829
    69  H    0.000792
    70  H    0.082708
    71  H    0.044770
    72  H    0.055101
    73  H    0.048089
    74  H    0.037943
    75  H    0.041370
    76  H    0.044721
    77  H    0.054661
    78  H    0.067119
    79  H    0.052042
    80  H    0.068391
    81  H    0.043577
    82  H    0.054429
    83  H    0.075950
    84  H    0.051755
    85  H    0.047024
    86  H    0.036447
    87  H    0.044067
    88  H    0.053316
    89  H    0.050997
    90  H    0.043639
    91  H    0.036197
    92  H    0.048147
    93  H    0.056603
    94  H    0.040382
    95  H    0.067142
    96  H    0.047704
    97  H    0.074044
    98  H    0.086793
    99  H    0.058426
   100  H    0.048659
   101  H    0.060654
   102  H    0.071610
   103  H    0.078638
   104  H    0.040460
   105  H    0.065401
   106  H    0.036861
   107  H    0.059672
   108  H    0.031928
   109  H    0.053175
   110  H    0.037600
   111  H    0.042522
   112  H    0.037397
   113  H    0.035158
   114  H    0.031142
   115  H    0.033774
   116  H    0.036554
   117  H    0.034755
   118  H    0.029708
   119  H    0.020961
   120  H    0.029069
   121  H    0.022427
   122  H    0.014180
   123  H    0.021061
   124  H    0.030700
   125  H    0.045680
   126  H    0.033734
   127  H    0.023883
   128  H    0.029696
   129  H    0.018213
   130  H    0.025934
   131  H    0.029208
   132  H    0.017593
   133  H    0.027643
   134  H    0.036953
   135  H    0.031888
   136  H    0.043109
   137  H    0.042727
   138  H    0.038933
   139  H    0.028348
   140  H    0.022953
 Sum of Mulliken charges =  -0.00000

 Dipole moment (field-independent basis, Debye):
    X=             -4.2657    Y=              1.9332    Z=              2.2851  Tot=              5.2111
 Quadrupole moment (field-independent basis, Debye-Ang):
   XX=           -372.2126   YY=           -433.7364   ZZ=           -399.1933
   XY=             25.9586   XZ=             14.5825   YZ=             -5.4131

 Normal termination of Gaussian 16 at Thu Apr 28 07:34:33 2022.
