 Gaussian 16, Revision A.03,
 Gaussian 16:  ES64L-G16RevA.03 25-Dec-2016

 --------------------------------
 #p wB97XD/Def2SVP td=(nstates=5)
 --------------------------------

 -----------------------------------------------------
 step_1501_chromophore_21 TDDFT with wB97XD functional
 -----------------------------------------------------
 Symbolic Z-matrix:
 Charge =  0 Multiplicity = 1

                         Standard orientation:
 ---------------------------------------------------------------------
 Center     Atomic      Atomic             Coordinates (Angstroms)
 Number     Number       Type             X           Y           Z
 ---------------------------------------------------------------------
      1         12           0        5.420542    1.162191    0.081004
      2          6           0        4.664131   -2.264846    0.119349
      3          6           0        1.989869    1.747368   -0.059132
      4          6           0        6.097377    4.419754   -0.129338
      5          6           0        8.805553    0.477264   -0.159053
      6          7           0        3.640421   -0.123617    0.242901
      7          6           0        3.529144   -1.443460    0.303119
      8          6           0        2.124058   -1.922559    0.540509
      9          6           0        1.326568   -0.651172    0.218873
     10          6           0        2.382809    0.392759    0.017877
     11          6           0        0.368281   -0.631086   -1.029249
     12          6           0        1.888001   -2.490163    1.939462
     13          6           0        1.060098   -3.833050    2.056164
     14          6           0        0.275607   -4.341268    0.849263
     15          8           0        0.712819   -5.200938    0.046900
     16          8           0       -0.932936   -3.722294    0.704662
     17          7           0        4.232803    2.858550    0.014856
     18          6           0        2.802651    2.904315   -0.087140
     19          6           0        2.441740    4.297714   -0.149606
     20          6           0        3.643908    5.124195   -0.137919
     21          6           0        4.684896    4.143441   -0.130223
     22          6           0        0.983644    4.675397   -0.287363
     23          6           0        3.808889    6.597028   -0.188001
     24          8           0        4.905780    7.147451   -0.091178
     25          6           0        2.653447    7.500637   -0.319107
     26          7           0        7.206390    2.288033   -0.094530
     27          6           0        7.260513    3.674196   -0.092587
     28          6           0        8.782526    4.179622   -0.079905
     29          6           0        9.528801    2.907747    0.181650
     30          6           0        8.518157    1.845143   -0.086931
     31          6           0        9.248496    5.017598   -1.364890
     32          6           0       10.172251    2.757080    1.629944
     33          6           0       11.748379    2.793926    1.721149
     34          7           0        6.532351   -0.492542   -0.242773
     35          6           0        7.867350   -0.656129   -0.269642
     36          6           0        8.176859   -2.075564   -0.577166
     37          6           0        6.929448   -2.764466   -0.390789
     38          6           0        6.014348   -1.737515   -0.194128
     39          6           0        9.609948   -2.648233   -0.712774
     40          6           0        6.263154   -4.036149   -0.317549
     41          8           0        6.752688   -5.170940   -0.438405
     42          6           0        4.810182   -3.814322    0.108231
     43          6           0        3.823112   -4.459296   -0.798589
     44          8           0        3.324053   -4.008640   -1.842787
     45          8           0        3.965934   -5.808313   -0.591277
     46          6           0        3.435552   -6.846722   -1.430077
     47          6           0       -1.785075   -3.964966   -0.516468
     48          6           0       -3.066103   -3.105004   -0.319140
     49          6           0       -4.272159   -3.197090   -0.954468
     50          6           0       -4.489085   -4.164398   -2.167441
     51          6           0       -5.557911   -2.472277   -0.494902
     52          6           0       -5.782920   -2.218479    0.968479
     53          6           0       -7.320872   -2.419162    1.380230
     54          6           0       -8.120031   -1.028592    1.573163
     55          6           0       -7.858875   -0.484760    3.015458
     56          6           0       -9.671552   -1.274061    1.332769
     57          6           0      -10.372011   -0.275111    0.410162
     58          6           0      -11.894301   -0.467524    0.345778
     59          6           0      -12.680053    0.877714    0.407032
     60          6           0      -12.537284    1.471705    1.833660
     61          6           0      -14.136068    0.652792    0.152270
     62          6           0      -14.624861    1.290671   -1.266965
     63          6           0      -15.145204    2.714576   -1.054651
     64          6           0      -16.698640    2.836981   -1.091960
     65          6           0      -17.305185    3.238387   -2.510215
     66          6           0      -17.322119    3.713069    0.078142
     67          1           0        0.902716    1.842407   -0.023407
     68          1           0        6.388934    5.470437   -0.193297
     69          1           0        9.882344    0.339078   -0.276705
     70          1           0        1.882472   -2.596161   -0.282384
     71          1           0        0.719062   -0.358839    1.076059
     72          1           0        0.945811   -0.128914   -1.804729
     73          1           0       -0.650802   -0.285868   -0.852335
     74          1           0        0.238483   -1.659012   -1.366698
     75          1           0        1.452046   -1.744336    2.603249
     76          1           0        2.914379   -2.662018    2.263926
     77          1           0        0.344518   -3.576235    2.837592
     78          1           0        1.716225   -4.642020    2.378042
     79          1           0        0.992060    5.481281   -1.021103
     80          1           0        0.504118    4.908690    0.663485
     81          1           0        0.498075    3.813657   -0.744005
     82          1           0        1.850891    7.297941    0.390473
     83          1           0        2.258758    7.613382   -1.329562
     84          1           0        3.107053    8.441927   -0.010026
     85          1           0        9.109585    4.803534    0.752538
     86          1           0       10.326587    2.964779   -0.558868
     87          1           0       10.277735    4.900581   -1.702723
     88          1           0        9.138807    6.082232   -1.160871
     89          1           0        8.599166    4.790030   -2.209586
     90          1           0        9.877954    1.836917    2.133697
     91          1           0        9.739977    3.505472    2.295699
     92          1           0       12.069742    1.978470    2.367763
     93          1           0       12.097239    3.752841    2.103612
     94          1           0       12.058185    2.577750    0.698579
     95          1           0        9.928968   -2.711443    0.326911
     96          1           0       10.218863   -1.897682   -1.218146
     97          1           0        9.565310   -3.602598   -1.237321
     98          1           0        4.729900   -4.270755    1.094232
     99          1           0        4.253488   -7.388962   -1.904941
    100          1           0        2.860462   -6.471732   -2.277116
    101          1           0        2.742822   -7.437746   -0.830471
    102          1           0       -2.011790   -5.027033   -0.606753
    103          1           0       -1.354088   -3.626074   -1.458543
    104          1           0       -2.926294   -2.496901    0.575227
    105          1           0       -5.210273   -4.917696   -1.852986
    106          1           0       -3.521056   -4.600703   -2.413709
    107          1           0       -4.830218   -3.518536   -2.976830
    108          1           0       -6.504475   -2.751330   -0.959340
    109          1           0       -5.243706   -1.506770   -0.892727
    110          1           0       -5.490647   -1.204646    1.242928
    111          1           0       -5.232031   -2.962695    1.543113
    112          1           0       -7.398166   -2.862743    2.373366
    113          1           0       -7.812637   -3.044985    0.634806
    114          1           0       -7.820045   -0.217577    0.909309
    115          1           0       -7.838382    0.604050    3.052157
    116          1           0       -6.904267   -0.872101    3.371856
    117          1           0       -8.639482   -0.753903    3.727888
    118          1           0      -10.217782   -1.278742    2.276428
    119          1           0       -9.742267   -2.257867    0.868953
    120          1           0       -9.936968   -0.280072   -0.589387
    121          1           0      -10.092533    0.689341    0.832880
    122          1           0      -12.265538   -1.177759    1.083746
    123          1           0      -12.057373   -1.079963   -0.542106
    124          1           0      -12.080157    1.536028   -0.222473
    125          1           0      -13.239303    0.989446    2.512171
    126          1           0      -12.720473    2.532506    1.660780
    127          1           0      -11.494725    1.512043    2.149102
    128          1           0      -14.753337    0.857676    1.026842
    129          1           0      -14.230128   -0.428197    0.053953
    130          1           0      -15.421859    0.689399   -1.704072
    131          1           0      -13.918979    1.391431   -2.091758
    132          1           0      -14.715894    3.279747   -1.881939
    133          1           0      -14.781758    3.195630   -0.146777
    134          1           0      -17.154551    1.867660   -0.889579
    135          1           0      -16.559921    2.928349   -3.243247
    136          1           0      -17.457002    4.317554   -2.520760
    137          1           0      -18.227633    2.683207   -2.677153
    138          1           0      -18.100169    3.218602    0.659683
    139          1           0      -17.678553    4.666941   -0.308200
    140          1           0      -16.591090    4.007790    0.830866
 ---------------------------------------------------------------------

 SCF Done:  E(RwB97XD) =  -3007.83977180     A.U. after   17 cycles

 Excitation energies and oscillator strengths:

 Excited State   1:      Singlet-A      1.5844 eV  782.53 nm  f=0.3755  <S**2>=0.000
     245 -> 248       -0.18294
     246 -> 247        0.68410
     245 <- 248       -0.11915
 This state for optimization and/or second-order correction.
 Total Energy, E(TD-HF/TD-DFT) =  -3007.78154587
 Copying the excited state density for this state as the 1-particle RhoCI density.

 Excited State   2:      Singlet-A      2.0544 eV  603.49 nm  f=0.1787  <S**2>=0.000
     245 -> 247        0.66122
     246 -> 248        0.23513
     246 <- 248        0.10107

 Excited State   3:      Singlet-A      3.2586 eV  380.48 nm  f=0.0040  <S**2>=0.000
     242 -> 247       -0.11732
     244 -> 247        0.67471

 Excited State   4:      Singlet-A      3.4522 eV  359.14 nm  f=0.0011  <S**2>=0.000
     239 -> 247        0.16235
     240 -> 247       -0.14606
     240 -> 249        0.12277
     242 -> 247        0.61235
     246 -> 248       -0.13914

 Excited State   5:      Singlet-A      3.4739 eV  356.90 nm  f=0.0008  <S**2>=0.000
     240 -> 247        0.46365
     240 -> 249       -0.30876
     240 -> 250       -0.15143
     241 -> 247       -0.25573
     241 -> 249        0.12569
     242 -> 247        0.18824

 The electronic state is 1-A.
 Alpha  occ. eigenvalues --  -46.93987 -19.31367 -19.28117 -19.24910 -19.23771
 Alpha  occ. eigenvalues --  -19.23547 -19.23139 -14.46736 -14.46075 -14.44071
 Alpha  occ. eigenvalues --  -14.43834 -10.44134 -10.42727 -10.38954 -10.38341
 Alpha  occ. eigenvalues --  -10.37465 -10.34736 -10.34689 -10.34534 -10.34494
 Alpha  occ. eigenvalues --  -10.34482 -10.33991 -10.33679 -10.33495 -10.33330
 Alpha  occ. eigenvalues --  -10.32913 -10.32813 -10.32593 -10.32555 -10.32503
 Alpha  occ. eigenvalues --  -10.32281 -10.32146 -10.32113 -10.31336 -10.31313
 Alpha  occ. eigenvalues --  -10.31194 -10.31155 -10.30839 -10.30672 -10.30611
 Alpha  occ. eigenvalues --  -10.30581 -10.30559 -10.30541 -10.30456 -10.30230
 Alpha  occ. eigenvalues --  -10.30121 -10.30059 -10.29900 -10.29803 -10.29768
 Alpha  occ. eigenvalues --  -10.29756 -10.29639 -10.29534 -10.29412 -10.29352
 Alpha  occ. eigenvalues --  -10.29222 -10.29173 -10.29138 -10.28750 -10.28691
 Alpha  occ. eigenvalues --  -10.28662 -10.28606 -10.28503 -10.28451 -10.28351
 Alpha  occ. eigenvalues --  -10.28164  -3.20091  -1.93694  -1.93202  -1.93094
 Alpha  occ. eigenvalues --   -1.17859  -1.16634  -1.11632  -1.10692  -1.08792
 Alpha  occ. eigenvalues --   -1.07950  -1.07079  -1.06135  -1.04492  -1.03126
 Alpha  occ. eigenvalues --   -0.94241  -0.92176  -0.91841  -0.91642  -0.90849
 Alpha  occ. eigenvalues --   -0.90104  -0.89784  -0.88890  -0.88725  -0.88088
 Alpha  occ. eigenvalues --   -0.87484  -0.87338  -0.86270  -0.85207  -0.84767
 Alpha  occ. eigenvalues --   -0.84169  -0.83843  -0.83050  -0.82523  -0.81966
 Alpha  occ. eigenvalues --   -0.81738  -0.80115  -0.79966  -0.78956  -0.77840
 Alpha  occ. eigenvalues --   -0.77482  -0.76950  -0.76844  -0.76598  -0.76082
 Alpha  occ. eigenvalues --   -0.75298  -0.74279  -0.73179  -0.72243  -0.70983
 Alpha  occ. eigenvalues --   -0.70688  -0.70494  -0.69289  -0.69014  -0.67398
 Alpha  occ. eigenvalues --   -0.67034  -0.66803  -0.66421  -0.66136  -0.66005
 Alpha  occ. eigenvalues --   -0.65320  -0.64949  -0.64299  -0.63820  -0.62352
 Alpha  occ. eigenvalues --   -0.61975  -0.61263  -0.60659  -0.60578  -0.59819
 Alpha  occ. eigenvalues --   -0.59259  -0.58512  -0.57797  -0.57254  -0.57163
 Alpha  occ. eigenvalues --   -0.56558  -0.56437  -0.56299  -0.55996  -0.55400
 Alpha  occ. eigenvalues --   -0.55299  -0.55138  -0.54893  -0.54758  -0.54488
 Alpha  occ. eigenvalues --   -0.54139  -0.54106  -0.54022  -0.53732  -0.53627
 Alpha  occ. eigenvalues --   -0.53180  -0.52873  -0.52715  -0.52561  -0.52496
 Alpha  occ. eigenvalues --   -0.52351  -0.52050  -0.51898  -0.51639  -0.51605
 Alpha  occ. eigenvalues --   -0.51346  -0.51047  -0.50868  -0.50676  -0.50312
 Alpha  occ. eigenvalues --   -0.50113  -0.50011  -0.49923  -0.49749  -0.49323
 Alpha  occ. eigenvalues --   -0.49131  -0.48998  -0.48886  -0.48773  -0.48578
 Alpha  occ. eigenvalues --   -0.48344  -0.47983  -0.47831  -0.47754  -0.47423
 Alpha  occ. eigenvalues --   -0.47283  -0.47236  -0.47089  -0.46765  -0.46173
 Alpha  occ. eigenvalues --   -0.46083  -0.46021  -0.45935  -0.45706  -0.45624
 Alpha  occ. eigenvalues --   -0.45017  -0.44898  -0.44794  -0.44752  -0.44554
 Alpha  occ. eigenvalues --   -0.44519  -0.44466  -0.44142  -0.43881  -0.43502
 Alpha  occ. eigenvalues --   -0.43395  -0.43236  -0.43155  -0.42823  -0.42648
 Alpha  occ. eigenvalues --   -0.42595  -0.42365  -0.42308  -0.41921  -0.41632
 Alpha  occ. eigenvalues --   -0.41606  -0.41290  -0.41260  -0.41101  -0.40926
 Alpha  occ. eigenvalues --   -0.40473  -0.40257  -0.39772  -0.39710  -0.39446
 Alpha  occ. eigenvalues --   -0.39351  -0.39249  -0.39128  -0.38879  -0.38260
 Alpha  occ. eigenvalues --   -0.37938  -0.37618  -0.37075  -0.36700  -0.35889
 Alpha  occ. eigenvalues --   -0.35382  -0.35146  -0.34838  -0.33049  -0.32701
 Alpha  occ. eigenvalues --   -0.32610  -0.31951  -0.31827  -0.31459  -0.25350
 Alpha  occ. eigenvalues --   -0.22970
 Alpha virt. eigenvalues --   -0.07379   0.00861   0.02196   0.03796   0.05819
 Alpha virt. eigenvalues --    0.06215   0.06752   0.07674   0.08241   0.09226
 Alpha virt. eigenvalues --    0.10718   0.11012   0.12269   0.12431   0.12579

 Mulliken charges:
               1
     1  Mg   0.987829
     2  C   -0.042108
     3  C   -0.097290
     4  C   -0.070654
     5  C   -0.081831
     6  N   -0.329196
     7  C   -0.038273
     8  C   -0.051187
     9  C   -0.171401
    10  C    0.063755
    11  C    0.036224
    12  C    0.068112
    13  C    0.034251
    14  C    0.212535
    15  O   -0.291029
    16  O   -0.377677
    17  N   -0.492155
    18  C    0.189370
    19  C   -0.185553
    20  C   -0.032574
    21  C    0.162614
    22  C    0.063529
    23  C    0.031447
    24  O   -0.247133
    25  C   -0.030121
    26  N   -0.390109
    27  C    0.050387
    28  C   -0.065562
    29  C   -0.041828
    30  C    0.043495
    31  C   -0.005887
    32  C   -0.033248
    33  C   -0.048595
    34  N   -0.430478
    35  C    0.131529
    36  C   -0.205460
    37  C   -0.027947
    38  C    0.133420
    39  C    0.074855
    40  C    0.106271
    41  O   -0.214876
    42  C   -0.042679
    43  C    0.287626
    44  O   -0.270057
    45  O   -0.356788
    46  C    0.149738
    47  C    0.233932
    48  C   -0.176809
    49  C   -0.212188
    50  C    0.024777
    51  C    0.040840
    52  C   -0.021771
    53  C   -0.029041
    54  C   -0.185261
    55  C   -0.011910
    56  C    0.006597
    57  C   -0.042000
    58  C    0.012698
    59  C   -0.190588
    60  C   -0.004496
    61  C    0.061551
    62  C   -0.033146
    63  C    0.015936
    64  C   -0.219056
    65  C   -0.005671
    66  C   -0.024815
    67  H    0.004613
    68  H    0.017390
    69  H   -0.005215
    70  H    0.059960
    71  H    0.033587
    72  H    0.048096
    73  H    0.043754
    74  H    0.026240
    75  H    0.036279
    76  H    0.033880
    77  H    0.049779
    78  H    0.062800
    79  H    0.045061
    80  H    0.065057
    81  H    0.037698
    82  H    0.049826
    83  H    0.073317
    84  H    0.049929
    85  H    0.036633
    86  H    0.022595
    87  H    0.038838
    88  H    0.047935
    89  H    0.044699
    90  H    0.034921
    91  H    0.028231
    92  H    0.042656
    93  H    0.051093
    94  H    0.032467
    95  H    0.061346
    96  H    0.041376
    97  H    0.070969
    98  H    0.080924
    99  H    0.054842
   100  H    0.045038
   101  H    0.057787
   102  H    0.067800
   103  H    0.074383
   104  H    0.036138
   105  H    0.060093
   106  H    0.030622
   107  H    0.053934
   108  H    0.025189
   109  H    0.043333
   110  H    0.029411
   111  H    0.033629
   112  H    0.028554
   113  H    0.024592
   114  H    0.019371
   115  H    0.028479
   116  H    0.029222
   117  H    0.028488
   118  H    0.018472
   119  H    0.010545
   120  H    0.021920
   121  H    0.008131
   122  H    0.004272
   123  H    0.012579
   124  H    0.019067
   125  H    0.039509
   126  H    0.026388
   127  H    0.016368
   128  H    0.021683
   129  H    0.009584
   130  H    0.017334
   131  H    0.022683
   132  H    0.009412
   133  H    0.015505
   134  H    0.023853
   135  H    0.024542
   136  H    0.036325
   137  H    0.037727
   138  H    0.033950
   139  H    0.021314
   140  H    0.016323
 Sum of Mulliken charges =  -0.00000

 Dipole moment (field-independent basis, Debye):
    X=             -4.4135    Y=              1.8767    Z=              2.2867  Tot=              5.3132
 Quadrupole moment (field-independent basis, Debye-Ang):
   XX=           -373.4428   YY=           -432.2036   ZZ=           -398.7544
   XY=             24.7027   XZ=             14.6363   YZ=             -5.4969

 Normal termination of Gaussian 16 at Thu Apr 28 08:15:05 2022.
