 Gaussian 16, Revision A.03,
 Gaussian 16:  ES64L-G16RevA.03 25-Dec-2016

 --------------------
 #p ZINDO=(nstates=5)
 --------------------

 ------------------------------
 step_1501_chromophore_21 ZINDO
 ------------------------------
 Symbolic Z-matrix:
 Charge =  0 Multiplicity = 1

                         Standard orientation:
 ---------------------------------------------------------------------
 Center     Atomic      Atomic             Coordinates (Angstroms)
 Number     Number       Type             X           Y           Z
 ---------------------------------------------------------------------
      1         12           0        5.420542    1.162191    0.081004
      2          6           0        4.664131   -2.264846    0.119349
      3          6           0        1.989869    1.747368   -0.059132
      4          6           0        6.097377    4.419754   -0.129338
      5          6           0        8.805553    0.477264   -0.159053
      6          7           0        3.640421   -0.123617    0.242901
      7          6           0        3.529144   -1.443460    0.303119
      8          6           0        2.124058   -1.922559    0.540509
      9          6           0        1.326568   -0.651172    0.218873
     10          6           0        2.382809    0.392759    0.017877
     11          6           0        0.368281   -0.631086   -1.029249
     12          6           0        1.888001   -2.490163    1.939462
     13          6           0        1.060098   -3.833050    2.056164
     14          6           0        0.275607   -4.341268    0.849263
     15          8           0        0.712819   -5.200938    0.046900
     16          8           0       -0.932936   -3.722294    0.704662
     17          7           0        4.232803    2.858550    0.014856
     18          6           0        2.802651    2.904315   -0.087140
     19          6           0        2.441740    4.297714   -0.149606
     20          6           0        3.643908    5.124195   -0.137919
     21          6           0        4.684896    4.143441   -0.130223
     22          6           0        0.983644    4.675397   -0.287363
     23          6           0        3.808889    6.597028   -0.188001
     24          8           0        4.905780    7.147451   -0.091178
     25          6           0        2.653447    7.500637   -0.319107
     26          7           0        7.206390    2.288033   -0.094530
     27          6           0        7.260513    3.674196   -0.092587
     28          6           0        8.782526    4.179622   -0.079905
     29          6           0        9.528801    2.907747    0.181650
     30          6           0        8.518157    1.845143   -0.086931
     31          6           0        9.248496    5.017598   -1.364890
     32          6           0       10.172251    2.757080    1.629944
     33          6           0       11.748379    2.793926    1.721149
     34          7           0        6.532351   -0.492542   -0.242773
     35          6           0        7.867350   -0.656129   -0.269642
     36          6           0        8.176859   -2.075564   -0.577166
     37          6           0        6.929448   -2.764466   -0.390789
     38          6           0        6.014348   -1.737515   -0.194128
     39          6           0        9.609948   -2.648233   -0.712774
     40          6           0        6.263154   -4.036149   -0.317549
     41          8           0        6.752688   -5.170940   -0.438405
     42          6           0        4.810182   -3.814322    0.108231
     43          6           0        3.823112   -4.459296   -0.798589
     44          8           0        3.324053   -4.008640   -1.842787
     45          8           0        3.965934   -5.808313   -0.591277
     46          6           0        3.435552   -6.846722   -1.430077
     47          6           0       -1.785075   -3.964966   -0.516468
     48          6           0       -3.066103   -3.105004   -0.319140
     49          6           0       -4.272159   -3.197090   -0.954468
     50          6           0       -4.489085   -4.164398   -2.167441
     51          6           0       -5.557911   -2.472277   -0.494902
     52          6           0       -5.782920   -2.218479    0.968479
     53          6           0       -7.320872   -2.419162    1.380230
     54          6           0       -8.120031   -1.028592    1.573163
     55          6           0       -7.858875   -0.484760    3.015458
     56          6           0       -9.671552   -1.274061    1.332769
     57          6           0      -10.372011   -0.275111    0.410162
     58          6           0      -11.894301   -0.467524    0.345778
     59          6           0      -12.680053    0.877714    0.407032
     60          6           0      -12.537284    1.471705    1.833660
     61          6           0      -14.136068    0.652792    0.152270
     62          6           0      -14.624861    1.290671   -1.266965
     63          6           0      -15.145204    2.714576   -1.054651
     64          6           0      -16.698640    2.836981   -1.091960
     65          6           0      -17.305185    3.238387   -2.510215
     66          6           0      -17.322119    3.713069    0.078142
     67          1           0        0.902716    1.842407   -0.023407
     68          1           0        6.388934    5.470437   -0.193297
     69          1           0        9.882344    0.339078   -0.276705
     70          1           0        1.882472   -2.596161   -0.282384
     71          1           0        0.719062   -0.358839    1.076059
     72          1           0        0.945811   -0.128914   -1.804729
     73          1           0       -0.650802   -0.285868   -0.852335
     74          1           0        0.238483   -1.659012   -1.366698
     75          1           0        1.452046   -1.744336    2.603249
     76          1           0        2.914379   -2.662018    2.263926
     77          1           0        0.344518   -3.576235    2.837592
     78          1           0        1.716225   -4.642020    2.378042
     79          1           0        0.992060    5.481281   -1.021103
     80          1           0        0.504118    4.908690    0.663485
     81          1           0        0.498075    3.813657   -0.744005
     82          1           0        1.850891    7.297941    0.390473
     83          1           0        2.258758    7.613382   -1.329562
     84          1           0        3.107053    8.441927   -0.010026
     85          1           0        9.109585    4.803534    0.752538
     86          1           0       10.326587    2.964779   -0.558868
     87          1           0       10.277735    4.900581   -1.702723
     88          1           0        9.138807    6.082232   -1.160871
     89          1           0        8.599166    4.790030   -2.209586
     90          1           0        9.877954    1.836917    2.133697
     91          1           0        9.739977    3.505472    2.295699
     92          1           0       12.069742    1.978470    2.367763
     93          1           0       12.097239    3.752841    2.103612
     94          1           0       12.058185    2.577750    0.698579
     95          1           0        9.928968   -2.711443    0.326911
     96          1           0       10.218863   -1.897682   -1.218146
     97          1           0        9.565310   -3.602598   -1.237321
     98          1           0        4.729900   -4.270755    1.094232
     99          1           0        4.253488   -7.388962   -1.904941
    100          1           0        2.860462   -6.471732   -2.277116
    101          1           0        2.742822   -7.437746   -0.830471
    102          1           0       -2.011790   -5.027033   -0.606753
    103          1           0       -1.354088   -3.626074   -1.458543
    104          1           0       -2.926294   -2.496901    0.575227
    105          1           0       -5.210273   -4.917696   -1.852986
    106          1           0       -3.521056   -4.600703   -2.413709
    107          1           0       -4.830218   -3.518536   -2.976830
    108          1           0       -6.504475   -2.751330   -0.959340
    109          1           0       -5.243706   -1.506770   -0.892727
    110          1           0       -5.490647   -1.204646    1.242928
    111          1           0       -5.232031   -2.962695    1.543113
    112          1           0       -7.398166   -2.862743    2.373366
    113          1           0       -7.812637   -3.044985    0.634806
    114          1           0       -7.820045   -0.217577    0.909309
    115          1           0       -7.838382    0.604050    3.052157
    116          1           0       -6.904267   -0.872101    3.371856
    117          1           0       -8.639482   -0.753903    3.727888
    118          1           0      -10.217782   -1.278742    2.276428
    119          1           0       -9.742267   -2.257867    0.868953
    120          1           0       -9.936968   -0.280072   -0.589387
    121          1           0      -10.092533    0.689341    0.832880
    122          1           0      -12.265538   -1.177759    1.083746
    123          1           0      -12.057373   -1.079963   -0.542106
    124          1           0      -12.080157    1.536028   -0.222473
    125          1           0      -13.239303    0.989446    2.512171
    126          1           0      -12.720473    2.532506    1.660780
    127          1           0      -11.494725    1.512043    2.149102
    128          1           0      -14.753337    0.857676    1.026842
    129          1           0      -14.230128   -0.428197    0.053953
    130          1           0      -15.421859    0.689399   -1.704072
    131          1           0      -13.918979    1.391431   -2.091758
    132          1           0      -14.715894    3.279747   -1.881939
    133          1           0      -14.781758    3.195630   -0.146777
    134          1           0      -17.154551    1.867660   -0.889579
    135          1           0      -16.559921    2.928349   -3.243247
    136          1           0      -17.457002    4.317554   -2.520760
    137          1           0      -18.227633    2.683207   -2.677153
    138          1           0      -18.100169    3.218602    0.659683
    139          1           0      -17.678553    4.666941   -0.308200
    140          1           0      -16.591090    4.007790    0.830866
 ---------------------------------------------------------------------

 SCF Done:  E(RZINDO/S) =  -473.895761492     A.U. after   20 cycles

 Excitation energies and oscillator strengths:

 Excited State   1:      Singlet-A      1.1846 eV 1046.60 nm  f=0.6169  <S**2>=0.000
     175 ->178        -0.18300
     176 ->177         0.66287
 This state for optimization and/or second-order correction.
 Total Energy, E(CIS/TDA) =  -473.852227000
 Copying the excited state density for this state as the 1-particle RhoCI density.

 Excited State   2:      Singlet-A      1.8541 eV  668.69 nm  f=0.1414  <S**2>=0.000
     175 ->177         0.59671
     176 ->178         0.34215

 Excited State   3:      Singlet-A      2.9111 eV  425.91 nm  f=0.0005  <S**2>=0.000
     169 ->177         0.29011
     169 ->179         0.29130
     169 ->180         0.36749
     169 ->181        -0.11846
     169 ->182        -0.20223
     169 ->186        -0.19589
     169 ->187         0.19409

 Excited State   4:      Singlet-A      2.9277 eV  423.48 nm  f=0.0056  <S**2>=0.000
     168 ->177         0.35623
     168 ->178        -0.21795
     168 ->179        -0.38826
     168 ->180         0.11044
     168 ->182        -0.23076
     168 ->186         0.17572

 Excited State   5:      Singlet-A      2.9770 eV  416.48 nm  f=0.5333  <S**2>=0.000
     171 ->177         0.13327
     172 ->177        -0.14715
     175 ->177        -0.23957
     176 ->178         0.50436
     176 ->179         0.32302

 The electronic state is 1-A.
 Alpha  occ. eigenvalues --   -1.85258  -1.81276  -1.78614  -1.71944  -1.71021
 Alpha  occ. eigenvalues --   -1.68853  -1.64727  -1.59849  -1.58833  -1.57321
 Alpha  occ. eigenvalues --   -1.54150  -1.50074  -1.47834  -1.47070  -1.45539
 Alpha  occ. eigenvalues --   -1.43431  -1.41642  -1.39029  -1.38553  -1.38222
 Alpha  occ. eigenvalues --   -1.35268  -1.32369  -1.32129  -1.30865  -1.28044
 Alpha  occ. eigenvalues --   -1.27406  -1.23625  -1.21400  -1.20507  -1.18038
 Alpha  occ. eigenvalues --   -1.17479  -1.16065  -1.15231  -1.14679  -1.13297
 Alpha  occ. eigenvalues --   -1.12648  -1.10870  -1.10582  -1.04278  -1.03022
 Alpha  occ. eigenvalues --   -1.01349  -1.00563  -0.98524  -0.97041  -0.95942
 Alpha  occ. eigenvalues --   -0.95748  -0.94787  -0.94058  -0.92738  -0.92463
 Alpha  occ. eigenvalues --   -0.89965  -0.89936  -0.88119  -0.87984  -0.86639
 Alpha  occ. eigenvalues --   -0.85653  -0.85589  -0.82938  -0.81912  -0.80818
 Alpha  occ. eigenvalues --   -0.79335  -0.78451  -0.77338  -0.76371  -0.76029
 Alpha  occ. eigenvalues --   -0.75159  -0.74469  -0.73748  -0.73384  -0.73039
 Alpha  occ. eigenvalues --   -0.72180  -0.71632  -0.71571  -0.70859  -0.69915
 Alpha  occ. eigenvalues --   -0.69857  -0.68801  -0.68520  -0.67881  -0.67425
 Alpha  occ. eigenvalues --   -0.67170  -0.67046  -0.66314  -0.66017  -0.65849
 Alpha  occ. eigenvalues --   -0.65297  -0.64968  -0.64296  -0.64066  -0.63868
 Alpha  occ. eigenvalues --   -0.63309  -0.63013  -0.62923  -0.62639  -0.62175
 Alpha  occ. eigenvalues --   -0.61762  -0.61299  -0.60650  -0.60306  -0.59832
 Alpha  occ. eigenvalues --   -0.59658  -0.58883  -0.58671  -0.58385  -0.57997
 Alpha  occ. eigenvalues --   -0.57884  -0.57806  -0.57089  -0.56953  -0.56326
 Alpha  occ. eigenvalues --   -0.56074  -0.55310  -0.54707  -0.54419  -0.54296
 Alpha  occ. eigenvalues --   -0.53818  -0.53796  -0.53624  -0.53338  -0.52839
 Alpha  occ. eigenvalues --   -0.52518  -0.52331  -0.51901  -0.51885  -0.51123
 Alpha  occ. eigenvalues --   -0.50879  -0.50466  -0.49952  -0.49786  -0.49656
 Alpha  occ. eigenvalues --   -0.49611  -0.49363  -0.49080  -0.48857  -0.48711
 Alpha  occ. eigenvalues --   -0.48625  -0.48310  -0.48015  -0.47586  -0.47417
 Alpha  occ. eigenvalues --   -0.46810  -0.46618  -0.46592  -0.46521  -0.46262
 Alpha  occ. eigenvalues --   -0.46068  -0.46042  -0.45940  -0.45526  -0.45427
 Alpha  occ. eigenvalues --   -0.45140  -0.44984  -0.44924  -0.44738  -0.44020
 Alpha  occ. eigenvalues --   -0.43898  -0.43857  -0.43504  -0.43054  -0.42324
 Alpha  occ. eigenvalues --   -0.42027  -0.41184  -0.40120  -0.38909  -0.38340
 Alpha  occ. eigenvalues --   -0.37851  -0.37532  -0.35451  -0.34440  -0.34143
 Alpha  occ. eigenvalues --   -0.32785  -0.32231  -0.31979  -0.31681  -0.26153
 Alpha  occ. eigenvalues --   -0.21796
 Alpha virt. eigenvalues --   -0.09009  -0.01479  -0.00576   0.00714   0.01287
 Alpha virt. eigenvalues --    0.01944   0.02778   0.03494   0.04072   0.05145
 Alpha virt. eigenvalues --    0.06468   0.07051   0.07710   0.07838   0.08166

 Mulliken charges:
               1
     1  Mg   0.421891
     2  C   -0.073072
     3  C   -0.061279
     4  C   -0.066150
     5  C   -0.098136
     6  N   -0.267276
     7  C    0.152868
     8  C    0.009216
     9  C   -0.001842
    10  C    0.113249
    11  C   -0.058683
    12  C   -0.015370
    13  C    0.004709
    14  C    0.471436
    15  O   -0.526275
    16  O   -0.273486
    17  N   -0.339525
    18  C    0.072742
    19  C    0.006356
    20  C   -0.059881
    21  C    0.162829
    22  C   -0.048325
    23  C    0.337982
    24  O   -0.536127
    25  C   -0.034152
    26  N   -0.291329
    27  C    0.125231
    28  C    0.003277
    29  C    0.013682
    30  C    0.148465
    31  C   -0.055635
    32  C   -0.036975
    33  C   -0.061613
    34  N   -0.298475
    35  C    0.115646
    36  C    0.018591
    37  C   -0.046169
    38  C    0.115789
    39  C   -0.039699
    40  C    0.349101
    41  O   -0.525591
    42  C    0.068783
    43  C    0.482178
    44  O   -0.516596
    45  O   -0.268717
    46  C    0.081534
    47  C    0.106877
    48  C   -0.104150
    49  C   -0.008552
    50  C   -0.049259
    51  C   -0.024245
    52  C   -0.032150
    53  C   -0.045778
    54  C   -0.024041
    55  C   -0.059296
    56  C   -0.040448
    57  C   -0.036524
    58  C   -0.038237
    59  C   -0.006919
    60  C   -0.065873
    61  C   -0.027743
    62  C   -0.041063
    63  C   -0.029143
    64  C   -0.021247
    65  C   -0.059493
    66  C   -0.065134
    67  H    0.028293
    68  H    0.033907
    69  H    0.022329
    70  H    0.052782
    71  H    0.023197
    72  H    0.032343
    73  H    0.028769
    74  H    0.017408
    75  H    0.030836
    76  H    0.022505
    77  H    0.032426
    78  H    0.043506
    79  H    0.027027
    80  H    0.039277
    81  H    0.023717
    82  H    0.028972
    83  H    0.044421
    84  H    0.033327
    85  H    0.032278
    86  H    0.030342
    87  H    0.023770
    88  H    0.020912
    89  H    0.022893
    90  H    0.020089
    91  H    0.019740
    92  H    0.021981
    93  H    0.028737
    94  H    0.022885
    95  H    0.037593
    96  H    0.027983
    97  H    0.043814
    98  H    0.062597
    99  H    0.042354
   100  H    0.041166
   101  H    0.040987
   102  H    0.055491
   103  H    0.056637
   104  H    0.028703
   105  H    0.036018
   106  H    0.025737
   107  H    0.031845
   108  H    0.034349
   109  H    0.022615
   110  H    0.026254
   111  H    0.020748
   112  H    0.021409
   113  H    0.025031
   114  H    0.025419
   115  H    0.013655
   116  H    0.016874
   117  H    0.019332
   118  H    0.022287
   119  H    0.013547
   120  H    0.016861
   121  H    0.014151
   122  H    0.016672
   123  H    0.009403
   124  H    0.028110
   125  H    0.032536
   126  H    0.010472
   127  H    0.018024
   128  H    0.033445
   129  H    0.008382
   130  H    0.016174
   131  H    0.026288
   132  H    0.011156
   133  H    0.022038
   134  H    0.014221
   135  H    0.018746
   136  H    0.026055
   137  H    0.022960
   138  H    0.021329
   139  H    0.017075
   140  H    0.012034
 Sum of Mulliken charges =  -0.00000

 Dipole moment (field-independent basis, Debye):
    X=             -5.7069    Y=              2.1820    Z=              3.8169  Tot=              7.2040
 N-N= 4.246655395757D+03 E-N= 0.000000000000D+00  KE=-9.167914603631D+03
 Leave Link  601 at Thu Apr 28 08:35:37 2022, MaxMem=  6710886400 cpu:               0.7 elap:               0.0
 (Enter /sw/apps/gaussian-16.0/g16/l9999.exe)
 1\1\GINC-BP1-COMPUTE137\SP\RZINDO CIS\STO-3G\C55H74Mg1N4O6\OF15641\28-
 Apr-2022\0\\#p ZINDO=(nstates=5)\\step_1501_chromophore_21 ZINDO\\0,1\
 Mg,0,15.896,52.959,25.079\C,0,17.311,51.729,28.046\C,0,13.103,53.83,26
 .969\C,0,14.445,53.984,22.258\C,0,18.546,51.721,23.227\N,0,15.444,52.9
 55,27.234\C,0,16.135,52.482,28.262\C,0,15.525,52.799,29.599\C,0,14.11,
 53.22,29.179\C,0,14.174,53.247,27.682\C,0,12.879,52.337,29.605\C,0,16.
 294,53.848,30.401\C,0,16.521,53.572,31.942\C,0,15.727,52.467,32.634\O,

 Normal termination of Gaussian 16 at Thu Apr 28 08:35:37 2022.
