 Gaussian 16, Revision A.03,
 Gaussian 16:  ES64L-G16RevA.03 25-Dec-2016

 ------------------------------
 #p blyp/Def2SVP td=(nstates=5)
 ------------------------------

 ---------------------------------------------------
 step_1751_chromophore_14 TDDFT with blyp functional
 ---------------------------------------------------
 Symbolic Z-matrix:
 Charge =  0 Multiplicity = 1

                         Standard orientation:
 ---------------------------------------------------------------------
 Center     Atomic      Atomic             Coordinates (Angstroms)
 Number     Number       Type             X           Y           Z
 ---------------------------------------------------------------------
      1         12           0        4.329715    0.703927   -0.037617
      2          6           0        3.771120   -2.751120    0.444922
      3          6           0        3.000354    0.387413   -3.263242
      4          6           0        4.420603    3.906761   -0.386293
      5          6           0        4.904811    0.958450    3.393362
      6          7           0        3.447530   -1.041383   -1.278161
      7          6           0        3.389837   -2.359325   -0.910741
      8          6           0        2.845248   -3.305085   -2.057827
      9          6           0        2.831207   -2.368738   -3.240865
     10          6           0        3.133021   -0.925348   -2.602088
     11          6           0        3.686980   -2.627436   -4.525822
     12          6           0        1.419225   -3.976515   -1.731513
     13          6           0        0.473589   -3.372087   -0.648565
     14          6           0       -1.005313   -3.392721   -0.957690
     15          8           0       -1.557922   -4.107336   -1.789019
     16          8           0       -1.726950   -2.692664   -0.081745
     17          7           0        3.775217    1.988848   -1.659475
     18          6           0        3.255227    1.684395   -2.854869
     19          6           0        3.170529    2.865556   -3.633141
     20          6           0        3.619646    3.946103   -2.834780
     21          6           0        4.006296    3.314828   -1.598425
     22          6           0        2.608940    2.940847   -5.066414
     23          6           0        3.676245    5.427042   -3.151761
     24          8           0        3.281578    5.806431   -4.289826
     25          6           0        4.246586    6.528215   -2.304794
     26          7           0        4.498396    2.232524    1.390014
     27          6           0        4.710249    3.456627    0.942659
     28          6           0        5.175847    4.428753    2.108402
     29          6           0        5.325725    3.449707    3.300330
     30          6           0        4.966582    2.125304    2.651437
     31          6           0        6.475067    5.190274    1.774706
     32          6           0        4.309559    3.729106    4.388815
     33          6           0        4.865121    3.801795    5.854745
     34          7           0        4.377170   -0.612162    1.630087
     35          6           0        4.634473   -0.332345    2.933554
     36          6           0        4.705185   -1.551377    3.674128
     37          6           0        4.353408   -2.487770    2.730858
     38          6           0        4.127949   -1.879436    1.481193
     39          6           0        5.110543   -1.761594    5.035061
     40          6           0        4.190603   -3.954957    2.530032
     41          8           0        4.293025   -4.914646    3.266914
     42          6           0        3.796764   -4.136267    1.088524
     43          6           0        4.715437   -5.111272    0.337006
     44          8           0        4.444021   -6.232072    0.019968
     45          8           0        5.897485   -4.465499    0.047965
     46          6           0        6.971745   -5.237443   -0.551802
     47          6           0       -3.233552   -2.782527   -0.236772
     48          6           0       -3.589751   -1.718125   -1.225792
     49          6           0       -4.323652   -1.824278   -2.305979
     50          6           0       -5.004478   -3.093656   -2.832467
     51          6           0       -4.703935   -0.541436   -3.066014
     52          6           0       -5.907313    0.288433   -2.669142
     53          6           0       -5.681919    1.817467   -2.516478
     54          6           0       -6.331928    2.305383   -1.200585
     55          6           0       -6.528385    3.794556   -1.265362
     56          6           0       -5.474821    1.811993    0.074789
     57          6           0       -6.267394    2.170428    1.272894
     58          6           0       -7.191524    1.000544    1.737204
     59          6           0       -8.573866    1.447564    2.085800
     60          6           0       -8.589299    2.179020    3.473214
     61          6           0       -9.504421    0.189305    2.178704
     62          6           0      -10.598989    0.262756    1.169841
     63          6           0      -11.699942   -0.788518    1.550652
     64          6           0      -13.184156   -0.267475    1.286153
     65          6           0      -14.209191   -0.639788    2.397058
     66          6           0      -13.646633   -0.734400   -0.112712
     67          1           0        2.677439    0.384165   -4.305670
     68          1           0        4.486501    4.996395   -0.403202
     69          1           0        5.015071    0.986885    4.479307
     70          1           0        3.511864   -4.126221   -2.320929
     71          1           0        1.767689   -2.313419   -3.474664
     72          1           0        3.097816   -2.781244   -5.430236
     73          1           0        4.343868   -3.482997   -4.370526
     74          1           0        4.259907   -1.723869   -4.734231
     75          1           0        1.658870   -5.011361   -1.490944
     76          1           0        0.845261   -4.054242   -2.655181
     77          1           0        0.824730   -2.342085   -0.589085
     78          1           0        0.600447   -3.880146    0.307413
     79          1           0        1.623823    3.405916   -5.025856
     80          1           0        2.575490    2.009756   -5.632216
     81          1           0        3.271983    3.637662   -5.579121
     82          1           0        5.255155    6.468656   -1.896844
     83          1           0        3.539498    6.616394   -1.480362
     84          1           0        4.136692    7.451232   -2.874736
     85          1           0        4.319903    5.091848    2.229170
     86          1           0        6.289472    3.294622    3.785408
     87          1           0        6.331327    6.241758    2.020647
     88          1           0        6.632045    5.166238    0.696842
     89          1           0        7.277608    4.693090    2.319906
     90          1           0        3.475598    3.032219    4.297999
     91          1           0        3.818871    4.694571    4.263261
     92          1           0        4.754778    4.826967    6.209693
     93          1           0        5.905599    3.477905    5.833421
     94          1           0        4.275054    3.212339    6.557024
     95          1           0        6.095415   -1.334250    5.220184
     96          1           0        5.018218   -2.834760    5.204153
     97          1           0        4.483151   -1.152961    5.686277
     98          1           0        2.842167   -4.653424    0.991651
     99          1           0        7.705241   -5.383291    0.240843
    100          1           0        7.512468   -4.608653   -1.258312
    101          1           0        6.790102   -6.207599   -1.014543
    102          1           0       -3.703649   -2.633321    0.734753
    103          1           0       -3.568997   -3.774529   -0.538296
    104          1           0       -3.220464   -0.722353   -0.984247
    105          1           0       -4.703538   -3.088499   -3.879935
    106          1           0       -6.091676   -3.035573   -2.891070
    107          1           0       -4.559302   -3.991323   -2.404218
    108          1           0       -4.801781   -0.744417   -4.132631
    109          1           0       -3.861659    0.146738   -2.997197
    110          1           0       -6.334515    0.015989   -1.703760
    111          1           0       -6.706790    0.085660   -3.382590
    112          1           0       -6.378985    2.176278   -3.273385
    113          1           0       -4.703607    2.294943   -2.582028
    114          1           0       -7.352955    1.967253   -1.022318
    115          1           0       -5.574805    4.309191   -1.144146
    116          1           0       -7.332330    4.264323   -0.698833
    117          1           0       -6.870064    4.068310   -2.262958
    118          1           0       -4.508405    2.316153    0.088816
    119          1           0       -5.247461    0.747270    0.021983
    120          1           0       -6.802881    3.115806    1.190958
    121          1           0       -5.436371    2.226058    1.976773
    122          1           0       -6.736995    0.504153    2.595353
    123          1           0       -7.305393    0.342071    0.876279
    124          1           0       -8.923462    1.965556    1.192617
    125          1           0       -7.594609    2.567432    3.692424
    126          1           0       -8.885100    1.509532    4.281284
    127          1           0       -9.300480    2.996717    3.357080
    128          1           0      -10.092035    0.209774    3.097072
    129          1           0       -8.976636   -0.762127    2.118299
    130          1           0      -10.384748   -0.054597    0.148938
    131          1           0      -11.060649    1.250055    1.145116
    132          1           0      -11.698032   -1.096068    2.595629
    133          1           0      -11.540014   -1.556093    0.793293
    134          1           0      -13.251621    0.813772    1.159289
    135          1           0      -15.115425   -1.215559    2.206583
    136          1           0      -14.616510    0.293593    2.784077
    137          1           0      -13.791611   -1.227341    3.214892
    138          1           0      -14.693605   -1.035387   -0.086383
    139          1           0      -13.170511   -1.587005   -0.598499
    140          1           0      -13.675669    0.038383   -0.880102
 ---------------------------------------------------------------------

 SCF Done:  E(RB-LYP) =  -3007.34845704     A.U. after   21 cycles

 Excitation energies and oscillator strengths:

 Excited State   1:      Singlet-A      1.8717 eV  662.42 nm  f=0.2630  <S**2>=0.000
     244 -> 247        0.15535
     245 -> 248       -0.21430
     246 -> 247        0.66065
     246 <- 247       -0.12435
 This state for optimization and/or second-order correction.
 Total Energy, E(TD-HF/TD-DFT) =  -3007.27967385
 Copying the excited state density for this state as the 1-particle RhoCI density.

 Excited State   2:      Singlet-A      1.9138 eV  647.84 nm  f=0.0157  <S**2>=0.000
     244 -> 247        0.68500
     246 -> 247       -0.14246

 Excited State   3:      Singlet-A      1.9847 eV  624.71 nm  f=0.0486  <S**2>=0.000
     243 -> 247        0.35097
     245 -> 247        0.56544
     246 -> 248        0.20320

 Excited State   4:      Singlet-A      2.0873 eV  593.99 nm  f=0.0209  <S**2>=0.000
     243 -> 247        0.61029
     245 -> 247       -0.30686
     246 -> 248       -0.16406

 Excited State   5:      Singlet-A      2.5086 eV  494.23 nm  f=0.0021  <S**2>=0.000
     241 -> 247        0.55267
     242 -> 247        0.43887

 The electronic state is 1-A.
 Alpha  occ. eigenvalues --  -46.28878 -18.82357 -18.81568 -18.77196 -18.75768
 Alpha  occ. eigenvalues --  -18.75554 -18.75099 -14.04133 -14.03468 -14.00794
 Alpha  occ. eigenvalues --  -14.00591 -10.04132 -10.03430 -10.00158  -9.99502
 Alpha  occ. eigenvalues --   -9.97976  -9.97860  -9.97511  -9.97490  -9.96986
 Alpha  occ. eigenvalues --   -9.96253  -9.95816  -9.94878  -9.94865  -9.94705
 Alpha  occ. eigenvalues --   -9.94634  -9.94256  -9.94223  -9.94022  -9.94019
 Alpha  occ. eigenvalues --   -9.93715  -9.93701  -9.93616  -9.93301  -9.92909
 Alpha  occ. eigenvalues --   -9.92876  -9.92830  -9.92774  -9.92771  -9.92736
 Alpha  occ. eigenvalues --   -9.92632  -9.92617  -9.92547  -9.92429  -9.92417
 Alpha  occ. eigenvalues --   -9.92281  -9.92237  -9.91832  -9.91737  -9.91721
 Alpha  occ. eigenvalues --   -9.91358  -9.91350  -9.91249  -9.91178  -9.91040
 Alpha  occ. eigenvalues --   -9.90938  -9.90875  -9.90758  -9.90723  -9.90692
 Alpha  occ. eigenvalues --   -9.90626  -9.90520  -9.90436  -9.90404  -9.90235
 Alpha  occ. eigenvalues --   -9.90205  -2.93300  -1.73711  -1.73219  -1.72983
 Alpha  occ. eigenvalues --   -0.98278  -0.97858  -0.91885  -0.90989  -0.89576
 Alpha  occ. eigenvalues --   -0.88368  -0.88204  -0.87469  -0.86894  -0.85465
 Alpha  occ. eigenvalues --   -0.75616  -0.73870  -0.73645  -0.73181  -0.72397
 Alpha  occ. eigenvalues --   -0.72089  -0.72048  -0.71410  -0.70599  -0.70566
 Alpha  occ. eigenvalues --   -0.69514  -0.69263  -0.68290  -0.67871  -0.67274
 Alpha  occ. eigenvalues --   -0.66622  -0.65982  -0.65364  -0.65094  -0.64696
 Alpha  occ. eigenvalues --   -0.64172  -0.62833  -0.62544  -0.61741  -0.61213
 Alpha  occ. eigenvalues --   -0.60421  -0.60271  -0.60035  -0.59443  -0.58674
 Alpha  occ. eigenvalues --   -0.58336  -0.57851  -0.57088  -0.55997  -0.54851
 Alpha  occ. eigenvalues --   -0.54173  -0.53392  -0.53132  -0.52684  -0.51911
 Alpha  occ. eigenvalues --   -0.51139  -0.51016  -0.50876  -0.50572  -0.49949
 Alpha  occ. eigenvalues --   -0.49720  -0.48906  -0.48574  -0.48438  -0.46778
 Alpha  occ. eigenvalues --   -0.46296  -0.46218  -0.45710  -0.45398  -0.44744
 Alpha  occ. eigenvalues --   -0.44055  -0.43675  -0.43442  -0.42910  -0.42464
 Alpha  occ. eigenvalues --   -0.42393  -0.42017  -0.41911  -0.41668  -0.41352
 Alpha  occ. eigenvalues --   -0.41197  -0.41005  -0.40505  -0.40160  -0.40054
 Alpha  occ. eigenvalues --   -0.39742  -0.39727  -0.39328  -0.39128  -0.39049
 Alpha  occ. eigenvalues --   -0.39015  -0.38966  -0.38804  -0.38362  -0.38324
 Alpha  occ. eigenvalues --   -0.38250  -0.37763  -0.37601  -0.37396  -0.37260
 Alpha  occ. eigenvalues --   -0.36979  -0.36875  -0.36753  -0.36449  -0.36222
 Alpha  occ. eigenvalues --   -0.36024  -0.35909  -0.35856  -0.35774  -0.35436
 Alpha  occ. eigenvalues --   -0.35288  -0.35228  -0.34994  -0.34770  -0.34713
 Alpha  occ. eigenvalues --   -0.34598  -0.34397  -0.34250  -0.34011  -0.33952
 Alpha  occ. eigenvalues --   -0.33867  -0.33645  -0.33544  -0.33505  -0.33427
 Alpha  occ. eigenvalues --   -0.33061  -0.33029  -0.32861  -0.32805  -0.32512
 Alpha  occ. eigenvalues --   -0.32391  -0.32382  -0.32128  -0.31565  -0.31485
 Alpha  occ. eigenvalues --   -0.31168  -0.31075  -0.30990  -0.30880  -0.30640
 Alpha  occ. eigenvalues --   -0.30481  -0.30128  -0.30016  -0.29972  -0.29888
 Alpha  occ. eigenvalues --   -0.29535  -0.29506  -0.29068  -0.29046  -0.28762
 Alpha  occ. eigenvalues --   -0.28737  -0.28571  -0.28230  -0.28067  -0.27838
 Alpha  occ. eigenvalues --   -0.27452  -0.27171  -0.27131  -0.26737  -0.26457
 Alpha  occ. eigenvalues --   -0.26330  -0.26167  -0.25852  -0.25824  -0.25624
 Alpha  occ. eigenvalues --   -0.25119  -0.24553  -0.24501  -0.23720  -0.23311
 Alpha  occ. eigenvalues --   -0.22926  -0.22805  -0.21679  -0.21427  -0.20867
 Alpha  occ. eigenvalues --   -0.20575  -0.20449  -0.18786  -0.18265  -0.17162
 Alpha  occ. eigenvalues --   -0.16025
 Alpha virt. eigenvalues --   -0.11326  -0.07241  -0.06369  -0.04806  -0.03911
 Alpha virt. eigenvalues --   -0.02051  -0.01961  -0.01729  -0.01375  -0.00267
 Alpha virt. eigenvalues --    0.00494   0.01888   0.02448   0.02770   0.02968

 Mulliken charges:
               1
     1  Mg   0.680994
     2  C    0.019658
     3  C   -0.059111
     4  C   -0.033539
     5  C   -0.108995
     6  N   -0.176304
     7  C   -0.094369
     8  C    0.029491
     9  C    0.029749
    10  C   -0.018581
    11  C    0.142983
    12  C    0.073652
    13  C    0.114587
    14  C    0.069777
    15  O   -0.210988
    16  O   -0.261563
    17  N   -0.241142
    18  C    0.097674
    19  C   -0.148845
    20  C    0.095606
    21  C    0.102382
    22  C    0.182634
    23  C   -0.093704
    24  O   -0.209691
    25  C    0.160257
    26  N   -0.214270
    27  C   -0.042170
    28  C    0.031648
    29  C    0.041503
    30  C    0.040400
    31  C    0.150600
    32  C    0.066142
    33  C    0.061632
    34  N   -0.197448
    35  C    0.086702
    36  C   -0.193764
    37  C    0.054598
    38  C    0.053528
    39  C    0.200285
    40  C   -0.020570
    41  O   -0.115939
    42  C    0.071309
    43  C    0.071843
    44  O   -0.133217
    45  O   -0.279065
    46  C    0.213324
    47  C    0.339967
    48  C   -0.100720
    49  C   -0.121866
    50  C    0.158868
    51  C    0.124300
    52  C    0.086484
    53  C    0.137533
    54  C   -0.118955
    55  C    0.106819
    56  C    0.076815
    57  C    0.125160
    58  C    0.072045
    59  C   -0.066705
    60  C    0.124925
    61  C    0.114981
    62  C    0.038381
    63  C    0.103187
    64  C   -0.065573
    65  C    0.087931
    66  C    0.069435
    67  H   -0.074812
    68  H   -0.103001
    69  H   -0.074080
    70  H   -0.023989
    71  H   -0.021599
    72  H   -0.003881
    73  H   -0.005288
    74  H   -0.007043
    75  H   -0.009634
    76  H   -0.009663
    77  H    0.014866
    78  H    0.023508
    79  H    0.009235
    80  H   -0.014874
    81  H    0.006531
    82  H    0.021355
    83  H    0.005754
    84  H   -0.011123
    85  H   -0.013745
    86  H   -0.019938
    87  H   -0.008286
    88  H   -0.009929
    89  H   -0.005943
    90  H   -0.011781
    91  H   -0.029135
    92  H   -0.006306
    93  H   -0.005792
    94  H   -0.004429
    95  H   -0.009944
    96  H    0.019103
    97  H   -0.010237
    98  H   -0.009817
    99  H    0.006525
   100  H    0.003219
   101  H    0.027545
   102  H   -0.001203
   103  H   -0.004408
   104  H   -0.038265
   105  H   -0.018850
   106  H    0.001308
   107  H    0.002130
   108  H   -0.041975
   109  H   -0.034158
   110  H   -0.026752
   111  H   -0.034796
   112  H   -0.042588
   113  H   -0.018730
   114  H   -0.041235
   115  H   -0.025001
   116  H   -0.011793
   117  H   -0.038935
   118  H   -0.045878
   119  H   -0.027997
   120  H   -0.028783
   121  H   -0.047952
   122  H   -0.034731
   123  H   -0.033774
   124  H   -0.037282
   125  H   -0.015151
   126  H   -0.007526
   127  H   -0.012971
   128  H   -0.040181
   129  H   -0.031865
   130  H   -0.033779
   131  H   -0.026934
   132  H   -0.023207
   133  H   -0.026896
   134  H   -0.028847
   135  H   -0.020129
   136  H   -0.017400
   137  H   -0.022299
   138  H   -0.034479
   139  H   -0.018743
   140  H   -0.024005
 Sum of Mulliken charges =  -0.00000

 Dipole moment (field-independent basis, Debye):
    X=              1.6676    Y=              4.3278    Z=              1.3905  Tot=              4.8419
 Quadrupole moment (field-independent basis, Debye-Ang):
   XX=           -360.3342   YY=           -444.3248   ZZ=           -409.6260
   XY=             12.0974   XZ=              4.2518   YZ=             40.3939

 Normal termination of Gaussian 16 at Thu Apr 28 21:56:17 2022.
