 Gaussian 16, Revision A.03,
 Gaussian 16:  ES64L-G16RevA.03 25-Dec-2016

 -----------------------------------
 #p cam-b3lyp/Def2SVP td=(nstates=5)
 -----------------------------------

 --------------------------------------------------------
 step_1751_chromophore_14 TDDFT with cam-b3lyp functional
 --------------------------------------------------------
 Symbolic Z-matrix:
 Charge =  0 Multiplicity = 1

                         Standard orientation:
 ---------------------------------------------------------------------
 Center     Atomic      Atomic             Coordinates (Angstroms)
 Number     Number       Type             X           Y           Z
 ---------------------------------------------------------------------
      1         12           0        4.329715    0.703927   -0.037617
      2          6           0        3.771120   -2.751120    0.444922
      3          6           0        3.000354    0.387413   -3.263242
      4          6           0        4.420603    3.906761   -0.386293
      5          6           0        4.904811    0.958450    3.393362
      6          7           0        3.447530   -1.041383   -1.278161
      7          6           0        3.389837   -2.359325   -0.910741
      8          6           0        2.845248   -3.305085   -2.057827
      9          6           0        2.831207   -2.368738   -3.240865
     10          6           0        3.133021   -0.925348   -2.602088
     11          6           0        3.686980   -2.627436   -4.525822
     12          6           0        1.419225   -3.976515   -1.731513
     13          6           0        0.473589   -3.372087   -0.648565
     14          6           0       -1.005313   -3.392721   -0.957690
     15          8           0       -1.557922   -4.107336   -1.789019
     16          8           0       -1.726950   -2.692664   -0.081745
     17          7           0        3.775217    1.988848   -1.659475
     18          6           0        3.255227    1.684395   -2.854869
     19          6           0        3.170529    2.865556   -3.633141
     20          6           0        3.619646    3.946103   -2.834780
     21          6           0        4.006296    3.314828   -1.598425
     22          6           0        2.608940    2.940847   -5.066414
     23          6           0        3.676245    5.427042   -3.151761
     24          8           0        3.281578    5.806431   -4.289826
     25          6           0        4.246586    6.528215   -2.304794
     26          7           0        4.498396    2.232524    1.390014
     27          6           0        4.710249    3.456627    0.942659
     28          6           0        5.175847    4.428753    2.108402
     29          6           0        5.325725    3.449707    3.300330
     30          6           0        4.966582    2.125304    2.651437
     31          6           0        6.475067    5.190274    1.774706
     32          6           0        4.309559    3.729106    4.388815
     33          6           0        4.865121    3.801795    5.854745
     34          7           0        4.377170   -0.612162    1.630087
     35          6           0        4.634473   -0.332345    2.933554
     36          6           0        4.705185   -1.551377    3.674128
     37          6           0        4.353408   -2.487770    2.730858
     38          6           0        4.127949   -1.879436    1.481193
     39          6           0        5.110543   -1.761594    5.035061
     40          6           0        4.190603   -3.954957    2.530032
     41          8           0        4.293025   -4.914646    3.266914
     42          6           0        3.796764   -4.136267    1.088524
     43          6           0        4.715437   -5.111272    0.337006
     44          8           0        4.444021   -6.232072    0.019968
     45          8           0        5.897485   -4.465499    0.047965
     46          6           0        6.971745   -5.237443   -0.551802
     47          6           0       -3.233552   -2.782527   -0.236772
     48          6           0       -3.589751   -1.718125   -1.225792
     49          6           0       -4.323652   -1.824278   -2.305979
     50          6           0       -5.004478   -3.093656   -2.832467
     51          6           0       -4.703935   -0.541436   -3.066014
     52          6           0       -5.907313    0.288433   -2.669142
     53          6           0       -5.681919    1.817467   -2.516478
     54          6           0       -6.331928    2.305383   -1.200585
     55          6           0       -6.528385    3.794556   -1.265362
     56          6           0       -5.474821    1.811993    0.074789
     57          6           0       -6.267394    2.170428    1.272894
     58          6           0       -7.191524    1.000544    1.737204
     59          6           0       -8.573866    1.447564    2.085800
     60          6           0       -8.589299    2.179020    3.473214
     61          6           0       -9.504421    0.189305    2.178704
     62          6           0      -10.598989    0.262756    1.169841
     63          6           0      -11.699942   -0.788518    1.550652
     64          6           0      -13.184156   -0.267475    1.286153
     65          6           0      -14.209191   -0.639788    2.397058
     66          6           0      -13.646633   -0.734400   -0.112712
     67          1           0        2.677439    0.384165   -4.305670
     68          1           0        4.486501    4.996395   -0.403202
     69          1           0        5.015071    0.986885    4.479307
     70          1           0        3.511864   -4.126221   -2.320929
     71          1           0        1.767689   -2.313419   -3.474664
     72          1           0        3.097816   -2.781244   -5.430236
     73          1           0        4.343868   -3.482997   -4.370526
     74          1           0        4.259907   -1.723869   -4.734231
     75          1           0        1.658870   -5.011361   -1.490944
     76          1           0        0.845261   -4.054242   -2.655181
     77          1           0        0.824730   -2.342085   -0.589085
     78          1           0        0.600447   -3.880146    0.307413
     79          1           0        1.623823    3.405916   -5.025856
     80          1           0        2.575490    2.009756   -5.632216
     81          1           0        3.271983    3.637662   -5.579121
     82          1           0        5.255155    6.468656   -1.896844
     83          1           0        3.539498    6.616394   -1.480362
     84          1           0        4.136692    7.451232   -2.874736
     85          1           0        4.319903    5.091848    2.229170
     86          1           0        6.289472    3.294622    3.785408
     87          1           0        6.331327    6.241758    2.020647
     88          1           0        6.632045    5.166238    0.696842
     89          1           0        7.277608    4.693090    2.319906
     90          1           0        3.475598    3.032219    4.297999
     91          1           0        3.818871    4.694571    4.263261
     92          1           0        4.754778    4.826967    6.209693
     93          1           0        5.905599    3.477905    5.833421
     94          1           0        4.275054    3.212339    6.557024
     95          1           0        6.095415   -1.334250    5.220184
     96          1           0        5.018218   -2.834760    5.204153
     97          1           0        4.483151   -1.152961    5.686277
     98          1           0        2.842167   -4.653424    0.991651
     99          1           0        7.705241   -5.383291    0.240843
    100          1           0        7.512468   -4.608653   -1.258312
    101          1           0        6.790102   -6.207599   -1.014543
    102          1           0       -3.703649   -2.633321    0.734753
    103          1           0       -3.568997   -3.774529   -0.538296
    104          1           0       -3.220464   -0.722353   -0.984247
    105          1           0       -4.703538   -3.088499   -3.879935
    106          1           0       -6.091676   -3.035573   -2.891070
    107          1           0       -4.559302   -3.991323   -2.404218
    108          1           0       -4.801781   -0.744417   -4.132631
    109          1           0       -3.861659    0.146738   -2.997197
    110          1           0       -6.334515    0.015989   -1.703760
    111          1           0       -6.706790    0.085660   -3.382590
    112          1           0       -6.378985    2.176278   -3.273385
    113          1           0       -4.703607    2.294943   -2.582028
    114          1           0       -7.352955    1.967253   -1.022318
    115          1           0       -5.574805    4.309191   -1.144146
    116          1           0       -7.332330    4.264323   -0.698833
    117          1           0       -6.870064    4.068310   -2.262958
    118          1           0       -4.508405    2.316153    0.088816
    119          1           0       -5.247461    0.747270    0.021983
    120          1           0       -6.802881    3.115806    1.190958
    121          1           0       -5.436371    2.226058    1.976773
    122          1           0       -6.736995    0.504153    2.595353
    123          1           0       -7.305393    0.342071    0.876279
    124          1           0       -8.923462    1.965556    1.192617
    125          1           0       -7.594609    2.567432    3.692424
    126          1           0       -8.885100    1.509532    4.281284
    127          1           0       -9.300480    2.996717    3.357080
    128          1           0      -10.092035    0.209774    3.097072
    129          1           0       -8.976636   -0.762127    2.118299
    130          1           0      -10.384748   -0.054597    0.148938
    131          1           0      -11.060649    1.250055    1.145116
    132          1           0      -11.698032   -1.096068    2.595629
    133          1           0      -11.540014   -1.556093    0.793293
    134          1           0      -13.251621    0.813772    1.159289
    135          1           0      -15.115425   -1.215559    2.206583
    136          1           0      -14.616510    0.293593    2.784077
    137          1           0      -13.791611   -1.227341    3.214892
    138          1           0      -14.693605   -1.035387   -0.086383
    139          1           0      -13.170511   -1.587005   -0.598499
    140          1           0      -13.675669    0.038383   -0.880102
 ---------------------------------------------------------------------

 SCF Done:  E(RCAM-B3LYP) =  -3007.15258663     A.U. after   17 cycles

 Excitation energies and oscillator strengths:

 Excited State   1:      Singlet-A      1.8043 eV  687.15 nm  f=0.3468  <S**2>=0.000
     245 -> 248        0.20887
     246 -> 247        0.67702
     245 <- 248        0.10969
 This state for optimization and/or second-order correction.
 Total Energy, E(TD-HF/TD-DFT) =  -3007.08627905
 Copying the excited state density for this state as the 1-particle RhoCI density.

 Excited State   2:      Singlet-A      2.2525 eV  550.42 nm  f=0.0761  <S**2>=0.000
     245 -> 247        0.62431
     246 -> 248       -0.32297

 Excited State   3:      Singlet-A      3.4889 eV  355.37 nm  f=0.3399  <S**2>=0.000
     240 -> 247       -0.17192
     240 -> 249       -0.18573
     240 -> 251        0.10466
     241 -> 247        0.14053
     243 -> 247        0.29579
     244 -> 247       -0.16130
     245 -> 247        0.21568
     246 -> 248        0.46731

 Excited State   4:      Singlet-A      3.5086 eV  353.37 nm  f=0.1809  <S**2>=0.000
     239 -> 249       -0.10173
     240 -> 247        0.40121
     240 -> 249        0.29047
     240 -> 251       -0.20958
     241 -> 249       -0.11794
     245 -> 247        0.15701
     246 -> 248        0.31694

 Excited State   5:      Singlet-A      3.5544 eV  348.82 nm  f=0.0203  <S**2>=0.000
     239 -> 247        0.12938
     240 -> 249       -0.11402
     241 -> 247        0.12584
     244 -> 247        0.63625

 The electronic state is 1-A.
 Alpha  occ. eigenvalues --  -46.90548 -19.25191 -19.24367 -19.20324 -19.19036
 Alpha  occ. eigenvalues --  -19.18429 -19.18386 -14.43229 -14.42206 -14.39238
 Alpha  occ. eigenvalues --  -14.38930 -10.39558 -10.38543 -10.35490 -10.34800
 Alpha  occ. eigenvalues --  -10.32165 -10.32095 -10.31999 -10.31742 -10.31638
 Alpha  occ. eigenvalues --  -10.30547 -10.30383 -10.29164 -10.28949 -10.28816
 Alpha  occ. eigenvalues --  -10.28715 -10.28670 -10.28501 -10.28330 -10.28117
 Alpha  occ. eigenvalues --  -10.28079 -10.27871 -10.27695 -10.27514 -10.27177
 Alpha  occ. eigenvalues --  -10.26815 -10.26811 -10.26788 -10.26684 -10.26652
 Alpha  occ. eigenvalues --  -10.26599 -10.26540 -10.26396 -10.26336 -10.26168
 Alpha  occ. eigenvalues --  -10.26011 -10.25806 -10.25761 -10.25436 -10.25337
 Alpha  occ. eigenvalues --  -10.25013 -10.24979 -10.24928 -10.24856 -10.24813
 Alpha  occ. eigenvalues --  -10.24707 -10.24571 -10.24501 -10.24406 -10.24334
 Alpha  occ. eigenvalues --  -10.24283 -10.24079 -10.24036 -10.24015 -10.23824
 Alpha  occ. eigenvalues --  -10.23791  -3.18862  -1.93752  -1.93346  -1.93127
 Alpha  occ. eigenvalues --   -1.16830  -1.16233  -1.10370  -1.08933  -1.07999
 Alpha  occ. eigenvalues --   -1.06082  -1.05937  -1.05112  -1.04629  -1.03143
 Alpha  occ. eigenvalues --   -0.92787  -0.90740  -0.90350  -0.89985  -0.89146
 Alpha  occ. eigenvalues --   -0.88772  -0.88748  -0.87985  -0.87175  -0.87124
 Alpha  occ. eigenvalues --   -0.86237  -0.85625  -0.84567  -0.84011  -0.83463
 Alpha  occ. eigenvalues --   -0.82701  -0.82082  -0.81366  -0.80897  -0.80513
 Alpha  occ. eigenvalues --   -0.79907  -0.78422  -0.78114  -0.77403  -0.76728
 Alpha  occ. eigenvalues --   -0.75749  -0.75580  -0.75392  -0.74689  -0.73814
 Alpha  occ. eigenvalues --   -0.73452  -0.72848  -0.72055  -0.70842  -0.69422
 Alpha  occ. eigenvalues --   -0.68799  -0.67934  -0.67727  -0.66837  -0.66209
 Alpha  occ. eigenvalues --   -0.65235  -0.65127  -0.64923  -0.64649  -0.63738
 Alpha  occ. eigenvalues --   -0.63628  -0.62767  -0.62304  -0.62181  -0.60502
 Alpha  occ. eigenvalues --   -0.59888  -0.59710  -0.59307  -0.58841  -0.58247
 Alpha  occ. eigenvalues --   -0.57530  -0.57073  -0.56757  -0.56074  -0.55584
 Alpha  occ. eigenvalues --   -0.55519  -0.54949  -0.54787  -0.54482  -0.54355
 Alpha  occ. eigenvalues --   -0.54069  -0.53732  -0.53313  -0.53174  -0.53114
 Alpha  occ. eigenvalues --   -0.52734  -0.52537  -0.52044  -0.51884  -0.51729
 Alpha  occ. eigenvalues --   -0.51613  -0.51413  -0.51341  -0.50706  -0.50675
 Alpha  occ. eigenvalues --   -0.50550  -0.50087  -0.49963  -0.49768  -0.49626
 Alpha  occ. eigenvalues --   -0.49207  -0.49041  -0.48966  -0.48837  -0.48697
 Alpha  occ. eigenvalues --   -0.48504  -0.48127  -0.47997  -0.47861  -0.47526
 Alpha  occ. eigenvalues --   -0.47312  -0.47094  -0.47001  -0.46826  -0.46639
 Alpha  occ. eigenvalues --   -0.46466  -0.46249  -0.46197  -0.45915  -0.45764
 Alpha  occ. eigenvalues --   -0.45661  -0.45628  -0.45384  -0.45269  -0.45124
 Alpha  occ. eigenvalues --   -0.45023  -0.44871  -0.44525  -0.44387  -0.44191
 Alpha  occ. eigenvalues --   -0.43965  -0.43884  -0.43876  -0.43322  -0.42835
 Alpha  occ. eigenvalues --   -0.42701  -0.42400  -0.42378  -0.42249  -0.42102
 Alpha  occ. eigenvalues --   -0.41872  -0.41680  -0.41314  -0.41242  -0.41155
 Alpha  occ. eigenvalues --   -0.41026  -0.40880  -0.40385  -0.40169  -0.39910
 Alpha  occ. eigenvalues --   -0.39799  -0.39686  -0.39334  -0.38943  -0.38916
 Alpha  occ. eigenvalues --   -0.38371  -0.38042  -0.38002  -0.37655  -0.37141
 Alpha  occ. eigenvalues --   -0.37102  -0.37054  -0.36928  -0.36609  -0.36580
 Alpha  occ. eigenvalues --   -0.36367  -0.35575  -0.35133  -0.34553  -0.33735
 Alpha  occ. eigenvalues --   -0.33634  -0.33402  -0.33177  -0.31035  -0.30931
 Alpha  occ. eigenvalues --   -0.30839  -0.30560  -0.30244  -0.29854  -0.23895
 Alpha  occ. eigenvalues --   -0.21358
 Alpha virt. eigenvalues --   -0.08253  -0.02289   0.00124   0.01083   0.02195
 Alpha virt. eigenvalues --    0.04863   0.05902   0.06151   0.06265   0.07034
 Alpha virt. eigenvalues --    0.07429   0.08117   0.08771   0.08942   0.09329

 Mulliken charges:
               1
     1  Mg   0.811283
     2  C   -0.000070
     3  C   -0.067076
     4  C   -0.065444
     5  C   -0.111761
     6  N   -0.238985
     7  C   -0.062635
     8  C   -0.007124
     9  C   -0.022544
    10  C   -0.003639
    11  C    0.081430
    12  C    0.022483
    13  C    0.043092
    14  C    0.154621
    15  O   -0.254291
    16  O   -0.326528
    17  N   -0.331767
    18  C    0.103311
    19  C   -0.150230
    20  C    0.018484
    21  C    0.137973
    22  C    0.131555
    23  C   -0.015824
    24  O   -0.249260
    25  C    0.075146
    26  N   -0.287575
    27  C   -0.010622
    28  C   -0.024144
    29  C   -0.017141
    30  C    0.056656
    31  C    0.092098
    32  C    0.007570
    33  C    0.002225
    34  N   -0.289728
    35  C    0.092049
    36  C   -0.185151
    37  C   -0.030043
    38  C    0.084663
    39  C    0.139683
    40  C    0.082926
    41  O   -0.154185
    42  C   -0.004258
    43  C    0.161956
    44  O   -0.172913
    45  O   -0.341146
    46  C    0.174029
    47  C    0.306210
    48  C   -0.128770
    49  C   -0.140554
    50  C    0.097690
    51  C    0.063536
    52  C    0.038587
    53  C    0.074928
    54  C   -0.173214
    55  C    0.046444
    56  C    0.030631
    57  C    0.059033
    58  C    0.026660
    59  C   -0.123550
    60  C    0.065874
    61  C    0.058133
    62  C   -0.008064
    63  C    0.047929
    64  C   -0.128242
    65  C    0.028759
    66  C    0.013608
    67  H   -0.038740
    68  H   -0.069617
    69  H   -0.038905
    70  H    0.010919
    71  H    0.014456
    72  H    0.021263
    73  H    0.018988
    74  H    0.018598
    75  H    0.019796
    76  H    0.024626
    77  H    0.045960
    78  H    0.051706
    79  H    0.037464
    80  H    0.010820
    81  H    0.035365
    82  H    0.048755
    83  H    0.032951
    84  H    0.027061
    85  H    0.021157
    86  H    0.015219
    87  H    0.016705
    88  H    0.014216
    89  H    0.019157
    90  H    0.020339
    91  H    0.000184
    92  H    0.017319
    93  H    0.014594
    94  H    0.019296
    95  H    0.017154
    96  H    0.046079
    97  H    0.014873
    98  H    0.030383
    99  H    0.028466
   100  H    0.025141
   101  H    0.052177
   102  H    0.028214
   103  H    0.027564
   104  H   -0.004107
   105  H    0.005816
   106  H    0.024999
   107  H    0.027049
   108  H   -0.011225
   109  H   -0.003364
   110  H   -0.000654
   111  H   -0.005599
   112  H   -0.010867
   113  H    0.009437
   114  H   -0.012333
   115  H   -0.000252
   116  H    0.012723
   117  H   -0.011524
   118  H   -0.016522
   119  H   -0.002204
   120  H    0.000290
   121  H   -0.015822
   122  H   -0.005540
   123  H   -0.008243
   124  H   -0.008265
   125  H    0.008538
   126  H    0.016487
   127  H    0.011216
   128  H   -0.010819
   129  H   -0.002045
   130  H   -0.007290
   131  H   -0.000109
   132  H    0.003280
   133  H    0.001079
   134  H    0.003034
   135  H    0.004810
   136  H    0.006362
   137  H    0.001481
   138  H   -0.009196
   139  H    0.004535
   140  H    0.000367
 Sum of Mulliken charges =  -0.00000

 Dipole moment (field-independent basis, Debye):
    X=              1.7880    Y=              4.7635    Z=              1.0473  Tot=              5.1946
 Quadrupole moment (field-independent basis, Debye-Ang):
   XX=           -357.8263   YY=           -441.5074   ZZ=           -407.9071
   XY=             14.1938   XZ=              3.3178   YZ=             40.8826

 Normal termination of Gaussian 16 at Thu Apr 28 20:50:49 2022.
