 Gaussian 16, Revision A.03,
 Gaussian 16:  ES64L-G16RevA.03 25-Dec-2016

 ---------------------------------
 #p PBE1PBE/Def2SVP td=(nstates=5)
 ---------------------------------

 ------------------------------------------------------
 step_1751_chromophore_14 TDDFT with PBE1PBE functional
 ------------------------------------------------------
 Symbolic Z-matrix:
 Charge =  0 Multiplicity = 1

                         Standard orientation:
 ---------------------------------------------------------------------
 Center     Atomic      Atomic             Coordinates (Angstroms)
 Number     Number       Type             X           Y           Z
 ---------------------------------------------------------------------
      1         12           0        4.329715    0.703927   -0.037617
      2          6           0        3.771120   -2.751120    0.444922
      3          6           0        3.000354    0.387413   -3.263242
      4          6           0        4.420603    3.906761   -0.386293
      5          6           0        4.904811    0.958450    3.393362
      6          7           0        3.447530   -1.041383   -1.278161
      7          6           0        3.389837   -2.359325   -0.910741
      8          6           0        2.845248   -3.305085   -2.057827
      9          6           0        2.831207   -2.368738   -3.240865
     10          6           0        3.133021   -0.925348   -2.602088
     11          6           0        3.686980   -2.627436   -4.525822
     12          6           0        1.419225   -3.976515   -1.731513
     13          6           0        0.473589   -3.372087   -0.648565
     14          6           0       -1.005313   -3.392721   -0.957690
     15          8           0       -1.557922   -4.107336   -1.789019
     16          8           0       -1.726950   -2.692664   -0.081745
     17          7           0        3.775217    1.988848   -1.659475
     18          6           0        3.255227    1.684395   -2.854869
     19          6           0        3.170529    2.865556   -3.633141
     20          6           0        3.619646    3.946103   -2.834780
     21          6           0        4.006296    3.314828   -1.598425
     22          6           0        2.608940    2.940847   -5.066414
     23          6           0        3.676245    5.427042   -3.151761
     24          8           0        3.281578    5.806431   -4.289826
     25          6           0        4.246586    6.528215   -2.304794
     26          7           0        4.498396    2.232524    1.390014
     27          6           0        4.710249    3.456627    0.942659
     28          6           0        5.175847    4.428753    2.108402
     29          6           0        5.325725    3.449707    3.300330
     30          6           0        4.966582    2.125304    2.651437
     31          6           0        6.475067    5.190274    1.774706
     32          6           0        4.309559    3.729106    4.388815
     33          6           0        4.865121    3.801795    5.854745
     34          7           0        4.377170   -0.612162    1.630087
     35          6           0        4.634473   -0.332345    2.933554
     36          6           0        4.705185   -1.551377    3.674128
     37          6           0        4.353408   -2.487770    2.730858
     38          6           0        4.127949   -1.879436    1.481193
     39          6           0        5.110543   -1.761594    5.035061
     40          6           0        4.190603   -3.954957    2.530032
     41          8           0        4.293025   -4.914646    3.266914
     42          6           0        3.796764   -4.136267    1.088524
     43          6           0        4.715437   -5.111272    0.337006
     44          8           0        4.444021   -6.232072    0.019968
     45          8           0        5.897485   -4.465499    0.047965
     46          6           0        6.971745   -5.237443   -0.551802
     47          6           0       -3.233552   -2.782527   -0.236772
     48          6           0       -3.589751   -1.718125   -1.225792
     49          6           0       -4.323652   -1.824278   -2.305979
     50          6           0       -5.004478   -3.093656   -2.832467
     51          6           0       -4.703935   -0.541436   -3.066014
     52          6           0       -5.907313    0.288433   -2.669142
     53          6           0       -5.681919    1.817467   -2.516478
     54          6           0       -6.331928    2.305383   -1.200585
     55          6           0       -6.528385    3.794556   -1.265362
     56          6           0       -5.474821    1.811993    0.074789
     57          6           0       -6.267394    2.170428    1.272894
     58          6           0       -7.191524    1.000544    1.737204
     59          6           0       -8.573866    1.447564    2.085800
     60          6           0       -8.589299    2.179020    3.473214
     61          6           0       -9.504421    0.189305    2.178704
     62          6           0      -10.598989    0.262756    1.169841
     63          6           0      -11.699942   -0.788518    1.550652
     64          6           0      -13.184156   -0.267475    1.286153
     65          6           0      -14.209191   -0.639788    2.397058
     66          6           0      -13.646633   -0.734400   -0.112712
     67          1           0        2.677439    0.384165   -4.305670
     68          1           0        4.486501    4.996395   -0.403202
     69          1           0        5.015071    0.986885    4.479307
     70          1           0        3.511864   -4.126221   -2.320929
     71          1           0        1.767689   -2.313419   -3.474664
     72          1           0        3.097816   -2.781244   -5.430236
     73          1           0        4.343868   -3.482997   -4.370526
     74          1           0        4.259907   -1.723869   -4.734231
     75          1           0        1.658870   -5.011361   -1.490944
     76          1           0        0.845261   -4.054242   -2.655181
     77          1           0        0.824730   -2.342085   -0.589085
     78          1           0        0.600447   -3.880146    0.307413
     79          1           0        1.623823    3.405916   -5.025856
     80          1           0        2.575490    2.009756   -5.632216
     81          1           0        3.271983    3.637662   -5.579121
     82          1           0        5.255155    6.468656   -1.896844
     83          1           0        3.539498    6.616394   -1.480362
     84          1           0        4.136692    7.451232   -2.874736
     85          1           0        4.319903    5.091848    2.229170
     86          1           0        6.289472    3.294622    3.785408
     87          1           0        6.331327    6.241758    2.020647
     88          1           0        6.632045    5.166238    0.696842
     89          1           0        7.277608    4.693090    2.319906
     90          1           0        3.475598    3.032219    4.297999
     91          1           0        3.818871    4.694571    4.263261
     92          1           0        4.754778    4.826967    6.209693
     93          1           0        5.905599    3.477905    5.833421
     94          1           0        4.275054    3.212339    6.557024
     95          1           0        6.095415   -1.334250    5.220184
     96          1           0        5.018218   -2.834760    5.204153
     97          1           0        4.483151   -1.152961    5.686277
     98          1           0        2.842167   -4.653424    0.991651
     99          1           0        7.705241   -5.383291    0.240843
    100          1           0        7.512468   -4.608653   -1.258312
    101          1           0        6.790102   -6.207599   -1.014543
    102          1           0       -3.703649   -2.633321    0.734753
    103          1           0       -3.568997   -3.774529   -0.538296
    104          1           0       -3.220464   -0.722353   -0.984247
    105          1           0       -4.703538   -3.088499   -3.879935
    106          1           0       -6.091676   -3.035573   -2.891070
    107          1           0       -4.559302   -3.991323   -2.404218
    108          1           0       -4.801781   -0.744417   -4.132631
    109          1           0       -3.861659    0.146738   -2.997197
    110          1           0       -6.334515    0.015989   -1.703760
    111          1           0       -6.706790    0.085660   -3.382590
    112          1           0       -6.378985    2.176278   -3.273385
    113          1           0       -4.703607    2.294943   -2.582028
    114          1           0       -7.352955    1.967253   -1.022318
    115          1           0       -5.574805    4.309191   -1.144146
    116          1           0       -7.332330    4.264323   -0.698833
    117          1           0       -6.870064    4.068310   -2.262958
    118          1           0       -4.508405    2.316153    0.088816
    119          1           0       -5.247461    0.747270    0.021983
    120          1           0       -6.802881    3.115806    1.190958
    121          1           0       -5.436371    2.226058    1.976773
    122          1           0       -6.736995    0.504153    2.595353
    123          1           0       -7.305393    0.342071    0.876279
    124          1           0       -8.923462    1.965556    1.192617
    125          1           0       -7.594609    2.567432    3.692424
    126          1           0       -8.885100    1.509532    4.281284
    127          1           0       -9.300480    2.996717    3.357080
    128          1           0      -10.092035    0.209774    3.097072
    129          1           0       -8.976636   -0.762127    2.118299
    130          1           0      -10.384748   -0.054597    0.148938
    131          1           0      -11.060649    1.250055    1.145116
    132          1           0      -11.698032   -1.096068    2.595629
    133          1           0      -11.540014   -1.556093    0.793293
    134          1           0      -13.251621    0.813772    1.159289
    135          1           0      -15.115425   -1.215559    2.206583
    136          1           0      -14.616510    0.293593    2.784077
    137          1           0      -13.791611   -1.227341    3.214892
    138          1           0      -14.693605   -1.035387   -0.086383
    139          1           0      -13.170511   -1.587005   -0.598499
    140          1           0      -13.675669    0.038383   -0.880102
 ---------------------------------------------------------------------

 SCF Done:  E(RPBE1PBE) =  -3005.34221204     A.U. after   16 cycles

 Excitation energies and oscillator strengths:

 Excited State   1:      Singlet-A      1.9477 eV  636.58 nm  f=0.3388  <S**2>=0.000
     245 -> 248       -0.20226
     246 -> 247        0.68300
 This state for optimization and/or second-order correction.
 Total Energy, E(TD-HF/TD-DFT) =  -3005.27063695
 Copying the excited state density for this state as the 1-particle RhoCI density.

 Excited State   2:      Singlet-A      2.2518 eV  550.60 nm  f=0.0803  <S**2>=0.000
     245 -> 247        0.64097
     246 -> 248        0.28987

 Excited State   3:      Singlet-A      3.0675 eV  404.19 nm  f=0.0000  <S**2>=0.000
     242 -> 247        0.10791
     243 -> 247        0.54586
     243 -> 249       -0.20266
     243 -> 250        0.11057
     244 -> 247       -0.32524

 Excited State   4:      Singlet-A      3.1159 eV  397.91 nm  f=0.0025  <S**2>=0.000
     240 -> 247       -0.15426
     242 -> 247        0.46025
     242 -> 249        0.12979
     243 -> 247       -0.28458
     244 -> 247       -0.36002

 Excited State   5:      Singlet-A      3.2130 eV  385.88 nm  f=0.0043  <S**2>=0.000
     242 -> 247        0.43706
     243 -> 247        0.19506
     244 -> 247        0.49173
     246 -> 248       -0.10730

 The electronic state is 1-A.
 Alpha  occ. eigenvalues --  -46.93916 -19.25849 -19.25033 -19.20540 -19.19236
 Alpha  occ. eigenvalues --  -19.18676 -19.18614 -14.42644 -14.41753 -14.38826
 Alpha  occ. eigenvalues --  -14.38568 -10.36577 -10.35548 -10.32607 -10.31939
 Alpha  occ. eigenvalues --  -10.29923 -10.29885 -10.29470 -10.29285 -10.28954
 Alpha  occ. eigenvalues --  -10.28341 -10.27904 -10.26723 -10.26720 -10.26631
 Alpha  occ. eigenvalues --  -10.26481 -10.26467 -10.26093 -10.26021 -10.25854
 Alpha  occ. eigenvalues --  -10.25739 -10.25671 -10.25216 -10.24987 -10.24825
 Alpha  occ. eigenvalues --  -10.24563 -10.24547 -10.24478 -10.24305 -10.24112
 Alpha  occ. eigenvalues --  -10.24098 -10.24061 -10.24037 -10.23824 -10.23713
 Alpha  occ. eigenvalues --  -10.23654 -10.23288 -10.23149 -10.23126 -10.22711
 Alpha  occ. eigenvalues --  -10.22612 -10.22537 -10.22514 -10.22468 -10.22389
 Alpha  occ. eigenvalues --  -10.22362 -10.22168 -10.21956 -10.21883 -10.21851
 Alpha  occ. eigenvalues --  -10.21689 -10.21586 -10.21542 -10.21482 -10.21318
 Alpha  occ. eigenvalues --  -10.21219  -3.15817  -1.88646  -1.88220  -1.88003
 Alpha  occ. eigenvalues --   -1.11595  -1.11037  -1.05108  -1.03778  -1.02650
 Alpha  occ. eigenvalues --   -1.00930  -1.00634  -0.99838  -0.99264  -0.97737
 Alpha  occ. eigenvalues --   -0.87131  -0.84814  -0.84688  -0.84100  -0.83359
 Alpha  occ. eigenvalues --   -0.83095  -0.82879  -0.82364  -0.81477  -0.81230
 Alpha  occ. eigenvalues --   -0.80492  -0.79811  -0.78718  -0.78316  -0.77694
 Alpha  occ. eigenvalues --   -0.76873  -0.76284  -0.75581  -0.75149  -0.74805
 Alpha  occ. eigenvalues --   -0.74105  -0.72762  -0.72397  -0.71640  -0.71021
 Alpha  occ. eigenvalues --   -0.70083  -0.69754  -0.69479  -0.68796  -0.68017
 Alpha  occ. eigenvalues --   -0.67689  -0.67300  -0.66505  -0.65148  -0.63799
 Alpha  occ. eigenvalues --   -0.63266  -0.62248  -0.62076  -0.61238  -0.60443
 Alpha  occ. eigenvalues --   -0.59692  -0.59454  -0.59389  -0.59106  -0.58166
 Alpha  occ. eigenvalues --   -0.57859  -0.56944  -0.56727  -0.56460  -0.55021
 Alpha  occ. eigenvalues --   -0.54479  -0.54069  -0.53886  -0.53420  -0.52858
 Alpha  occ. eigenvalues --   -0.51910  -0.51593  -0.51249  -0.50471  -0.50152
 Alpha  occ. eigenvalues --   -0.50044  -0.49430  -0.49119  -0.48995  -0.48887
 Alpha  occ. eigenvalues --   -0.48424  -0.48188  -0.47949  -0.47802  -0.47670
 Alpha  occ. eigenvalues --   -0.47238  -0.46994  -0.46569  -0.46310  -0.46243
 Alpha  occ. eigenvalues --   -0.46204  -0.45949  -0.45900  -0.45340  -0.45245
 Alpha  occ. eigenvalues --   -0.45068  -0.44572  -0.44491  -0.44397  -0.44257
 Alpha  occ. eigenvalues --   -0.43888  -0.43690  -0.43535  -0.43367  -0.43278
 Alpha  occ. eigenvalues --   -0.43097  -0.42702  -0.42583  -0.42463  -0.42174
 Alpha  occ. eigenvalues --   -0.41981  -0.41659  -0.41647  -0.41494  -0.41333
 Alpha  occ. eigenvalues --   -0.41102  -0.40948  -0.40860  -0.40637  -0.40441
 Alpha  occ. eigenvalues --   -0.40326  -0.40281  -0.40189  -0.39983  -0.39794
 Alpha  occ. eigenvalues --   -0.39720  -0.39624  -0.39272  -0.39200  -0.38989
 Alpha  occ. eigenvalues --   -0.38695  -0.38565  -0.38523  -0.38089  -0.37725
 Alpha  occ. eigenvalues --   -0.37548  -0.37266  -0.37108  -0.37040  -0.36857
 Alpha  occ. eigenvalues --   -0.36789  -0.36553  -0.36201  -0.35980  -0.35902
 Alpha  occ. eigenvalues --   -0.35834  -0.35649  -0.35151  -0.35100  -0.34750
 Alpha  occ. eigenvalues --   -0.34531  -0.34445  -0.34258  -0.33838  -0.33671
 Alpha  occ. eigenvalues --   -0.33148  -0.32800  -0.32752  -0.32661  -0.32134
 Alpha  occ. eigenvalues --   -0.31989  -0.31953  -0.31834  -0.31519  -0.31500
 Alpha  occ. eigenvalues --   -0.31169  -0.30529  -0.30155  -0.29767  -0.29171
 Alpha  occ. eigenvalues --   -0.28611  -0.28157  -0.28127  -0.26647  -0.25899
 Alpha  occ. eigenvalues --   -0.25815  -0.25738  -0.25539  -0.25414  -0.20846
 Alpha  occ. eigenvalues --   -0.18982
 Alpha virt. eigenvalues --   -0.10821  -0.05692  -0.04082  -0.02226  -0.01648
 Alpha virt. eigenvalues --    0.00814   0.01227   0.01654   0.01758   0.02751
 Alpha virt. eigenvalues --    0.03416   0.04539   0.05313   0.05710   0.05842

 Mulliken charges:
               1
     1  Mg   0.948585
     2  C   -0.003027
     3  C   -0.064350
     4  C   -0.067504
     5  C   -0.092784
     6  N   -0.337066
     7  C    0.007865
     8  C   -0.064050
     9  C   -0.096349
    10  C    0.037166
    11  C    0.019764
    12  C   -0.022485
    13  C   -0.042451
    14  C    0.227943
    15  O   -0.285926
    16  O   -0.356774
    17  N   -0.451113
    18  C    0.128448
    19  C   -0.177531
    20  C   -0.033984
    21  C    0.168788
    22  C    0.076565
    23  C    0.031972
    24  O   -0.281045
    25  C   -0.001174
    26  N   -0.386026
    27  C    0.029578
    28  C   -0.100425
    29  C   -0.099509
    30  C    0.088436
    31  C    0.033776
    32  C   -0.044150
    33  C   -0.069959
    34  N   -0.428056
    35  C    0.112496
    36  C   -0.201647
    37  C   -0.088393
    38  C    0.136921
    39  C    0.081188
    40  C    0.186922
    41  O   -0.202908
    42  C   -0.116989
    43  C    0.256211
    44  O   -0.212454
    45  O   -0.370680
    46  C    0.119453
    47  C    0.258894
    48  C   -0.148965
    49  C   -0.174860
    50  C    0.033437
    51  C    0.000571
    52  C   -0.021638
    53  C    0.014484
    54  C   -0.266877
    55  C   -0.009527
    56  C   -0.020562
    57  C   -0.008864
    58  C   -0.028391
    59  C   -0.214178
    60  C    0.005989
    61  C    0.003664
    62  C   -0.067207
    63  C   -0.012168
    64  C   -0.220049
    65  C   -0.028775
    66  C   -0.040998
    67  H   -0.005021
    68  H   -0.030473
    69  H   -0.004313
    70  H    0.048654
    71  H    0.054085
    72  H    0.048197
    73  H    0.045738
    74  H    0.046664
    75  H    0.051761
    76  H    0.055747
    77  H    0.082112
    78  H    0.083802
    79  H    0.065038
    80  H    0.036135
    81  H    0.062727
    82  H    0.073909
    83  H    0.059724
    84  H    0.055256
    85  H    0.056127
    86  H    0.050681
    87  H    0.044469
    88  H    0.042257
    89  H    0.046350
    90  H    0.053199
    91  H    0.033580
    92  H    0.045361
    93  H    0.041002
    94  H    0.046701
    95  H    0.046012
    96  H    0.074264
    97  H    0.043625
    98  H    0.069961
    99  H    0.051263
   100  H    0.047331
   101  H    0.072410
   102  H    0.054753
   103  H    0.053215
   104  H    0.025644
   105  H    0.034755
   106  H    0.052497
   107  H    0.053955
   108  H    0.021226
   109  H    0.030236
   110  H    0.034441
   111  H    0.026740
   112  H    0.024254
   113  H    0.039261
   114  H    0.029117
   115  H    0.028328
   116  H    0.038656
   117  H    0.017274
   118  H    0.016209
   119  H    0.033222
   120  H    0.032994
   121  H    0.019064
   122  H    0.027361
   123  H    0.027963
   124  H    0.029622
   125  H    0.036498
   126  H    0.042836
   127  H    0.039571
   128  H    0.023534
   129  H    0.029553
   130  H    0.025673
   131  H    0.032210
   132  H    0.033528
   133  H    0.035274
   134  H    0.039902
   135  H    0.030810
   136  H    0.033688
   137  H    0.027834
   138  H    0.018454
   139  H    0.030577
   140  H    0.027691
 Sum of Mulliken charges =  -0.00000

 Dipole moment (field-independent basis, Debye):
    X=              1.7959    Y=              4.7524    Z=              1.2318  Tot=              5.2276
 Quadrupole moment (field-independent basis, Debye-Ang):
   XX=           -354.2050   YY=           -438.3891   ZZ=           -403.4964
   XY=             14.1733   XZ=              5.0508   YZ=             42.0892

 Normal termination of Gaussian 16 at Thu Apr 28 21:13:08 2022.
