 Gaussian 16, Revision A.03,
 Gaussian 16:  ES64L-G16RevA.03 25-Dec-2016

 --------------------------------
 #p wB97XD/Def2SVP td=(nstates=5)
 --------------------------------

 -----------------------------------------------------
 step_1751_chromophore_14 TDDFT with wB97XD functional
 -----------------------------------------------------
 Symbolic Z-matrix:
 Charge =  0 Multiplicity = 1

                         Standard orientation:
 ---------------------------------------------------------------------
 Center     Atomic      Atomic             Coordinates (Angstroms)
 Number     Number       Type             X           Y           Z
 ---------------------------------------------------------------------
      1         12           0        4.329715    0.703927   -0.037617
      2          6           0        3.771120   -2.751120    0.444922
      3          6           0        3.000354    0.387413   -3.263242
      4          6           0        4.420603    3.906761   -0.386293
      5          6           0        4.904811    0.958450    3.393362
      6          7           0        3.447530   -1.041383   -1.278161
      7          6           0        3.389837   -2.359325   -0.910741
      8          6           0        2.845248   -3.305085   -2.057827
      9          6           0        2.831207   -2.368738   -3.240865
     10          6           0        3.133021   -0.925348   -2.602088
     11          6           0        3.686980   -2.627436   -4.525822
     12          6           0        1.419225   -3.976515   -1.731513
     13          6           0        0.473589   -3.372087   -0.648565
     14          6           0       -1.005313   -3.392721   -0.957690
     15          8           0       -1.557922   -4.107336   -1.789019
     16          8           0       -1.726950   -2.692664   -0.081745
     17          7           0        3.775217    1.988848   -1.659475
     18          6           0        3.255227    1.684395   -2.854869
     19          6           0        3.170529    2.865556   -3.633141
     20          6           0        3.619646    3.946103   -2.834780
     21          6           0        4.006296    3.314828   -1.598425
     22          6           0        2.608940    2.940847   -5.066414
     23          6           0        3.676245    5.427042   -3.151761
     24          8           0        3.281578    5.806431   -4.289826
     25          6           0        4.246586    6.528215   -2.304794
     26          7           0        4.498396    2.232524    1.390014
     27          6           0        4.710249    3.456627    0.942659
     28          6           0        5.175847    4.428753    2.108402
     29          6           0        5.325725    3.449707    3.300330
     30          6           0        4.966582    2.125304    2.651437
     31          6           0        6.475067    5.190274    1.774706
     32          6           0        4.309559    3.729106    4.388815
     33          6           0        4.865121    3.801795    5.854745
     34          7           0        4.377170   -0.612162    1.630087
     35          6           0        4.634473   -0.332345    2.933554
     36          6           0        4.705185   -1.551377    3.674128
     37          6           0        4.353408   -2.487770    2.730858
     38          6           0        4.127949   -1.879436    1.481193
     39          6           0        5.110543   -1.761594    5.035061
     40          6           0        4.190603   -3.954957    2.530032
     41          8           0        4.293025   -4.914646    3.266914
     42          6           0        3.796764   -4.136267    1.088524
     43          6           0        4.715437   -5.111272    0.337006
     44          8           0        4.444021   -6.232072    0.019968
     45          8           0        5.897485   -4.465499    0.047965
     46          6           0        6.971745   -5.237443   -0.551802
     47          6           0       -3.233552   -2.782527   -0.236772
     48          6           0       -3.589751   -1.718125   -1.225792
     49          6           0       -4.323652   -1.824278   -2.305979
     50          6           0       -5.004478   -3.093656   -2.832467
     51          6           0       -4.703935   -0.541436   -3.066014
     52          6           0       -5.907313    0.288433   -2.669142
     53          6           0       -5.681919    1.817467   -2.516478
     54          6           0       -6.331928    2.305383   -1.200585
     55          6           0       -6.528385    3.794556   -1.265362
     56          6           0       -5.474821    1.811993    0.074789
     57          6           0       -6.267394    2.170428    1.272894
     58          6           0       -7.191524    1.000544    1.737204
     59          6           0       -8.573866    1.447564    2.085800
     60          6           0       -8.589299    2.179020    3.473214
     61          6           0       -9.504421    0.189305    2.178704
     62          6           0      -10.598989    0.262756    1.169841
     63          6           0      -11.699942   -0.788518    1.550652
     64          6           0      -13.184156   -0.267475    1.286153
     65          6           0      -14.209191   -0.639788    2.397058
     66          6           0      -13.646633   -0.734400   -0.112712
     67          1           0        2.677439    0.384165   -4.305670
     68          1           0        4.486501    4.996395   -0.403202
     69          1           0        5.015071    0.986885    4.479307
     70          1           0        3.511864   -4.126221   -2.320929
     71          1           0        1.767689   -2.313419   -3.474664
     72          1           0        3.097816   -2.781244   -5.430236
     73          1           0        4.343868   -3.482997   -4.370526
     74          1           0        4.259907   -1.723869   -4.734231
     75          1           0        1.658870   -5.011361   -1.490944
     76          1           0        0.845261   -4.054242   -2.655181
     77          1           0        0.824730   -2.342085   -0.589085
     78          1           0        0.600447   -3.880146    0.307413
     79          1           0        1.623823    3.405916   -5.025856
     80          1           0        2.575490    2.009756   -5.632216
     81          1           0        3.271983    3.637662   -5.579121
     82          1           0        5.255155    6.468656   -1.896844
     83          1           0        3.539498    6.616394   -1.480362
     84          1           0        4.136692    7.451232   -2.874736
     85          1           0        4.319903    5.091848    2.229170
     86          1           0        6.289472    3.294622    3.785408
     87          1           0        6.331327    6.241758    2.020647
     88          1           0        6.632045    5.166238    0.696842
     89          1           0        7.277608    4.693090    2.319906
     90          1           0        3.475598    3.032219    4.297999
     91          1           0        3.818871    4.694571    4.263261
     92          1           0        4.754778    4.826967    6.209693
     93          1           0        5.905599    3.477905    5.833421
     94          1           0        4.275054    3.212339    6.557024
     95          1           0        6.095415   -1.334250    5.220184
     96          1           0        5.018218   -2.834760    5.204153
     97          1           0        4.483151   -1.152961    5.686277
     98          1           0        2.842167   -4.653424    0.991651
     99          1           0        7.705241   -5.383291    0.240843
    100          1           0        7.512468   -4.608653   -1.258312
    101          1           0        6.790102   -6.207599   -1.014543
    102          1           0       -3.703649   -2.633321    0.734753
    103          1           0       -3.568997   -3.774529   -0.538296
    104          1           0       -3.220464   -0.722353   -0.984247
    105          1           0       -4.703538   -3.088499   -3.879935
    106          1           0       -6.091676   -3.035573   -2.891070
    107          1           0       -4.559302   -3.991323   -2.404218
    108          1           0       -4.801781   -0.744417   -4.132631
    109          1           0       -3.861659    0.146738   -2.997197
    110          1           0       -6.334515    0.015989   -1.703760
    111          1           0       -6.706790    0.085660   -3.382590
    112          1           0       -6.378985    2.176278   -3.273385
    113          1           0       -4.703607    2.294943   -2.582028
    114          1           0       -7.352955    1.967253   -1.022318
    115          1           0       -5.574805    4.309191   -1.144146
    116          1           0       -7.332330    4.264323   -0.698833
    117          1           0       -6.870064    4.068310   -2.262958
    118          1           0       -4.508405    2.316153    0.088816
    119          1           0       -5.247461    0.747270    0.021983
    120          1           0       -6.802881    3.115806    1.190958
    121          1           0       -5.436371    2.226058    1.976773
    122          1           0       -6.736995    0.504153    2.595353
    123          1           0       -7.305393    0.342071    0.876279
    124          1           0       -8.923462    1.965556    1.192617
    125          1           0       -7.594609    2.567432    3.692424
    126          1           0       -8.885100    1.509532    4.281284
    127          1           0       -9.300480    2.996717    3.357080
    128          1           0      -10.092035    0.209774    3.097072
    129          1           0       -8.976636   -0.762127    2.118299
    130          1           0      -10.384748   -0.054597    0.148938
    131          1           0      -11.060649    1.250055    1.145116
    132          1           0      -11.698032   -1.096068    2.595629
    133          1           0      -11.540014   -1.556093    0.793293
    134          1           0      -13.251621    0.813772    1.159289
    135          1           0      -15.115425   -1.215559    2.206583
    136          1           0      -14.616510    0.293593    2.784077
    137          1           0      -13.791611   -1.227341    3.214892
    138          1           0      -14.693605   -1.035387   -0.086383
    139          1           0      -13.170511   -1.587005   -0.598499
    140          1           0      -13.675669    0.038383   -0.880102
 ---------------------------------------------------------------------

 SCF Done:  E(RwB97XD) =  -3007.85146001     A.U. after   17 cycles

 Excitation energies and oscillator strengths:

 Excited State   1:      Singlet-A      1.7506 eV  708.22 nm  f=0.3443  <S**2>=0.000
     245 -> 248       -0.21416
     246 -> 247        0.67506
     245 <- 248       -0.11910
 This state for optimization and/or second-order correction.
 Total Energy, E(TD-HF/TD-DFT) =  -3007.78712532
 Copying the excited state density for this state as the 1-particle RhoCI density.

 Excited State   2:      Singlet-A      2.1996 eV  563.67 nm  f=0.0743  <S**2>=0.000
     245 -> 247        0.62271
     246 -> 248        0.32441

 Excited State   3:      Singlet-A      3.4961 eV  354.63 nm  f=0.2571  <S**2>=0.000
     240 -> 247        0.20737
     240 -> 249       -0.24250
     240 -> 251        0.10630
     241 -> 247       -0.16790
     243 -> 247       -0.30788
     244 -> 247        0.11485
     245 -> 247       -0.18398
     246 -> 248        0.40511

 Excited State   4:      Singlet-A      3.5145 eV  352.78 nm  f=0.2744  <S**2>=0.000
     240 -> 247       -0.35012
     240 -> 249        0.25510
     240 -> 250        0.12424
     240 -> 251       -0.13646
     241 -> 247        0.11470
     241 -> 249       -0.16362
     243 -> 247       -0.10746
     245 -> 247       -0.19120
     246 -> 248        0.39479

 Excited State   5:      Singlet-A      3.5741 eV  346.90 nm  f=0.0157  <S**2>=0.000
     240 -> 249        0.11205
     241 -> 247        0.15403
     244 -> 247        0.63327

 The electronic state is 1-A.
 Alpha  occ. eigenvalues --  -46.96884 -19.30423 -19.29581 -19.25263 -19.24061
 Alpha  occ. eigenvalues --  -19.23481 -19.23301 -14.47838 -14.46745 -14.43821
 Alpha  occ. eigenvalues --  -14.43479 -10.43421 -10.42305 -10.39492 -10.38795
 Alpha  occ. eigenvalues --  -10.36253 -10.36049 -10.35967 -10.35688 -10.35464
 Alpha  occ. eigenvalues --  -10.34527 -10.34446 -10.33189 -10.32926 -10.32883
 Alpha  occ. eigenvalues --  -10.32878 -10.32716 -10.32679 -10.32371 -10.32118
 Alpha  occ. eigenvalues --  -10.32069 -10.31905 -10.31794 -10.31400 -10.31293
 Alpha  occ. eigenvalues --  -10.30861 -10.30855 -10.30795 -10.30647 -10.30515
 Alpha  occ. eigenvalues --  -10.30462 -10.30427 -10.30327 -10.30312 -10.29990
 Alpha  occ. eigenvalues --  -10.29973 -10.29711 -10.29649 -10.29407 -10.29152
 Alpha  occ. eigenvalues --  -10.28927 -10.28890 -10.28890 -10.28744 -10.28741
 Alpha  occ. eigenvalues --  -10.28734 -10.28498 -10.28319 -10.28315 -10.28219
 Alpha  occ. eigenvalues --  -10.28095 -10.27943 -10.27924 -10.27911 -10.27696
 Alpha  occ. eigenvalues --  -10.27633  -3.22672  -1.96244  -1.95819  -1.95600
 Alpha  occ. eigenvalues --   -1.19002  -1.18390  -1.12590  -1.11144  -1.10218
 Alpha  occ. eigenvalues --   -1.08249  -1.07934  -1.07139  -1.06690  -1.05161
 Alpha  occ. eigenvalues --   -0.94761  -0.92483  -0.92209  -0.91762  -0.90982
 Alpha  occ. eigenvalues --   -0.90692  -0.90532  -0.89906  -0.89104  -0.88888
 Alpha  occ. eigenvalues --   -0.88239  -0.87472  -0.86377  -0.85893  -0.85363
 Alpha  occ. eigenvalues --   -0.84536  -0.84002  -0.83262  -0.82784  -0.82431
 Alpha  occ. eigenvalues --   -0.81756  -0.80342  -0.80013  -0.79351  -0.78662
 Alpha  occ. eigenvalues --   -0.77672  -0.77421  -0.77164  -0.76485  -0.75660
 Alpha  occ. eigenvalues --   -0.75319  -0.74836  -0.74039  -0.72761  -0.71328
 Alpha  occ. eigenvalues --   -0.70802  -0.69838  -0.69698  -0.68732  -0.68067
 Alpha  occ. eigenvalues --   -0.67128  -0.67035  -0.66915  -0.66613  -0.65600
 Alpha  occ. eigenvalues --   -0.65531  -0.64584  -0.64160  -0.64106  -0.62487
 Alpha  occ. eigenvalues --   -0.61873  -0.61586  -0.61302  -0.60803  -0.60250
 Alpha  occ. eigenvalues --   -0.59428  -0.59030  -0.58691  -0.57970  -0.57528
 Alpha  occ. eigenvalues --   -0.57467  -0.56846  -0.56603  -0.56372  -0.56290
 Alpha  occ. eigenvalues --   -0.55900  -0.55606  -0.55273  -0.55131  -0.55017
 Alpha  occ. eigenvalues --   -0.54636  -0.54408  -0.53998  -0.53831  -0.53678
 Alpha  occ. eigenvalues --   -0.53531  -0.53268  -0.53237  -0.52603  -0.52568
 Alpha  occ. eigenvalues --   -0.52418  -0.52063  -0.51821  -0.51723  -0.51536
 Alpha  occ. eigenvalues --   -0.51127  -0.50975  -0.50846  -0.50699  -0.50603
 Alpha  occ. eigenvalues --   -0.50435  -0.49996  -0.49865  -0.49729  -0.49428
 Alpha  occ. eigenvalues --   -0.49239  -0.48950  -0.48938  -0.48760  -0.48575
 Alpha  occ. eigenvalues --   -0.48329  -0.48211  -0.48074  -0.47858  -0.47635
 Alpha  occ. eigenvalues --   -0.47552  -0.47536  -0.47305  -0.47171  -0.46977
 Alpha  occ. eigenvalues --   -0.46921  -0.46753  -0.46413  -0.46310  -0.46103
 Alpha  occ. eigenvalues --   -0.45863  -0.45752  -0.45729  -0.45279  -0.44783
 Alpha  occ. eigenvalues --   -0.44597  -0.44312  -0.44272  -0.44211  -0.43959
 Alpha  occ. eigenvalues --   -0.43792  -0.43586  -0.43214  -0.43114  -0.43075
 Alpha  occ. eigenvalues --   -0.42977  -0.42759  -0.42234  -0.42051  -0.41801
 Alpha  occ. eigenvalues --   -0.41632  -0.41520  -0.41229  -0.40830  -0.40746
 Alpha  occ. eigenvalues --   -0.40204  -0.39888  -0.39818  -0.39686  -0.39147
 Alpha  occ. eigenvalues --   -0.38970  -0.38882  -0.38850  -0.38595  -0.38518
 Alpha  occ. eigenvalues --   -0.38199  -0.37468  -0.37159  -0.36552  -0.35937
 Alpha  occ. eigenvalues --   -0.35466  -0.35273  -0.35007  -0.33227  -0.32860
 Alpha  occ. eigenvalues --   -0.32829  -0.32549  -0.32417  -0.32024  -0.25814
 Alpha  occ. eigenvalues --   -0.23176
 Alpha virt. eigenvalues --   -0.06593  -0.00394   0.02199   0.04233   0.04355
 Alpha virt. eigenvalues --    0.07455   0.08058   0.08436   0.08543   0.09473
 Alpha virt. eigenvalues --    0.10018   0.11062   0.12059   0.12343   0.12622

 Mulliken charges:
               1
     1  Mg   0.943118
     2  C   -0.004496
     3  C   -0.076183
     4  C   -0.079854
     5  C   -0.115401
     6  N   -0.303230
     7  C   -0.025649
     8  C   -0.046310
     9  C   -0.072215
    10  C    0.020433
    11  C    0.033098
    12  C   -0.015432
    13  C   -0.019976
    14  C    0.216356
    15  O   -0.283587
    16  O   -0.357222
    17  N   -0.416664
    18  C    0.120315
    19  C   -0.167293
    20  C   -0.027818
    21  C    0.164813
    22  C    0.086699
    23  C    0.027480
    24  O   -0.276912
    25  C    0.012105
    26  N   -0.358020
    27  C    0.019610
    28  C   -0.076396
    29  C   -0.071749
    30  C    0.081197
    31  C    0.045767
    32  C   -0.033721
    33  C   -0.052673
    34  N   -0.383764
    35  C    0.104219
    36  C   -0.195017
    37  C   -0.080733
    38  C    0.116479
    39  C    0.089879
    40  C    0.162623
    41  O   -0.191923
    42  C   -0.074239
    43  C    0.232048
    44  O   -0.206651
    45  O   -0.370268
    46  C    0.134503
    47  C    0.279777
    48  C   -0.157897
    49  C   -0.165071
    50  C    0.048136
    51  C    0.019653
    52  C   -0.002019
    53  C    0.027082
    54  C   -0.224823
    55  C   -0.001218
    56  C   -0.003468
    57  C    0.009009
    58  C   -0.009174
    59  C   -0.180562
    60  C    0.017650
    61  C    0.019322
    62  C   -0.050269
    63  C    0.007868
    64  C   -0.192311
    65  C   -0.017614
    66  C   -0.030278
    67  H   -0.013030
    68  H   -0.048324
    69  H   -0.012791
    70  H    0.038748
    71  H    0.041861
    72  H    0.043541
    73  H    0.040543
    74  H    0.039004
    75  H    0.045827
    76  H    0.047976
    77  H    0.070444
    78  H    0.077070
    79  H    0.061810
    80  H    0.032944
    81  H    0.058082
    82  H    0.070028
    83  H    0.054258
    84  H    0.054249
    85  H    0.046800
    86  H    0.038546
    87  H    0.039608
    88  H    0.033998
    89  H    0.041399
    90  H    0.044227
    91  H    0.024757
    92  H    0.039616
    93  H    0.033916
    94  H    0.041199
    95  H    0.040645
    96  H    0.070706
    97  H    0.037665
    98  H    0.060216
    99  H    0.046712
   100  H    0.043154
   101  H    0.069416
   102  H    0.051666
   103  H    0.046412
   104  H    0.022441
   105  H    0.027426
   106  H    0.047455
   107  H    0.049023
   108  H    0.014315
   109  H    0.020004
   110  H    0.017669
   111  H    0.020670
   112  H    0.014288
   113  H    0.032198
   114  H    0.011611
   115  H    0.021380
   116  H    0.033846
   117  H    0.010457
   118  H    0.007992
   119  H    0.016315
   120  H    0.020757
   121  H    0.011236
   122  H    0.019458
   123  H    0.012064
   124  H    0.013631
   125  H    0.029934
   126  H    0.037246
   127  H    0.033988
   128  H    0.010646
   129  H    0.022208
   130  H    0.017200
   131  H    0.021344
   132  H    0.023079
   133  H    0.024469
   134  H    0.028858
   135  H    0.025270
   136  H    0.027956
   137  H    0.021707
   138  H    0.011395
   139  H    0.024233
   140  H    0.022192
 Sum of Mulliken charges =  -0.00000

 Dipole moment (field-independent basis, Debye):
    X=              1.8383    Y=              4.8757    Z=              0.9719  Tot=              5.3006
 Quadrupole moment (field-independent basis, Debye-Ang):
   XX=           -353.7627   YY=           -437.5926   ZZ=           -403.3635
   XY=             14.5952   XZ=              3.6431   YZ=             41.2398

 Normal termination of Gaussian 16 at Thu Apr 28 21:42:41 2022.
