 Gaussian 16, Revision A.03,
 Gaussian 16:  ES64L-G16RevA.03 25-Dec-2016

 --------------------
 #p ZINDO=(nstates=5)
 --------------------

 ------------------------------
 step_1751_chromophore_14 ZINDO
 ------------------------------
 Symbolic Z-matrix:
 Charge =  0 Multiplicity = 1

                         Standard orientation:
 ---------------------------------------------------------------------
 Center     Atomic      Atomic             Coordinates (Angstroms)
 Number     Number       Type             X           Y           Z
 ---------------------------------------------------------------------
      1         12           0        4.329715    0.703927   -0.037617
      2          6           0        3.771120   -2.751120    0.444922
      3          6           0        3.000354    0.387413   -3.263242
      4          6           0        4.420603    3.906761   -0.386293
      5          6           0        4.904811    0.958450    3.393362
      6          7           0        3.447530   -1.041383   -1.278161
      7          6           0        3.389837   -2.359325   -0.910741
      8          6           0        2.845248   -3.305085   -2.057827
      9          6           0        2.831207   -2.368738   -3.240865
     10          6           0        3.133021   -0.925348   -2.602088
     11          6           0        3.686980   -2.627436   -4.525822
     12          6           0        1.419225   -3.976515   -1.731513
     13          6           0        0.473589   -3.372087   -0.648565
     14          6           0       -1.005313   -3.392721   -0.957690
     15          8           0       -1.557922   -4.107336   -1.789019
     16          8           0       -1.726950   -2.692664   -0.081745
     17          7           0        3.775217    1.988848   -1.659475
     18          6           0        3.255227    1.684395   -2.854869
     19          6           0        3.170529    2.865556   -3.633141
     20          6           0        3.619646    3.946103   -2.834780
     21          6           0        4.006296    3.314828   -1.598425
     22          6           0        2.608940    2.940847   -5.066414
     23          6           0        3.676245    5.427042   -3.151761
     24          8           0        3.281578    5.806431   -4.289826
     25          6           0        4.246586    6.528215   -2.304794
     26          7           0        4.498396    2.232524    1.390014
     27          6           0        4.710249    3.456627    0.942659
     28          6           0        5.175847    4.428753    2.108402
     29          6           0        5.325725    3.449707    3.300330
     30          6           0        4.966582    2.125304    2.651437
     31          6           0        6.475067    5.190274    1.774706
     32          6           0        4.309559    3.729106    4.388815
     33          6           0        4.865121    3.801795    5.854745
     34          7           0        4.377170   -0.612162    1.630087
     35          6           0        4.634473   -0.332345    2.933554
     36          6           0        4.705185   -1.551377    3.674128
     37          6           0        4.353408   -2.487770    2.730858
     38          6           0        4.127949   -1.879436    1.481193
     39          6           0        5.110543   -1.761594    5.035061
     40          6           0        4.190603   -3.954957    2.530032
     41          8           0        4.293025   -4.914646    3.266914
     42          6           0        3.796764   -4.136267    1.088524
     43          6           0        4.715437   -5.111272    0.337006
     44          8           0        4.444021   -6.232072    0.019968
     45          8           0        5.897485   -4.465499    0.047965
     46          6           0        6.971745   -5.237443   -0.551802
     47          6           0       -3.233552   -2.782527   -0.236772
     48          6           0       -3.589751   -1.718125   -1.225792
     49          6           0       -4.323652   -1.824278   -2.305979
     50          6           0       -5.004478   -3.093656   -2.832467
     51          6           0       -4.703935   -0.541436   -3.066014
     52          6           0       -5.907313    0.288433   -2.669142
     53          6           0       -5.681919    1.817467   -2.516478
     54          6           0       -6.331928    2.305383   -1.200585
     55          6           0       -6.528385    3.794556   -1.265362
     56          6           0       -5.474821    1.811993    0.074789
     57          6           0       -6.267394    2.170428    1.272894
     58          6           0       -7.191524    1.000544    1.737204
     59          6           0       -8.573866    1.447564    2.085800
     60          6           0       -8.589299    2.179020    3.473214
     61          6           0       -9.504421    0.189305    2.178704
     62          6           0      -10.598989    0.262756    1.169841
     63          6           0      -11.699942   -0.788518    1.550652
     64          6           0      -13.184156   -0.267475    1.286153
     65          6           0      -14.209191   -0.639788    2.397058
     66          6           0      -13.646633   -0.734400   -0.112712
     67          1           0        2.677439    0.384165   -4.305670
     68          1           0        4.486501    4.996395   -0.403202
     69          1           0        5.015071    0.986885    4.479307
     70          1           0        3.511864   -4.126221   -2.320929
     71          1           0        1.767689   -2.313419   -3.474664
     72          1           0        3.097816   -2.781244   -5.430236
     73          1           0        4.343868   -3.482997   -4.370526
     74          1           0        4.259907   -1.723869   -4.734231
     75          1           0        1.658870   -5.011361   -1.490944
     76          1           0        0.845261   -4.054242   -2.655181
     77          1           0        0.824730   -2.342085   -0.589085
     78          1           0        0.600447   -3.880146    0.307413
     79          1           0        1.623823    3.405916   -5.025856
     80          1           0        2.575490    2.009756   -5.632216
     81          1           0        3.271983    3.637662   -5.579121
     82          1           0        5.255155    6.468656   -1.896844
     83          1           0        3.539498    6.616394   -1.480362
     84          1           0        4.136692    7.451232   -2.874736
     85          1           0        4.319903    5.091848    2.229170
     86          1           0        6.289472    3.294622    3.785408
     87          1           0        6.331327    6.241758    2.020647
     88          1           0        6.632045    5.166238    0.696842
     89          1           0        7.277608    4.693090    2.319906
     90          1           0        3.475598    3.032219    4.297999
     91          1           0        3.818871    4.694571    4.263261
     92          1           0        4.754778    4.826967    6.209693
     93          1           0        5.905599    3.477905    5.833421
     94          1           0        4.275054    3.212339    6.557024
     95          1           0        6.095415   -1.334250    5.220184
     96          1           0        5.018218   -2.834760    5.204153
     97          1           0        4.483151   -1.152961    5.686277
     98          1           0        2.842167   -4.653424    0.991651
     99          1           0        7.705241   -5.383291    0.240843
    100          1           0        7.512468   -4.608653   -1.258312
    101          1           0        6.790102   -6.207599   -1.014543
    102          1           0       -3.703649   -2.633321    0.734753
    103          1           0       -3.568997   -3.774529   -0.538296
    104          1           0       -3.220464   -0.722353   -0.984247
    105          1           0       -4.703538   -3.088499   -3.879935
    106          1           0       -6.091676   -3.035573   -2.891070
    107          1           0       -4.559302   -3.991323   -2.404218
    108          1           0       -4.801781   -0.744417   -4.132631
    109          1           0       -3.861659    0.146738   -2.997197
    110          1           0       -6.334515    0.015989   -1.703760
    111          1           0       -6.706790    0.085660   -3.382590
    112          1           0       -6.378985    2.176278   -3.273385
    113          1           0       -4.703607    2.294943   -2.582028
    114          1           0       -7.352955    1.967253   -1.022318
    115          1           0       -5.574805    4.309191   -1.144146
    116          1           0       -7.332330    4.264323   -0.698833
    117          1           0       -6.870064    4.068310   -2.262958
    118          1           0       -4.508405    2.316153    0.088816
    119          1           0       -5.247461    0.747270    0.021983
    120          1           0       -6.802881    3.115806    1.190958
    121          1           0       -5.436371    2.226058    1.976773
    122          1           0       -6.736995    0.504153    2.595353
    123          1           0       -7.305393    0.342071    0.876279
    124          1           0       -8.923462    1.965556    1.192617
    125          1           0       -7.594609    2.567432    3.692424
    126          1           0       -8.885100    1.509532    4.281284
    127          1           0       -9.300480    2.996717    3.357080
    128          1           0      -10.092035    0.209774    3.097072
    129          1           0       -8.976636   -0.762127    2.118299
    130          1           0      -10.384748   -0.054597    0.148938
    131          1           0      -11.060649    1.250055    1.145116
    132          1           0      -11.698032   -1.096068    2.595629
    133          1           0      -11.540014   -1.556093    0.793293
    134          1           0      -13.251621    0.813772    1.159289
    135          1           0      -15.115425   -1.215559    2.206583
    136          1           0      -14.616510    0.293593    2.784077
    137          1           0      -13.791611   -1.227341    3.214892
    138          1           0      -14.693605   -1.035387   -0.086383
    139          1           0      -13.170511   -1.587005   -0.598499
    140          1           0      -13.675669    0.038383   -0.880102
 ---------------------------------------------------------------------

 SCF Done:  E(RZINDO/S) =  -474.556572961     A.U. after   20 cycles

 Excitation energies and oscillator strengths:

 Excited State   1:      Singlet-A      1.2985 eV  954.80 nm  f=0.5364  <S**2>=0.000
     175 ->178         0.21332
     176 ->177         0.65746
 This state for optimization and/or second-order correction.
 Total Energy, E(CIS/TDA) =  -474.508852505
 Copying the excited state density for this state as the 1-particle RhoCI density.

 Excited State   2:      Singlet-A      1.8779 eV  660.24 nm  f=0.0135  <S**2>=0.000
     175 ->177         0.52148
     176 ->178        -0.45605

 Excited State   3:      Singlet-A      2.8588 eV  433.69 nm  f=0.0002  <S**2>=0.000
     168 ->177         0.24177
     168 ->179        -0.37429
     168 ->181         0.25388
     168 ->185        -0.18401
     169 ->177         0.15953
     169 ->179        -0.24579
     169 ->181         0.16947
     169 ->185        -0.12089

 Excited State   4:      Singlet-A      2.9676 eV  417.79 nm  f=0.0943  <S**2>=0.000
     175 ->177         0.11617
     176 ->178         0.13538
     176 ->180         0.66618

 Excited State   5:      Singlet-A      3.0100 eV  411.90 nm  f=0.4782  <S**2>=0.000
     170 ->177         0.22771
     170 ->179         0.22041
     170 ->181         0.27446
     170 ->185         0.16068
     170 ->187         0.12703
     175 ->177         0.25784
     176 ->178         0.31124
     176 ->179        -0.15427
     176 ->180        -0.11996

 The electronic state is 1-A.
 Alpha  occ. eigenvalues --   -1.87814  -1.84274  -1.80851  -1.74615  -1.72678
 Alpha  occ. eigenvalues --   -1.71562  -1.68201  -1.61408  -1.59186  -1.57969
 Alpha  occ. eigenvalues --   -1.54590  -1.50871  -1.49337  -1.48333  -1.47216
 Alpha  occ. eigenvalues --   -1.46772  -1.41845  -1.41619  -1.40344  -1.38064
 Alpha  occ. eigenvalues --   -1.36985  -1.35265  -1.33250  -1.30949  -1.28833
 Alpha  occ. eigenvalues --   -1.28542  -1.27024  -1.22527  -1.21632  -1.18004
 Alpha  occ. eigenvalues --   -1.16811  -1.15888  -1.14749  -1.13980  -1.13739
 Alpha  occ. eigenvalues --   -1.13157  -1.10323  -1.09911  -1.06793  -1.04714
 Alpha  occ. eigenvalues --   -1.03903  -1.01845  -0.99587  -0.97873  -0.96809
 Alpha  occ. eigenvalues --   -0.96368  -0.94855  -0.94339  -0.93407  -0.92415
 Alpha  occ. eigenvalues --   -0.91412  -0.90350  -0.89227  -0.87764  -0.86938
 Alpha  occ. eigenvalues --   -0.86594  -0.84486  -0.83288  -0.82794  -0.80606
 Alpha  occ. eigenvalues --   -0.79691  -0.78951  -0.78014  -0.77819  -0.77387
 Alpha  occ. eigenvalues --   -0.76566  -0.76393  -0.75202  -0.74316  -0.73501
 Alpha  occ. eigenvalues --   -0.72977  -0.72637  -0.71766  -0.71512  -0.70216
 Alpha  occ. eigenvalues --   -0.70134  -0.69954  -0.68941  -0.67964  -0.67761
 Alpha  occ. eigenvalues --   -0.67025  -0.66527  -0.66479  -0.65913  -0.65344
 Alpha  occ. eigenvalues --   -0.65117  -0.64783  -0.64222  -0.64028  -0.63465
 Alpha  occ. eigenvalues --   -0.63336  -0.62883  -0.62621  -0.62210  -0.62145
 Alpha  occ. eigenvalues --   -0.61836  -0.61431  -0.60926  -0.60662  -0.59850
 Alpha  occ. eigenvalues --   -0.59315  -0.58741  -0.58723  -0.58298  -0.58104
 Alpha  occ. eigenvalues --   -0.58029  -0.57711  -0.57095  -0.56693  -0.56466
 Alpha  occ. eigenvalues --   -0.56026  -0.55995  -0.55741  -0.55069  -0.54908
 Alpha  occ. eigenvalues --   -0.54472  -0.53823  -0.53457  -0.52864  -0.52700
 Alpha  occ. eigenvalues --   -0.52451  -0.52200  -0.51814  -0.51709  -0.51489
 Alpha  occ. eigenvalues --   -0.51128  -0.50868  -0.50589  -0.50402  -0.50217
 Alpha  occ. eigenvalues --   -0.49886  -0.49514  -0.49416  -0.49227  -0.49016
 Alpha  occ. eigenvalues --   -0.48692  -0.48377  -0.48215  -0.47783  -0.47728
 Alpha  occ. eigenvalues --   -0.47572  -0.47421  -0.47162  -0.46992  -0.46749
 Alpha  occ. eigenvalues --   -0.46456  -0.46215  -0.45789  -0.45650  -0.45593
 Alpha  occ. eigenvalues --   -0.45257  -0.45085  -0.44760  -0.44384  -0.44044
 Alpha  occ. eigenvalues --   -0.43997  -0.43288  -0.43125  -0.42118  -0.42012
 Alpha  occ. eigenvalues --   -0.41605  -0.41065  -0.40614  -0.39418  -0.38566
 Alpha  occ. eigenvalues --   -0.38317  -0.37249  -0.35689  -0.35574  -0.34818
 Alpha  occ. eigenvalues --   -0.33682  -0.32864  -0.32796  -0.32255  -0.26655
 Alpha  occ. eigenvalues --   -0.22050
 Alpha virt. eigenvalues --   -0.08300  -0.02877  -0.00818   0.00463   0.01181
 Alpha virt. eigenvalues --    0.02194   0.02592   0.02967   0.04212   0.05625
 Alpha virt. eigenvalues --    0.05743   0.06459   0.06681   0.07276   0.07835

 Mulliken charges:
               1
     1  Mg   0.440283
     2  C   -0.046413
     3  C   -0.070096
     4  C   -0.111416
     5  C   -0.075393
     6  N   -0.267108
     7  C    0.090319
     8  C    0.010586
     9  C    0.008623
    10  C    0.117586
    11  C   -0.046986
    12  C   -0.031800
    13  C    0.009966
    14  C    0.474275
    15  O   -0.533786
    16  O   -0.267376
    17  N   -0.331066
    18  C    0.124167
    19  C    0.054119
    20  C   -0.044183
    21  C    0.140755
    22  C   -0.041881
    23  C    0.325195
    24  O   -0.541585
    25  C   -0.022944
    26  N   -0.256167
    27  C    0.139212
    28  C    0.004695
    29  C    0.006362
    30  C    0.108792
    31  C   -0.052867
    32  C   -0.032747
    33  C   -0.062429
    34  N   -0.309861
    35  C    0.080313
    36  C    0.030636
    37  C   -0.065346
    38  C    0.105284
    39  C   -0.034263
    40  C    0.330655
    41  O   -0.514235
    42  C    0.056444
    43  C    0.486115
    44  O   -0.500356
    45  O   -0.272162
    46  C    0.074117
    47  C    0.108800
    48  C   -0.068255
    49  C   -0.000755
    50  C   -0.049322
    51  C   -0.024249
    52  C   -0.027327
    53  C   -0.039378
    54  C   -0.017270
    55  C   -0.058739
    56  C   -0.034611
    57  C   -0.042388
    58  C   -0.032514
    59  C   -0.021105
    60  C   -0.054862
    61  C   -0.038179
    62  C   -0.037474
    63  C   -0.050878
    64  C   -0.011277
    65  C   -0.061187
    66  C   -0.063075
    67  H    0.022774
    68  H    0.010873
    69  H    0.022447
    70  H    0.038404
    71  H    0.030630
    72  H    0.025240
    73  H    0.027889
    74  H    0.022931
    75  H    0.024830
    76  H    0.032636
    77  H    0.041784
    78  H    0.053017
    79  H    0.041152
    80  H    0.026952
    81  H    0.038703
    82  H    0.042255
    83  H    0.033628
    84  H    0.036788
    85  H    0.039083
    86  H    0.040963
    87  H    0.022289
    88  H    0.022958
    89  H    0.030410
    90  H    0.025450
    91  H    0.010795
    92  H    0.019292
    93  H    0.023967
    94  H    0.022004
    95  H    0.031612
    96  H    0.041121
    97  H    0.026973
    98  H    0.055790
    99  H    0.031049
   100  H    0.026386
   101  H    0.057303
   102  H    0.037108
   103  H    0.054918
   104  H    0.026251
   105  H    0.019360
   106  H    0.035706
   107  H    0.036003
   108  H    0.015126
   109  H    0.013789
   110  H    0.018630
   111  H    0.016192
   112  H    0.011553
   113  H    0.040961
   114  H    0.020574
   115  H    0.016415
   116  H    0.019392
   117  H    0.003869
   118  H    0.011750
   119  H    0.022689
   120  H    0.032818
   121  H    0.006375
   122  H    0.021754
   123  H    0.013829
   124  H    0.030386
   125  H    0.018663
   126  H    0.027106
   127  H    0.017924
   128  H    0.017156
   129  H    0.024575
   130  H    0.020044
   131  H    0.021115
   132  H    0.030168
   133  H    0.025757
   134  H    0.023610
   135  H    0.021284
   136  H    0.011909
   137  H    0.015141
   138  H    0.005973
   139  H    0.019378
   140  H    0.012383
 Sum of Mulliken charges =  -0.00000

 Dipole moment (field-independent basis, Debye):
    X=              2.8041    Y=              7.0341    Z=              1.2193  Tot=              7.6700
 N-N= 4.483425297449D+03 E-N= 0.000000000000D+00  KE=-9.640967217029D+03
 Leave Link  601 at Thu Apr 28 21:56:24 2022, MaxMem=  6710886400 cpu:               0.8 elap:               0.0
 (Enter /sw/apps/gaussian-16.0/g16/l9999.exe)
 1\1\GINC-BP1-COMPUTE159\SP\RZINDO CIS\STO-3G\C55H74Mg1N4O6\OF15641\28-
 Apr-2022\0\\#p ZINDO=(nstates=5)\\step_1751_chromophore_14 ZINDO\\0,1\
 Mg,0,47.065,45.072,43.67\C,0,43.606,44.406,43.398\C,0,47.694,41.732,42
 .821\C,0,50.218,45.715,43.488\C,0,46.273,48.468,43.754\N,0,45.746,43.2
 44,43.139\C,0,44.378,43.187,43.164\C,0,43.807,41.739,42.874\C,0,45.062
 ,40.903,42.925\C,0,46.25,41.983,42.994\C,0,45.261,39.751,43.966\C,0,42
 .992,41.621,41.491\C,0,43.179,42.672,40.354\C,0,43.176,42.142,38.939\O

 Normal termination of Gaussian 16 at Thu Apr 28 21:56:24 2022.
