 Gaussian 16, Revision A.03,
 Gaussian 16:  ES64L-G16RevA.03 25-Dec-2016

 ------------------------------
 #p blyp/Def2SVP td=(nstates=5)
 ------------------------------

 --------------------------------------------------
 step_1151_chromophore_1 TDDFT with blyp functional
 --------------------------------------------------
 Symbolic Z-matrix:
 Charge =  0 Multiplicity = 1

                         Standard orientation:
 ---------------------------------------------------------------------
 Center     Atomic      Atomic             Coordinates (Angstroms)
 Number     Number       Type             X           Y           Z
 ---------------------------------------------------------------------
      1         12           0        5.764724    0.510683    0.172914
      2          6           0        3.778479   -2.287661   -0.448120
      3          6           0        3.549283    2.499368   -1.212682
      4          6           0        8.055263    3.035628    0.476439
      5          6           0        8.478389   -1.699081    0.755121
      6          7           0        3.882979    0.192688   -0.611272
      7          6           0        3.193532   -1.013876   -0.759774
      8          6           0        1.887716   -0.867574   -1.521299
      9          6           0        2.049153    0.566171   -2.082333
     10          6           0        3.192043    1.190014   -1.180193
     11          6           0        2.565210    0.587750   -3.511908
     12          6           0        0.755663   -0.925010   -0.462234
     13          6           0       -0.618550   -1.319772   -1.093160
     14          6           0       -1.670625   -1.789914   -0.080226
     15          8           0       -1.536972   -1.658317    1.153157
     16          8           0       -2.794487   -2.340787   -0.677868
     17          7           0        5.725027    2.514365   -0.131751
     18          6           0        4.717784    3.184833   -0.737292
     19          6           0        5.075338    4.585564   -0.931804
     20          6           0        6.378461    4.796973   -0.383733
     21          6           0        6.739498    3.399180    0.044283
     22          6           0        4.097014    5.526971   -1.569041
     23          6           0        7.297195    6.048450   -0.371990
     24          8           0        8.521631    6.008076    0.099586
     25          6           0        6.659264    7.346048   -0.943020
     26          7           0        7.943213    0.620750    0.549332
     27          6           0        8.587147    1.790151    0.688112
     28          6           0       10.105201    1.573279    0.798946
     29          6           0       10.122108    0.138141    1.256591
     30          6           0        8.798380   -0.333664    0.806343
     31          6           0       10.964705    1.991896   -0.419080
     32          6           0       10.488067    0.016075    2.717937
     33          6           0        9.314039   -0.180837    3.755580
     34          7           0        6.155201   -1.544478    0.249259
     35          6           0        7.265615   -2.316602    0.432886
     36          6           0        6.918844   -3.717476    0.484988
     37          6           0        5.587440   -3.705926    0.141847
     38          6           0        5.126994   -2.411110   -0.032580
     39          6           0        7.722962   -4.988237    0.770485
     40          6           0        4.424266   -4.601955   -0.126293
     41          8           0        4.312557   -5.836498   -0.088551
     42          6           0        3.264436   -3.646330   -0.699822
     43          6           0        2.039313   -4.115897   -0.027728
     44          8           0        1.818043   -4.136302    1.176783
     45          8           0        1.236172   -4.691950   -0.958646
     46          6           0        0.053757   -5.374173   -0.570627
     47          6           0       -3.887775   -2.553925    0.257880
     48          6           0       -5.045492   -2.060810   -0.458091
     49          6           0       -6.293531   -2.543946   -0.706388
     50          6           0       -6.585137   -3.966656   -0.611102
     51          6           0       -7.316603   -1.726939   -1.361039
     52          6           0       -8.362819   -1.141294   -0.355125
     53          6           0       -7.789774    0.081562    0.452034
     54          6           0       -8.492875    1.389358    0.026561
     55          6           0       -7.400993    2.339443   -0.563716
     56          6           0       -9.107548    2.274156    1.235008
     57          6           0      -10.590853    2.084334    1.099238
     58          6           0      -11.323177    1.677320    2.444149
     59          6           0      -12.842430    1.988573    2.523615
     60          6           0      -13.332981    2.325862    3.931737
     61          6           0      -13.693027    0.898753    1.859130
     62          6           0      -14.836753    1.429410    0.990723
     63          6           0      -14.546808    1.859885   -0.460260
     64          6           0      -14.451454    0.551413   -1.203091
     65          6           0      -13.192914    0.581866   -2.102401
     66          6           0      -15.773069    0.284906   -2.050154
     67          1           0        2.851475    3.174492   -1.713518
     68          1           0        8.816980    3.817586    0.492513
     69          1           0        9.269247   -2.371882    1.095569
     70          1           0        1.760149   -1.585015   -2.331613
     71          1           0        1.070670    1.042066   -2.156888
     72          1           0        2.601188   -0.419198   -3.926226
     73          1           0        3.572263    0.980992   -3.654740
     74          1           0        1.994956    1.151895   -4.250049
     75          1           0        0.835856    0.056456    0.006268
     76          1           0        0.884909   -1.567532    0.407777
     77          1           0       -0.464356   -2.110507   -1.827125
     78          1           0       -1.035084   -0.467902   -1.631024
     79          1           0        3.813847    6.333253   -0.893189
     80          1           0        3.193065    5.008424   -1.891950
     81          1           0        4.464781    5.973413   -2.492465
     82          1           0        6.606108    7.264434   -2.028809
     83          1           0        7.249056    8.208765   -0.635390
     84          1           0        5.690812    7.509498   -0.470144
     85          1           0       10.369028    2.306660    1.561750
     86          1           0       10.938368   -0.374341    0.746665
     87          1           0       11.782948    1.414160   -0.848895
     88          1           0       11.497876    2.895041   -0.120033
     89          1           0       10.270273    2.293567   -1.202777
     90          1           0       11.110158    0.856600    3.027087
     91          1           0       11.225518   -0.774284    2.864339
     92          1           0        9.481910    0.384736    4.672419
     93          1           0        9.203566   -1.214204    4.082609
     94          1           0        8.395255    0.132883    3.259798
     95          1           0        8.700068   -4.802961    1.215790
     96          1           0        7.847902   -5.382898   -0.238026
     97          1           0        7.132776   -5.708325    1.338559
     98          1           0        3.138940   -3.834581   -1.765927
     99          1           0       -0.672033   -5.304226   -1.380473
    100          1           0       -0.341789   -4.929908    0.343087
    101          1           0        0.319703   -6.417084   -0.399847
    102          1           0       -3.863511   -1.954519    1.168186
    103          1           0       -3.930424   -3.627424    0.441992
    104          1           0       -4.895481   -1.015536   -0.727718
    105          1           0       -5.650131   -4.497175   -0.427327
    106          1           0       -7.150417   -4.273991   -1.490699
    107          1           0       -7.172907   -4.269141    0.255430
    108          1           0       -7.727639   -2.254117   -2.222009
    109          1           0       -6.799386   -0.832198   -1.706902
    110          1           0       -8.651112   -1.913457    0.358135
    111          1           0       -9.240563   -0.866998   -0.940681
    112          1           0       -6.717530    0.193747    0.286887
    113          1           0       -7.914050   -0.103676    1.518532
    114          1           0       -9.205264    1.286645   -0.791542
    115          1           0       -6.862746    2.699528    0.313107
    116          1           0       -7.847154    3.219472   -1.028654
    117          1           0       -6.747943    1.826715   -1.270397
    118          1           0       -8.810370    3.316958    1.125841
    119          1           0       -8.819442    1.987573    2.246667
    120          1           0      -10.816941    1.299092    0.378688
    121          1           0      -11.094276    2.983866    0.746348
    122          1           0      -10.803610    2.217501    3.235507
    123          1           0      -11.176317    0.596795    2.459991
    124          1           0      -13.072890    2.847506    1.893578
    125          1           0      -13.322559    3.405292    4.082169
    126          1           0      -12.629531    1.915310    4.655155
    127          1           0      -14.367283    2.002825    4.045674
    128          1           0      -14.140380    0.334032    2.676372
    129          1           0      -13.051690    0.271594    1.239128
    130          1           0      -15.463899    2.211677    1.417212
    131          1           0      -15.485252    0.553016    0.959806
    132          1           0      -13.602068    2.361486   -0.673237
    133          1           0      -15.311732    2.559455   -0.797121
    134          1           0      -14.366868   -0.375371   -0.637068
    135          1           0      -13.126463   -0.040414   -2.994664
    136          1           0      -12.360156    0.220421   -1.499139
    137          1           0      -12.952692    1.604325   -2.393719
    138          1           0      -16.148390   -0.733359   -1.955840
    139          1           0      -15.789566    0.588201   -3.096442
    140          1           0      -16.649174    0.821025   -1.685959
 ---------------------------------------------------------------------

 SCF Done:  E(RB-LYP) =  -3007.37272397     A.U. after   21 cycles

 Excitation energies and oscillator strengths:

 Excited State   1:      Singlet-A      1.8096 eV  685.16 nm  f=0.3144  <S**2>=0.000
     245 -> 248       -0.13398
     245 -> 249        0.14068
     246 -> 247        0.68898
     246 <- 247       -0.14858
 This state for optimization and/or second-order correction.
 Total Energy, E(TD-HF/TD-DFT) =  -3007.30622413
 Copying the excited state density for this state as the 1-particle RhoCI density.

 Excited State   2:      Singlet-A      1.9959 eV  621.19 nm  f=0.0945  <S**2>=0.000
     245 -> 247        0.65087
     246 -> 248        0.14235
     246 -> 249       -0.17157

 Excited State   3:      Singlet-A      2.0704 eV  598.84 nm  f=0.0008  <S**2>=0.000
     244 -> 247        0.70392

 Excited State   4:      Singlet-A      2.0945 eV  591.95 nm  f=0.0010  <S**2>=0.000
     243 -> 247        0.70237

 Excited State   5:      Singlet-A      2.2455 eV  552.15 nm  f=0.0001  <S**2>=0.000
     242 -> 247        0.70710

 The electronic state is 1-A.
 Alpha  occ. eigenvalues --  -46.26659 -18.82729 -18.81760 -18.77253 -18.76413
 Alpha  occ. eigenvalues --  -18.76319 -18.75940 -14.03736 -14.02591 -14.01651
 Alpha  occ. eigenvalues --  -14.00527 -10.04679 -10.03387 -10.01482 -10.00359
 Alpha  occ. eigenvalues --   -9.97744  -9.97207  -9.97182  -9.96690  -9.96159
 Alpha  occ. eigenvalues --   -9.95832  -9.95625  -9.95341  -9.95060  -9.94529
 Alpha  occ. eigenvalues --   -9.94457  -9.94296  -9.94259  -9.94230  -9.93888
 Alpha  occ. eigenvalues --   -9.93773  -9.93659  -9.93567  -9.93139  -9.92986
 Alpha  occ. eigenvalues --   -9.92896  -9.92718  -9.92690  -9.92639  -9.92513
 Alpha  occ. eigenvalues --   -9.92371  -9.92286  -9.92265  -9.92241  -9.92207
 Alpha  occ. eigenvalues --   -9.92169  -9.92136  -9.91856  -9.91813  -9.91729
 Alpha  occ. eigenvalues --   -9.91546  -9.91521  -9.91387  -9.91267  -9.91181
 Alpha  occ. eigenvalues --   -9.91063  -9.91021  -9.90973  -9.90941  -9.90900
 Alpha  occ. eigenvalues --   -9.90853  -9.90732  -9.90665  -9.90616  -9.90615
 Alpha  occ. eigenvalues --   -9.90557  -2.91487  -1.71915  -1.71344  -1.71223
 Alpha  occ. eigenvalues --   -0.98221  -0.97835  -0.90803  -0.89547  -0.89425
 Alpha  occ. eigenvalues --   -0.88213  -0.87451  -0.86780  -0.86122  -0.85597
 Alpha  occ. eigenvalues --   -0.75854  -0.74619  -0.73418  -0.73304  -0.72709
 Alpha  occ. eigenvalues --   -0.72283  -0.71804  -0.70929  -0.70892  -0.70561
 Alpha  occ. eigenvalues --   -0.69798  -0.69685  -0.68366  -0.67982  -0.67124
 Alpha  occ. eigenvalues --   -0.66501  -0.65833  -0.65538  -0.65347  -0.64600
 Alpha  occ. eigenvalues --   -0.64220  -0.62755  -0.62518  -0.61789  -0.60844
 Alpha  occ. eigenvalues --   -0.60567  -0.60306  -0.60181  -0.59547  -0.58739
 Alpha  occ. eigenvalues --   -0.58257  -0.57716  -0.56507  -0.55700  -0.55434
 Alpha  occ. eigenvalues --   -0.53737  -0.53130  -0.52789  -0.52439  -0.51653
 Alpha  occ. eigenvalues --   -0.51377  -0.51022  -0.50950  -0.50519  -0.50260
 Alpha  occ. eigenvalues --   -0.49940  -0.49628  -0.48356  -0.47990  -0.47305
 Alpha  occ. eigenvalues --   -0.47097  -0.46658  -0.45722  -0.45123  -0.44490
 Alpha  occ. eigenvalues --   -0.44267  -0.44042  -0.43523  -0.42950  -0.42911
 Alpha  occ. eigenvalues --   -0.42709  -0.42167  -0.41801  -0.41782  -0.41294
 Alpha  occ. eigenvalues --   -0.41272  -0.40848  -0.40514  -0.40202  -0.40080
 Alpha  occ. eigenvalues --   -0.39780  -0.39725  -0.39601  -0.39221  -0.38958
 Alpha  occ. eigenvalues --   -0.38759  -0.38422  -0.38379  -0.38212  -0.38138
 Alpha  occ. eigenvalues --   -0.37984  -0.37876  -0.37517  -0.37332  -0.37275
 Alpha  occ. eigenvalues --   -0.37178  -0.36967  -0.36709  -0.36588  -0.36427
 Alpha  occ. eigenvalues --   -0.36355  -0.35919  -0.35595  -0.35478  -0.35419
 Alpha  occ. eigenvalues --   -0.35332  -0.35124  -0.34969  -0.34669  -0.34581
 Alpha  occ. eigenvalues --   -0.34540  -0.34443  -0.34200  -0.34181  -0.33923
 Alpha  occ. eigenvalues --   -0.33684  -0.33614  -0.33530  -0.33282  -0.33217
 Alpha  occ. eigenvalues --   -0.32769  -0.32596  -0.32531  -0.32358  -0.32196
 Alpha  occ. eigenvalues --   -0.32175  -0.32081  -0.31830  -0.31585  -0.31580
 Alpha  occ. eigenvalues --   -0.31492  -0.31147  -0.30852  -0.30783  -0.30488
 Alpha  occ. eigenvalues --   -0.30405  -0.30227  -0.30012  -0.29939  -0.29793
 Alpha  occ. eigenvalues --   -0.29542  -0.29317  -0.29302  -0.29069  -0.29007
 Alpha  occ. eigenvalues --   -0.28854  -0.28601  -0.28392  -0.28262  -0.28233
 Alpha  occ. eigenvalues --   -0.28126  -0.27272  -0.27253  -0.26746  -0.26552
 Alpha  occ. eigenvalues --   -0.26214  -0.26108  -0.25776  -0.25723  -0.25463
 Alpha  occ. eigenvalues --   -0.25184  -0.24540  -0.24190  -0.23816  -0.23607
 Alpha  occ. eigenvalues --   -0.23337  -0.22601  -0.22272  -0.21394  -0.21217
 Alpha  occ. eigenvalues --   -0.20464  -0.19827  -0.19164  -0.19075  -0.17249
 Alpha  occ. eigenvalues --   -0.15866
 Alpha virt. eigenvalues --   -0.11575  -0.07354  -0.06383  -0.05052  -0.03781
 Alpha virt. eigenvalues --   -0.02234  -0.01900  -0.01852  -0.01358  -0.00086
 Alpha virt. eigenvalues --    0.00771   0.01223   0.01913   0.02434   0.02810

 Mulliken charges:
               1
     1  Mg   0.722191
     2  C    0.019086
     3  C   -0.059200
     4  C   -0.051316
     5  C   -0.087777
     6  N   -0.258469
     7  C   -0.028851
     8  C    0.017860
     9  C    0.002348
    10  C    0.070537
    11  C    0.116433
    12  C    0.077750
    13  C    0.133042
    14  C    0.106280
    15  O   -0.209278
    16  O   -0.277635
    17  N   -0.273787
    18  C    0.117529
    19  C   -0.121839
    20  C    0.011818
    21  C    0.080903
    22  C    0.164153
    23  C   -0.015739
    24  O   -0.226671
    25  C    0.118727
    26  N   -0.129721
    27  C   -0.021627
    28  C    0.007429
    29  C    0.101358
    30  C   -0.008093
    31  C    0.133122
    32  C    0.073732
    33  C    0.066196
    34  N   -0.267640
    35  C    0.112967
    36  C   -0.197380
    37  C    0.105151
    38  C    0.073520
    39  C    0.177380
    40  C   -0.022540
    41  O   -0.148413
    42  C    0.077510
    43  C    0.084226
    44  O   -0.179969
    45  O   -0.256917
    46  C    0.202367
    47  C    0.357270
    48  C   -0.107566
    49  C   -0.174551
    50  C    0.175924
    51  C    0.141939
    52  C    0.073233
    53  C    0.143539
    54  C   -0.110678
    55  C    0.074785
    56  C    0.139028
    57  C    0.022790
    58  C    0.082411
    59  C   -0.073199
    60  C    0.133018
    61  C    0.129027
    62  C    0.042527
    63  C    0.158799
    64  C   -0.094467
    65  C    0.087549
    66  C    0.086067
    67  H   -0.077736
    68  H   -0.046471
    69  H   -0.073628
    70  H   -0.024727
    71  H   -0.036239
    72  H   -0.022943
    73  H   -0.002578
    74  H   -0.014933
    75  H   -0.022935
    76  H    0.019669
    77  H   -0.000907
    78  H    0.002470
    79  H    0.009489
    80  H   -0.025295
    81  H   -0.005866
    82  H    0.025948
    83  H   -0.003115
    84  H    0.008200
    85  H   -0.025623
    86  H   -0.047491
    87  H   -0.006618
    88  H   -0.011997
    89  H   -0.005653
    90  H   -0.032157
    91  H   -0.037003
    92  H   -0.009417
    93  H   -0.006209
    94  H    0.011004
    95  H   -0.008540
    96  H    0.009315
    97  H    0.020203
    98  H   -0.000350
    99  H    0.012581
   100  H    0.023776
   101  H    0.018585
   102  H    0.021125
   103  H   -0.018835
   104  H   -0.047974
   105  H   -0.026669
   106  H   -0.009100
   107  H   -0.013404
   108  H   -0.026555
   109  H   -0.042267
   110  H   -0.035182
   111  H   -0.019409
   112  H   -0.035864
   113  H   -0.037304
   114  H   -0.016043
   115  H   -0.013460
   116  H   -0.020009
   117  H   -0.018088
   118  H   -0.035057
   119  H   -0.029770
   120  H   -0.015494
   121  H   -0.033945
   122  H   -0.034901
   123  H   -0.028760
   124  H   -0.046336
   125  H   -0.022717
   126  H   -0.015735
   127  H   -0.020039
   128  H   -0.041628
   129  H   -0.040925
   130  H   -0.046151
   131  H   -0.034906
   132  H   -0.035872
   133  H   -0.031077
   134  H   -0.018754
   135  H   -0.025028
   136  H   -0.018299
   137  H   -0.014893
   138  H   -0.026595
   139  H   -0.017977
   140  H   -0.037119
 Sum of Mulliken charges =  -0.00000

 Dipole moment (field-independent basis, Debye):
    X=             -2.7057    Y=              2.1816    Z=             -3.8549  Tot=              5.1905
 Quadrupole moment (field-independent basis, Debye-Ang):
   XX=           -379.8194   YY=           -421.4185   ZZ=           -405.0326
   XY=             -3.3756   XZ=              0.2663   YZ=             -1.1272

 Normal termination of Gaussian 16 at Wed Apr 27 10:21:56 2022.
