 Gaussian 16, Revision A.03,
 Gaussian 16:  ES64L-G16RevA.03 25-Dec-2016

 -----------------------------------
 #p cam-b3lyp/Def2SVP td=(nstates=5)
 -----------------------------------

 -------------------------------------------------------
 step_1151_chromophore_1 TDDFT with cam-b3lyp functional
 -------------------------------------------------------
 Symbolic Z-matrix:
 Charge =  0 Multiplicity = 1

                         Standard orientation:
 ---------------------------------------------------------------------
 Center     Atomic      Atomic             Coordinates (Angstroms)
 Number     Number       Type             X           Y           Z
 ---------------------------------------------------------------------
      1         12           0        5.764724    0.510683    0.172914
      2          6           0        3.778479   -2.287661   -0.448120
      3          6           0        3.549283    2.499368   -1.212682
      4          6           0        8.055263    3.035628    0.476439
      5          6           0        8.478389   -1.699081    0.755121
      6          7           0        3.882979    0.192688   -0.611272
      7          6           0        3.193532   -1.013876   -0.759774
      8          6           0        1.887716   -0.867574   -1.521299
      9          6           0        2.049153    0.566171   -2.082333
     10          6           0        3.192043    1.190014   -1.180193
     11          6           0        2.565210    0.587750   -3.511908
     12          6           0        0.755663   -0.925010   -0.462234
     13          6           0       -0.618550   -1.319772   -1.093160
     14          6           0       -1.670625   -1.789914   -0.080226
     15          8           0       -1.536972   -1.658317    1.153157
     16          8           0       -2.794487   -2.340787   -0.677868
     17          7           0        5.725027    2.514365   -0.131751
     18          6           0        4.717784    3.184833   -0.737292
     19          6           0        5.075338    4.585564   -0.931804
     20          6           0        6.378461    4.796973   -0.383733
     21          6           0        6.739498    3.399180    0.044283
     22          6           0        4.097014    5.526971   -1.569041
     23          6           0        7.297195    6.048450   -0.371990
     24          8           0        8.521631    6.008076    0.099586
     25          6           0        6.659264    7.346048   -0.943020
     26          7           0        7.943213    0.620750    0.549332
     27          6           0        8.587147    1.790151    0.688112
     28          6           0       10.105201    1.573279    0.798946
     29          6           0       10.122108    0.138141    1.256591
     30          6           0        8.798380   -0.333664    0.806343
     31          6           0       10.964705    1.991896   -0.419080
     32          6           0       10.488067    0.016075    2.717937
     33          6           0        9.314039   -0.180837    3.755580
     34          7           0        6.155201   -1.544478    0.249259
     35          6           0        7.265615   -2.316602    0.432886
     36          6           0        6.918844   -3.717476    0.484988
     37          6           0        5.587440   -3.705926    0.141847
     38          6           0        5.126994   -2.411110   -0.032580
     39          6           0        7.722962   -4.988237    0.770485
     40          6           0        4.424266   -4.601955   -0.126293
     41          8           0        4.312557   -5.836498   -0.088551
     42          6           0        3.264436   -3.646330   -0.699822
     43          6           0        2.039313   -4.115897   -0.027728
     44          8           0        1.818043   -4.136302    1.176783
     45          8           0        1.236172   -4.691950   -0.958646
     46          6           0        0.053757   -5.374173   -0.570627
     47          6           0       -3.887775   -2.553925    0.257880
     48          6           0       -5.045492   -2.060810   -0.458091
     49          6           0       -6.293531   -2.543946   -0.706388
     50          6           0       -6.585137   -3.966656   -0.611102
     51          6           0       -7.316603   -1.726939   -1.361039
     52          6           0       -8.362819   -1.141294   -0.355125
     53          6           0       -7.789774    0.081562    0.452034
     54          6           0       -8.492875    1.389358    0.026561
     55          6           0       -7.400993    2.339443   -0.563716
     56          6           0       -9.107548    2.274156    1.235008
     57          6           0      -10.590853    2.084334    1.099238
     58          6           0      -11.323177    1.677320    2.444149
     59          6           0      -12.842430    1.988573    2.523615
     60          6           0      -13.332981    2.325862    3.931737
     61          6           0      -13.693027    0.898753    1.859130
     62          6           0      -14.836753    1.429410    0.990723
     63          6           0      -14.546808    1.859885   -0.460260
     64          6           0      -14.451454    0.551413   -1.203091
     65          6           0      -13.192914    0.581866   -2.102401
     66          6           0      -15.773069    0.284906   -2.050154
     67          1           0        2.851475    3.174492   -1.713518
     68          1           0        8.816980    3.817586    0.492513
     69          1           0        9.269247   -2.371882    1.095569
     70          1           0        1.760149   -1.585015   -2.331613
     71          1           0        1.070670    1.042066   -2.156888
     72          1           0        2.601188   -0.419198   -3.926226
     73          1           0        3.572263    0.980992   -3.654740
     74          1           0        1.994956    1.151895   -4.250049
     75          1           0        0.835856    0.056456    0.006268
     76          1           0        0.884909   -1.567532    0.407777
     77          1           0       -0.464356   -2.110507   -1.827125
     78          1           0       -1.035084   -0.467902   -1.631024
     79          1           0        3.813847    6.333253   -0.893189
     80          1           0        3.193065    5.008424   -1.891950
     81          1           0        4.464781    5.973413   -2.492465
     82          1           0        6.606108    7.264434   -2.028809
     83          1           0        7.249056    8.208765   -0.635390
     84          1           0        5.690812    7.509498   -0.470144
     85          1           0       10.369028    2.306660    1.561750
     86          1           0       10.938368   -0.374341    0.746665
     87          1           0       11.782948    1.414160   -0.848895
     88          1           0       11.497876    2.895041   -0.120033
     89          1           0       10.270273    2.293567   -1.202777
     90          1           0       11.110158    0.856600    3.027087
     91          1           0       11.225518   -0.774284    2.864339
     92          1           0        9.481910    0.384736    4.672419
     93          1           0        9.203566   -1.214204    4.082609
     94          1           0        8.395255    0.132883    3.259798
     95          1           0        8.700068   -4.802961    1.215790
     96          1           0        7.847902   -5.382898   -0.238026
     97          1           0        7.132776   -5.708325    1.338559
     98          1           0        3.138940   -3.834581   -1.765927
     99          1           0       -0.672033   -5.304226   -1.380473
    100          1           0       -0.341789   -4.929908    0.343087
    101          1           0        0.319703   -6.417084   -0.399847
    102          1           0       -3.863511   -1.954519    1.168186
    103          1           0       -3.930424   -3.627424    0.441992
    104          1           0       -4.895481   -1.015536   -0.727718
    105          1           0       -5.650131   -4.497175   -0.427327
    106          1           0       -7.150417   -4.273991   -1.490699
    107          1           0       -7.172907   -4.269141    0.255430
    108          1           0       -7.727639   -2.254117   -2.222009
    109          1           0       -6.799386   -0.832198   -1.706902
    110          1           0       -8.651112   -1.913457    0.358135
    111          1           0       -9.240563   -0.866998   -0.940681
    112          1           0       -6.717530    0.193747    0.286887
    113          1           0       -7.914050   -0.103676    1.518532
    114          1           0       -9.205264    1.286645   -0.791542
    115          1           0       -6.862746    2.699528    0.313107
    116          1           0       -7.847154    3.219472   -1.028654
    117          1           0       -6.747943    1.826715   -1.270397
    118          1           0       -8.810370    3.316958    1.125841
    119          1           0       -8.819442    1.987573    2.246667
    120          1           0      -10.816941    1.299092    0.378688
    121          1           0      -11.094276    2.983866    0.746348
    122          1           0      -10.803610    2.217501    3.235507
    123          1           0      -11.176317    0.596795    2.459991
    124          1           0      -13.072890    2.847506    1.893578
    125          1           0      -13.322559    3.405292    4.082169
    126          1           0      -12.629531    1.915310    4.655155
    127          1           0      -14.367283    2.002825    4.045674
    128          1           0      -14.140380    0.334032    2.676372
    129          1           0      -13.051690    0.271594    1.239128
    130          1           0      -15.463899    2.211677    1.417212
    131          1           0      -15.485252    0.553016    0.959806
    132          1           0      -13.602068    2.361486   -0.673237
    133          1           0      -15.311732    2.559455   -0.797121
    134          1           0      -14.366868   -0.375371   -0.637068
    135          1           0      -13.126463   -0.040414   -2.994664
    136          1           0      -12.360156    0.220421   -1.499139
    137          1           0      -12.952692    1.604325   -2.393719
    138          1           0      -16.148390   -0.733359   -1.955840
    139          1           0      -15.789566    0.588201   -3.096442
    140          1           0      -16.649174    0.821025   -1.685959
 ---------------------------------------------------------------------

 SCF Done:  E(RCAM-B3LYP) =  -3007.17238622     A.U. after   19 cycles

 Excitation energies and oscillator strengths:

 Excited State   1:      Singlet-A      1.7259 eV  718.39 nm  f=0.3972  <S**2>=0.000
     245 -> 248       -0.16941
     246 -> 247        0.68567
     245 <- 248       -0.10008
 This state for optimization and/or second-order correction.
 Total Energy, E(TD-HF/TD-DFT) =  -3007.10896172
 Copying the excited state density for this state as the 1-particle RhoCI density.

 Excited State   2:      Singlet-A      2.2493 eV  551.21 nm  f=0.1252  <S**2>=0.000
     245 -> 247        0.64210
     246 -> 248        0.27226

 Excited State   3:      Singlet-A      3.4180 eV  362.74 nm  f=0.0282  <S**2>=0.000
     243 -> 247        0.64903
     246 -> 248       -0.22630

 Excited State   4:      Singlet-A      3.4764 eV  356.65 nm  f=0.0020  <S**2>=0.000
     239 -> 247        0.40334
     239 -> 248        0.26097
     239 -> 249        0.34688
     239 -> 250        0.17853
     240 -> 247        0.19287
     240 -> 248        0.12413
     240 -> 249        0.16515

 Excited State   5:      Singlet-A      3.5353 eV  350.70 nm  f=0.4251  <S**2>=0.000
     241 -> 247        0.14595
     243 -> 247        0.20352
     245 -> 247       -0.23809
     246 -> 248        0.57684
     246 -> 249        0.11858

 The electronic state is 1-A.
 Alpha  occ. eigenvalues --  -46.88111 -19.25618 -19.24753 -19.20202 -19.19785
 Alpha  occ. eigenvalues --  -19.19534 -19.19107 -14.42505 -14.41496 -14.40081
 Alpha  occ. eigenvalues --  -14.38960 -10.40063 -10.38901 -10.36980 -10.35946
 Alpha  occ. eigenvalues --  -10.31935 -10.31744 -10.31155 -10.30945 -10.30384
 Alpha  occ. eigenvalues --  -10.30004 -10.29901 -10.29699 -10.29226 -10.28800
 Alpha  occ. eigenvalues --  -10.28616 -10.28495 -10.28474 -10.28326 -10.28242
 Alpha  occ. eigenvalues --  -10.28230 -10.28125 -10.27951 -10.27153 -10.26932
 Alpha  occ. eigenvalues --  -10.26830 -10.26594 -10.26555 -10.26489 -10.26455
 Alpha  occ. eigenvalues --  -10.26376 -10.26281 -10.25976 -10.25957 -10.25950
 Alpha  occ. eigenvalues --  -10.25908 -10.25878 -10.25503 -10.25463 -10.25454
 Alpha  occ. eigenvalues --  -10.25293 -10.25226 -10.25213 -10.25164 -10.25108
 Alpha  occ. eigenvalues --  -10.24863 -10.24682 -10.24658 -10.24653 -10.24626
 Alpha  occ. eigenvalues --  -10.24501 -10.24340 -10.24295 -10.24228 -10.24225
 Alpha  occ. eigenvalues --  -10.24180  -3.16851  -1.91753  -1.91288  -1.91182
 Alpha  occ. eigenvalues --   -1.16838  -1.16235  -1.09314  -1.07501  -1.07388
 Alpha  occ. eigenvalues --   -1.06024  -1.05616  -1.04472  -1.03739  -1.03093
 Alpha  occ. eigenvalues --   -0.93112  -0.91567  -0.90250  -0.90105  -0.89365
 Alpha  occ. eigenvalues --   -0.88996  -0.88440  -0.87506  -0.87467  -0.87156
 Alpha  occ. eigenvalues --   -0.86347  -0.86038  -0.84633  -0.84204  -0.83238
 Alpha  occ. eigenvalues --   -0.82551  -0.81875  -0.81546  -0.81246  -0.80502
 Alpha  occ. eigenvalues --   -0.80043  -0.78418  -0.78210  -0.77279  -0.76302
 Alpha  occ. eigenvalues --   -0.75938  -0.75681  -0.75455  -0.74821  -0.73965
 Alpha  occ. eigenvalues --   -0.73296  -0.72732  -0.71356  -0.70483  -0.70103
 Alpha  occ. eigenvalues --   -0.68408  -0.67631  -0.67222  -0.66775  -0.65779
 Alpha  occ. eigenvalues --   -0.65405  -0.65247  -0.65029  -0.64629  -0.64286
 Alpha  occ. eigenvalues --   -0.63922  -0.63490  -0.62091  -0.61788  -0.61046
 Alpha  occ. eigenvalues --   -0.60712  -0.60218  -0.59255  -0.58588  -0.58079
 Alpha  occ. eigenvalues --   -0.57674  -0.57527  -0.56745  -0.56224  -0.55963
 Alpha  occ. eigenvalues --   -0.55638  -0.55347  -0.55100  -0.54774  -0.54339
 Alpha  occ. eigenvalues --   -0.54002  -0.53478  -0.53196  -0.53137  -0.52962
 Alpha  occ. eigenvalues --   -0.52486  -0.52377  -0.52343  -0.51609  -0.51470
 Alpha  occ. eigenvalues --   -0.51246  -0.51113  -0.51018  -0.50765  -0.50492
 Alpha  occ. eigenvalues --   -0.50306  -0.50175  -0.49876  -0.49604  -0.49447
 Alpha  occ. eigenvalues --   -0.49351  -0.49247  -0.49161  -0.48999  -0.48895
 Alpha  occ. eigenvalues --   -0.48757  -0.48531  -0.47764  -0.47637  -0.47393
 Alpha  occ. eigenvalues --   -0.47170  -0.47096  -0.46933  -0.46583  -0.46555
 Alpha  occ. eigenvalues --   -0.46482  -0.46299  -0.46036  -0.45968  -0.45921
 Alpha  occ. eigenvalues --   -0.45436  -0.45381  -0.45282  -0.45126  -0.44969
 Alpha  occ. eigenvalues --   -0.44761  -0.44296  -0.44180  -0.44000  -0.43817
 Alpha  occ. eigenvalues --   -0.43792  -0.43631  -0.43604  -0.43385  -0.43064
 Alpha  occ. eigenvalues --   -0.42966  -0.42850  -0.42215  -0.42133  -0.42062
 Alpha  occ. eigenvalues --   -0.41646  -0.41585  -0.41319  -0.41199  -0.41175
 Alpha  occ. eigenvalues --   -0.41047  -0.40738  -0.40569  -0.40398  -0.40103
 Alpha  occ. eigenvalues --   -0.39927  -0.39652  -0.39586  -0.39251  -0.39240
 Alpha  occ. eigenvalues --   -0.39027  -0.38456  -0.38088  -0.37881  -0.37258
 Alpha  occ. eigenvalues --   -0.37001  -0.36783  -0.36750  -0.36581  -0.36319
 Alpha  occ. eigenvalues --   -0.35975  -0.35778  -0.34745  -0.34673  -0.34517
 Alpha  occ. eigenvalues --   -0.34079  -0.33668  -0.32981  -0.31433  -0.31348
 Alpha  occ. eigenvalues --   -0.31168  -0.30574  -0.29909  -0.29376  -0.23987
 Alpha  occ. eigenvalues --   -0.21175
 Alpha virt. eigenvalues --   -0.08624  -0.01623  -0.00276   0.01794   0.03260
 Alpha virt. eigenvalues --    0.03951   0.05099   0.05397   0.05662   0.06878
 Alpha virt. eigenvalues --    0.07518   0.08015   0.08509   0.08599   0.09075

 Mulliken charges:
               1
     1  Mg   0.856437
     2  C   -0.007341
     3  C   -0.074484
     4  C   -0.064613
     5  C   -0.085254
     6  N   -0.333148
     7  C    0.022764
     8  C   -0.040534
     9  C   -0.046825
    10  C    0.079394
    11  C    0.058303
    12  C    0.025501
    13  C    0.067484
    14  C    0.187244
    15  O   -0.251290
    16  O   -0.340699
    17  N   -0.362062
    18  C    0.123780
    19  C   -0.133275
    20  C   -0.050725
    21  C    0.103091
    22  C    0.107111
    23  C    0.062925
    24  O   -0.269370
    25  C    0.041095
    26  N   -0.196376
    27  C   -0.006034
    28  C   -0.049045
    29  C    0.036186
    30  C    0.001591
    31  C    0.073169
    32  C    0.020975
    33  C    0.008320
    34  N   -0.354970
    35  C    0.116792
    36  C   -0.191405
    37  C    0.020122
    38  C    0.106737
    39  C    0.129992
    40  C    0.082317
    41  O   -0.184862
    42  C   -0.007139
    43  C    0.174866
    44  O   -0.216494
    45  O   -0.319676
    46  C    0.163568
    47  C    0.311795
    48  C   -0.123060
    49  C   -0.190291
    50  C    0.111366
    51  C    0.079719
    52  C    0.019213
    53  C    0.090018
    54  C   -0.167240
    55  C    0.021419
    56  C    0.082409
    57  C   -0.018922
    58  C    0.029893
    59  C   -0.127103
    60  C    0.073010
    61  C    0.077023
    62  C   -0.016967
    63  C    0.100987
    64  C   -0.158219
    65  C    0.033399
    66  C    0.030451
    67  H   -0.043627
    68  H   -0.004516
    69  H   -0.037038
    70  H    0.009882
    71  H   -0.000900
    72  H    0.001863
    73  H    0.024533
    74  H    0.010538
    75  H    0.010139
    76  H    0.051147
    77  H    0.029952
    78  H    0.032597
    79  H    0.033475
    80  H    0.002953
    81  H    0.019444
    82  H    0.052874
    83  H    0.031441
    84  H    0.034927
    85  H    0.010257
    86  H   -0.007816
    87  H    0.018544
    88  H    0.011874
    89  H    0.020136
    90  H   -0.001445
    91  H   -0.007419
    92  H    0.015460
    93  H    0.016573
    94  H    0.029687
    95  H    0.016280
    96  H    0.036279
    97  H    0.047233
    98  H    0.044386
    99  H    0.033996
   100  H    0.047494
   101  H    0.041498
   102  H    0.055064
   103  H    0.009716
   104  H   -0.017139
   105  H   -0.001660
   106  H    0.015398
   107  H    0.012422
   108  H    0.004506
   109  H   -0.013321
   110  H   -0.006660
   111  H    0.007131
   112  H   -0.008157
   113  H   -0.006646
   114  H    0.013474
   115  H    0.009273
   116  H    0.005037
   117  H    0.003686
   118  H   -0.003808
   119  H   -0.000827
   120  H    0.003687
   121  H   -0.006950
   122  H   -0.006628
   123  H   -0.002044
   124  H   -0.014585
   125  H    0.002315
   126  H    0.008644
   127  H    0.004103
   128  H   -0.010535
   129  H   -0.014262
   130  H   -0.016259
   131  H   -0.005940
   132  H   -0.008594
   133  H    0.000438
   134  H    0.011908
   135  H    0.001740
   136  H    0.000518
   137  H    0.007552
   138  H   -0.001831
   139  H    0.006309
   140  H   -0.012822
 Sum of Mulliken charges =  -0.00000

 Dipole moment (field-independent basis, Debye):
    X=             -2.7238    Y=              2.3832    Z=             -4.1433  Tot=              5.5015
 Quadrupole moment (field-independent basis, Debye-Ang):
   XX=           -376.8082   YY=           -416.8230   ZZ=           -404.8487
   XY=             -3.2120   XZ=              0.5637   YZ=             -2.0536

 Normal termination of Gaussian 16 at Wed Apr 27 09:20:43 2022.
