 Gaussian 16, Revision A.03,
 Gaussian 16:  ES64L-G16RevA.03 25-Dec-2016

 ---------------------------------
 #p PBE1PBE/Def2SVP td=(nstates=5)
 ---------------------------------

 -----------------------------------------------------
 step_1151_chromophore_1 TDDFT with PBE1PBE functional
 -----------------------------------------------------
 Symbolic Z-matrix:
 Charge =  0 Multiplicity = 1

                         Standard orientation:
 ---------------------------------------------------------------------
 Center     Atomic      Atomic             Coordinates (Angstroms)
 Number     Number       Type             X           Y           Z
 ---------------------------------------------------------------------
      1         12           0        5.764724    0.510683    0.172914
      2          6           0        3.778479   -2.287661   -0.448120
      3          6           0        3.549283    2.499368   -1.212682
      4          6           0        8.055263    3.035628    0.476439
      5          6           0        8.478389   -1.699081    0.755121
      6          7           0        3.882979    0.192688   -0.611272
      7          6           0        3.193532   -1.013876   -0.759774
      8          6           0        1.887716   -0.867574   -1.521299
      9          6           0        2.049153    0.566171   -2.082333
     10          6           0        3.192043    1.190014   -1.180193
     11          6           0        2.565210    0.587750   -3.511908
     12          6           0        0.755663   -0.925010   -0.462234
     13          6           0       -0.618550   -1.319772   -1.093160
     14          6           0       -1.670625   -1.789914   -0.080226
     15          8           0       -1.536972   -1.658317    1.153157
     16          8           0       -2.794487   -2.340787   -0.677868
     17          7           0        5.725027    2.514365   -0.131751
     18          6           0        4.717784    3.184833   -0.737292
     19          6           0        5.075338    4.585564   -0.931804
     20          6           0        6.378461    4.796973   -0.383733
     21          6           0        6.739498    3.399180    0.044283
     22          6           0        4.097014    5.526971   -1.569041
     23          6           0        7.297195    6.048450   -0.371990
     24          8           0        8.521631    6.008076    0.099586
     25          6           0        6.659264    7.346048   -0.943020
     26          7           0        7.943213    0.620750    0.549332
     27          6           0        8.587147    1.790151    0.688112
     28          6           0       10.105201    1.573279    0.798946
     29          6           0       10.122108    0.138141    1.256591
     30          6           0        8.798380   -0.333664    0.806343
     31          6           0       10.964705    1.991896   -0.419080
     32          6           0       10.488067    0.016075    2.717937
     33          6           0        9.314039   -0.180837    3.755580
     34          7           0        6.155201   -1.544478    0.249259
     35          6           0        7.265615   -2.316602    0.432886
     36          6           0        6.918844   -3.717476    0.484988
     37          6           0        5.587440   -3.705926    0.141847
     38          6           0        5.126994   -2.411110   -0.032580
     39          6           0        7.722962   -4.988237    0.770485
     40          6           0        4.424266   -4.601955   -0.126293
     41          8           0        4.312557   -5.836498   -0.088551
     42          6           0        3.264436   -3.646330   -0.699822
     43          6           0        2.039313   -4.115897   -0.027728
     44          8           0        1.818043   -4.136302    1.176783
     45          8           0        1.236172   -4.691950   -0.958646
     46          6           0        0.053757   -5.374173   -0.570627
     47          6           0       -3.887775   -2.553925    0.257880
     48          6           0       -5.045492   -2.060810   -0.458091
     49          6           0       -6.293531   -2.543946   -0.706388
     50          6           0       -6.585137   -3.966656   -0.611102
     51          6           0       -7.316603   -1.726939   -1.361039
     52          6           0       -8.362819   -1.141294   -0.355125
     53          6           0       -7.789774    0.081562    0.452034
     54          6           0       -8.492875    1.389358    0.026561
     55          6           0       -7.400993    2.339443   -0.563716
     56          6           0       -9.107548    2.274156    1.235008
     57          6           0      -10.590853    2.084334    1.099238
     58          6           0      -11.323177    1.677320    2.444149
     59          6           0      -12.842430    1.988573    2.523615
     60          6           0      -13.332981    2.325862    3.931737
     61          6           0      -13.693027    0.898753    1.859130
     62          6           0      -14.836753    1.429410    0.990723
     63          6           0      -14.546808    1.859885   -0.460260
     64          6           0      -14.451454    0.551413   -1.203091
     65          6           0      -13.192914    0.581866   -2.102401
     66          6           0      -15.773069    0.284906   -2.050154
     67          1           0        2.851475    3.174492   -1.713518
     68          1           0        8.816980    3.817586    0.492513
     69          1           0        9.269247   -2.371882    1.095569
     70          1           0        1.760149   -1.585015   -2.331613
     71          1           0        1.070670    1.042066   -2.156888
     72          1           0        2.601188   -0.419198   -3.926226
     73          1           0        3.572263    0.980992   -3.654740
     74          1           0        1.994956    1.151895   -4.250049
     75          1           0        0.835856    0.056456    0.006268
     76          1           0        0.884909   -1.567532    0.407777
     77          1           0       -0.464356   -2.110507   -1.827125
     78          1           0       -1.035084   -0.467902   -1.631024
     79          1           0        3.813847    6.333253   -0.893189
     80          1           0        3.193065    5.008424   -1.891950
     81          1           0        4.464781    5.973413   -2.492465
     82          1           0        6.606108    7.264434   -2.028809
     83          1           0        7.249056    8.208765   -0.635390
     84          1           0        5.690812    7.509498   -0.470144
     85          1           0       10.369028    2.306660    1.561750
     86          1           0       10.938368   -0.374341    0.746665
     87          1           0       11.782948    1.414160   -0.848895
     88          1           0       11.497876    2.895041   -0.120033
     89          1           0       10.270273    2.293567   -1.202777
     90          1           0       11.110158    0.856600    3.027087
     91          1           0       11.225518   -0.774284    2.864339
     92          1           0        9.481910    0.384736    4.672419
     93          1           0        9.203566   -1.214204    4.082609
     94          1           0        8.395255    0.132883    3.259798
     95          1           0        8.700068   -4.802961    1.215790
     96          1           0        7.847902   -5.382898   -0.238026
     97          1           0        7.132776   -5.708325    1.338559
     98          1           0        3.138940   -3.834581   -1.765927
     99          1           0       -0.672033   -5.304226   -1.380473
    100          1           0       -0.341789   -4.929908    0.343087
    101          1           0        0.319703   -6.417084   -0.399847
    102          1           0       -3.863511   -1.954519    1.168186
    103          1           0       -3.930424   -3.627424    0.441992
    104          1           0       -4.895481   -1.015536   -0.727718
    105          1           0       -5.650131   -4.497175   -0.427327
    106          1           0       -7.150417   -4.273991   -1.490699
    107          1           0       -7.172907   -4.269141    0.255430
    108          1           0       -7.727639   -2.254117   -2.222009
    109          1           0       -6.799386   -0.832198   -1.706902
    110          1           0       -8.651112   -1.913457    0.358135
    111          1           0       -9.240563   -0.866998   -0.940681
    112          1           0       -6.717530    0.193747    0.286887
    113          1           0       -7.914050   -0.103676    1.518532
    114          1           0       -9.205264    1.286645   -0.791542
    115          1           0       -6.862746    2.699528    0.313107
    116          1           0       -7.847154    3.219472   -1.028654
    117          1           0       -6.747943    1.826715   -1.270397
    118          1           0       -8.810370    3.316958    1.125841
    119          1           0       -8.819442    1.987573    2.246667
    120          1           0      -10.816941    1.299092    0.378688
    121          1           0      -11.094276    2.983866    0.746348
    122          1           0      -10.803610    2.217501    3.235507
    123          1           0      -11.176317    0.596795    2.459991
    124          1           0      -13.072890    2.847506    1.893578
    125          1           0      -13.322559    3.405292    4.082169
    126          1           0      -12.629531    1.915310    4.655155
    127          1           0      -14.367283    2.002825    4.045674
    128          1           0      -14.140380    0.334032    2.676372
    129          1           0      -13.051690    0.271594    1.239128
    130          1           0      -15.463899    2.211677    1.417212
    131          1           0      -15.485252    0.553016    0.959806
    132          1           0      -13.602068    2.361486   -0.673237
    133          1           0      -15.311732    2.559455   -0.797121
    134          1           0      -14.366868   -0.375371   -0.637068
    135          1           0      -13.126463   -0.040414   -2.994664
    136          1           0      -12.360156    0.220421   -1.499139
    137          1           0      -12.952692    1.604325   -2.393719
    138          1           0      -16.148390   -0.733359   -1.955840
    139          1           0      -15.789566    0.588201   -3.096442
    140          1           0      -16.649174    0.821025   -1.685959
 ---------------------------------------------------------------------

 SCF Done:  E(RPBE1PBE) =  -3005.36314198     A.U. after   16 cycles

 Excitation energies and oscillator strengths:

 Excited State   1:      Singlet-A      1.8721 eV  662.27 nm  f=0.3867  <S**2>=0.000
     245 -> 248       -0.14345
     246 -> 247        0.69316
     246 <- 247       -0.10703
 This state for optimization and/or second-order correction.
 Total Energy, E(TD-HF/TD-DFT) =  -3005.29434299
 Copying the excited state density for this state as the 1-particle RhoCI density.

 Excited State   2:      Singlet-A      2.2412 eV  553.22 nm  f=0.1232  <S**2>=0.000
     245 -> 247        0.65516
     246 -> 248        0.21516
     246 -> 249       -0.13920

 Excited State   3:      Singlet-A      3.0897 eV  401.29 nm  f=0.0004  <S**2>=0.000
     242 -> 247        0.32195
     243 -> 247        0.60183

 Excited State   4:      Singlet-A      3.1244 eV  396.83 nm  f=0.0001  <S**2>=0.000
     240 -> 247        0.13013
     241 -> 247        0.61189
     241 -> 248        0.23986
     241 -> 249        0.17162

 Excited State   5:      Singlet-A      3.1381 eV  395.09 nm  f=0.0060  <S**2>=0.000
     242 -> 247        0.56415
     242 -> 249       -0.11083
     242 -> 250        0.10771
     243 -> 247       -0.32237
     246 -> 248        0.18541

 The electronic state is 1-A.
 Alpha  occ. eigenvalues --  -46.91544 -19.26331 -19.25359 -19.20526 -19.19931
 Alpha  occ. eigenvalues --  -19.19872 -19.19277 -14.42112 -14.40900 -14.39771
 Alpha  occ. eigenvalues --  -14.38602 -10.37122 -10.35848 -10.34229 -10.33073
 Alpha  occ. eigenvalues --  -10.29620 -10.29132 -10.28779 -10.28320 -10.28248
 Alpha  occ. eigenvalues --  -10.27776 -10.27628 -10.27287 -10.27048 -10.26452
 Alpha  occ. eigenvalues --  -10.26360 -10.26339 -10.26142 -10.25972 -10.25960
 Alpha  occ. eigenvalues --  -10.25841 -10.25782 -10.25762 -10.24467 -10.24461
 Alpha  occ. eigenvalues --  -10.24453 -10.24335 -10.24307 -10.24080 -10.24053
 Alpha  occ. eigenvalues --  -10.23920 -10.23864 -10.23724 -10.23657 -10.23591
 Alpha  occ. eigenvalues --  -10.23503 -10.23384 -10.23102 -10.23059 -10.22822
 Alpha  occ. eigenvalues --  -10.22812 -10.22810 -10.22779 -10.22752 -10.22500
 Alpha  occ. eigenvalues --  -10.22461 -10.22323 -10.22234 -10.22205 -10.22191
 Alpha  occ. eigenvalues --  -10.22037 -10.21759 -10.21746 -10.21730 -10.21640
 Alpha  occ. eigenvalues --  -10.21555  -3.13858  -1.86702  -1.86216  -1.86113
 Alpha  occ. eigenvalues --   -1.11578  -1.11062  -1.03964  -1.02258  -1.02245
 Alpha  occ. eigenvalues --   -1.00654  -1.00346  -0.99107  -0.98436  -0.97817
 Alpha  occ. eigenvalues --   -0.87420  -0.85722  -0.84385  -0.84309  -0.83677
 Alpha  occ. eigenvalues --   -0.83113  -0.82810  -0.81837  -0.81592  -0.81509
 Alpha  occ. eigenvalues --   -0.80631  -0.80285  -0.78892  -0.78445  -0.77469
 Alpha  occ. eigenvalues --   -0.76784  -0.76086  -0.75826  -0.75443  -0.74803
 Alpha  occ. eigenvalues --   -0.74199  -0.72691  -0.72530  -0.71571  -0.70598
 Alpha  occ. eigenvalues --   -0.70107  -0.69822  -0.69751  -0.68958  -0.68133
 Alpha  occ. eigenvalues --   -0.67687  -0.67087  -0.65805  -0.64790  -0.64422
 Alpha  occ. eigenvalues --   -0.62839  -0.61881  -0.61723  -0.61070  -0.60224
 Alpha  occ. eigenvalues --   -0.59880  -0.59595  -0.59392  -0.58817  -0.58761
 Alpha  occ. eigenvalues --   -0.58229  -0.57909  -0.56623  -0.55963  -0.55523
 Alpha  occ. eigenvalues --   -0.55044  -0.54837  -0.53848  -0.53154  -0.52529
 Alpha  occ. eigenvalues --   -0.52120  -0.52046  -0.51226  -0.50722  -0.50479
 Alpha  occ. eigenvalues --   -0.50098  -0.49931  -0.49580  -0.49374  -0.48926
 Alpha  occ. eigenvalues --   -0.48358  -0.47970  -0.47843  -0.47578  -0.47525
 Alpha  occ. eigenvalues --   -0.47132  -0.46823  -0.46742  -0.46131  -0.46101
 Alpha  occ. eigenvalues --   -0.45849  -0.45612  -0.45529  -0.45346  -0.45068
 Alpha  occ. eigenvalues --   -0.44849  -0.44722  -0.44472  -0.44133  -0.44025
 Alpha  occ. eigenvalues --   -0.43924  -0.43778  -0.43741  -0.43644  -0.43544
 Alpha  occ. eigenvalues --   -0.43313  -0.43138  -0.42461  -0.42283  -0.42051
 Alpha  occ. eigenvalues --   -0.41821  -0.41791  -0.41647  -0.41306  -0.41205
 Alpha  occ. eigenvalues --   -0.41127  -0.40905  -0.40729  -0.40706  -0.40468
 Alpha  occ. eigenvalues --   -0.40213  -0.40065  -0.40032  -0.39867  -0.39554
 Alpha  occ. eigenvalues --   -0.39418  -0.39051  -0.38908  -0.38776  -0.38650
 Alpha  occ. eigenvalues --   -0.38612  -0.38421  -0.38328  -0.38178  -0.37926
 Alpha  occ. eigenvalues --   -0.37668  -0.37640  -0.37079  -0.36929  -0.36848
 Alpha  occ. eigenvalues --   -0.36469  -0.36326  -0.36089  -0.35994  -0.35930
 Alpha  occ. eigenvalues --   -0.35865  -0.35606  -0.35403  -0.35156  -0.35055
 Alpha  occ. eigenvalues --   -0.34673  -0.34475  -0.34468  -0.34154  -0.33963
 Alpha  occ. eigenvalues --   -0.33809  -0.33426  -0.32915  -0.32855  -0.32111
 Alpha  occ. eigenvalues --   -0.31993  -0.31824  -0.31623  -0.31589  -0.31210
 Alpha  occ. eigenvalues --   -0.30896  -0.30571  -0.29705  -0.29556  -0.29487
 Alpha  occ. eigenvalues --   -0.29117  -0.28667  -0.28353  -0.26989  -0.26298
 Alpha  occ. eigenvalues --   -0.26220  -0.26018  -0.25453  -0.24760  -0.20920
 Alpha  occ. eigenvalues --   -0.18802
 Alpha virt. eigenvalues --   -0.11127  -0.05339  -0.04393  -0.02564  -0.00603
 Alpha virt. eigenvalues --    0.00499   0.00819   0.01196   0.01231   0.02930
 Alpha virt. eigenvalues --    0.03392   0.04227   0.04707   0.05291   0.05744

 Mulliken charges:
               1
     1  Mg   1.008704
     2  C    0.004423
     3  C   -0.076982
     4  C   -0.055780
     5  C   -0.069500
     6  N   -0.441039
     7  C    0.095645
     8  C   -0.121008
     9  C   -0.125395
    10  C    0.110375
    11  C    0.009837
    12  C   -0.014041
    13  C   -0.007481
    14  C    0.252397
    15  O   -0.282031
    16  O   -0.369279
    17  N   -0.484407
    18  C    0.158510
    19  C   -0.171604
    20  C   -0.077414
    21  C    0.133129
    22  C    0.048765
    23  C    0.101937
    24  O   -0.303114
    25  C   -0.029196
    26  N   -0.306853
    27  C    0.032053
    28  C   -0.127265
    29  C   -0.043707
    30  C    0.035789
    31  C    0.017767
    32  C   -0.030490
    33  C   -0.068499
    34  N   -0.477984
    35  C    0.134374
    36  C   -0.206600
    37  C   -0.033453
    38  C    0.148878
    39  C    0.076366
    40  C    0.179633
    41  O   -0.229166
    42  C   -0.132908
    43  C    0.274015
    44  O   -0.254169
    45  O   -0.355696
    46  C    0.111785
    47  C    0.262349
    48  C   -0.138460
    49  C   -0.223516
    50  C    0.052234
    51  C    0.002831
    52  C   -0.044841
    53  C    0.042177
    54  C   -0.256949
    55  C   -0.046175
    56  C    0.035089
    57  C   -0.083422
    58  C   -0.032416
    59  C   -0.206448
    60  C    0.010595
    61  C    0.025217
    62  C   -0.093117
    63  C    0.052737
    64  C   -0.256533
    65  C   -0.030184
    66  C   -0.023123
    67  H   -0.008364
    68  H    0.026985
    69  H   -0.004768
    70  H    0.044138
    71  H    0.035103
    72  H    0.030072
    73  H    0.052597
    74  H    0.037892
    75  H    0.042687
    76  H    0.084065
    77  H    0.061755
    78  H    0.064154
    79  H    0.061432
    80  H    0.031479
    81  H    0.048233
    82  H    0.078892
    83  H    0.058785
    84  H    0.061137
    85  H    0.047443
    86  H    0.030517
    87  H    0.045351
    88  H    0.038807
    89  H    0.048764
    90  H    0.030506
    91  H    0.024860
    92  H    0.043324
    93  H    0.044409
    94  H    0.061744
    95  H    0.042532
    96  H    0.064359
    97  H    0.073022
    98  H    0.081228
    99  H    0.054916
   100  H    0.068237
   101  H    0.063672
   102  H    0.082821
   103  H    0.037020
   104  H    0.012494
   105  H    0.026757
   106  H    0.041855
   107  H    0.040464
   108  H    0.035730
   109  H    0.024305
   110  H    0.027515
   111  H    0.039355
   112  H    0.025693
   113  H    0.025770
   114  H    0.048985
   115  H    0.038990
   116  H    0.034711
   117  H    0.032650
   118  H    0.028485
   119  H    0.029900
   120  H    0.041391
   121  H    0.025835
   122  H    0.026504
   123  H    0.032102
   124  H    0.025438
   125  H    0.030694
   126  H    0.036130
   127  H    0.031257
   128  H    0.022722
   129  H    0.019041
   130  H    0.016327
   131  H    0.029420
   132  H    0.023775
   133  H    0.031856
   134  H    0.047869
   135  H    0.029580
   136  H    0.031276
   137  H    0.034837
   138  H    0.025620
   139  H    0.033048
   140  H    0.014446
 Sum of Mulliken charges =  -0.00000

 Dipole moment (field-independent basis, Debye):
    X=             -2.7508    Y=              2.5686    Z=             -4.1894  Tot=              5.6316
 Quadrupole moment (field-independent basis, Debye-Ang):
   XX=           -371.3510   YY=           -414.1917   ZZ=           -401.9913
   XY=             -2.5654   XZ=              1.1777   YZ=             -2.3581

 Normal termination of Gaussian 16 at Wed Apr 27 09:39:27 2022.
