 Gaussian 16, Revision A.03,
 Gaussian 16:  ES64L-G16RevA.03 25-Dec-2016

 --------------------------------
 #p wB97XD/Def2SVP td=(nstates=5)
 --------------------------------

 ----------------------------------------------------
 step_1151_chromophore_1 TDDFT with wB97XD functional
 ----------------------------------------------------
 Symbolic Z-matrix:
 Charge =  0 Multiplicity = 1

                         Standard orientation:
 ---------------------------------------------------------------------
 Center     Atomic      Atomic             Coordinates (Angstroms)
 Number     Number       Type             X           Y           Z
 ---------------------------------------------------------------------
      1         12           0        5.764724    0.510683    0.172914
      2          6           0        3.778479   -2.287661   -0.448120
      3          6           0        3.549283    2.499368   -1.212682
      4          6           0        8.055263    3.035628    0.476439
      5          6           0        8.478389   -1.699081    0.755121
      6          7           0        3.882979    0.192688   -0.611272
      7          6           0        3.193532   -1.013876   -0.759774
      8          6           0        1.887716   -0.867574   -1.521299
      9          6           0        2.049153    0.566171   -2.082333
     10          6           0        3.192043    1.190014   -1.180193
     11          6           0        2.565210    0.587750   -3.511908
     12          6           0        0.755663   -0.925010   -0.462234
     13          6           0       -0.618550   -1.319772   -1.093160
     14          6           0       -1.670625   -1.789914   -0.080226
     15          8           0       -1.536972   -1.658317    1.153157
     16          8           0       -2.794487   -2.340787   -0.677868
     17          7           0        5.725027    2.514365   -0.131751
     18          6           0        4.717784    3.184833   -0.737292
     19          6           0        5.075338    4.585564   -0.931804
     20          6           0        6.378461    4.796973   -0.383733
     21          6           0        6.739498    3.399180    0.044283
     22          6           0        4.097014    5.526971   -1.569041
     23          6           0        7.297195    6.048450   -0.371990
     24          8           0        8.521631    6.008076    0.099586
     25          6           0        6.659264    7.346048   -0.943020
     26          7           0        7.943213    0.620750    0.549332
     27          6           0        8.587147    1.790151    0.688112
     28          6           0       10.105201    1.573279    0.798946
     29          6           0       10.122108    0.138141    1.256591
     30          6           0        8.798380   -0.333664    0.806343
     31          6           0       10.964705    1.991896   -0.419080
     32          6           0       10.488067    0.016075    2.717937
     33          6           0        9.314039   -0.180837    3.755580
     34          7           0        6.155201   -1.544478    0.249259
     35          6           0        7.265615   -2.316602    0.432886
     36          6           0        6.918844   -3.717476    0.484988
     37          6           0        5.587440   -3.705926    0.141847
     38          6           0        5.126994   -2.411110   -0.032580
     39          6           0        7.722962   -4.988237    0.770485
     40          6           0        4.424266   -4.601955   -0.126293
     41          8           0        4.312557   -5.836498   -0.088551
     42          6           0        3.264436   -3.646330   -0.699822
     43          6           0        2.039313   -4.115897   -0.027728
     44          8           0        1.818043   -4.136302    1.176783
     45          8           0        1.236172   -4.691950   -0.958646
     46          6           0        0.053757   -5.374173   -0.570627
     47          6           0       -3.887775   -2.553925    0.257880
     48          6           0       -5.045492   -2.060810   -0.458091
     49          6           0       -6.293531   -2.543946   -0.706388
     50          6           0       -6.585137   -3.966656   -0.611102
     51          6           0       -7.316603   -1.726939   -1.361039
     52          6           0       -8.362819   -1.141294   -0.355125
     53          6           0       -7.789774    0.081562    0.452034
     54          6           0       -8.492875    1.389358    0.026561
     55          6           0       -7.400993    2.339443   -0.563716
     56          6           0       -9.107548    2.274156    1.235008
     57          6           0      -10.590853    2.084334    1.099238
     58          6           0      -11.323177    1.677320    2.444149
     59          6           0      -12.842430    1.988573    2.523615
     60          6           0      -13.332981    2.325862    3.931737
     61          6           0      -13.693027    0.898753    1.859130
     62          6           0      -14.836753    1.429410    0.990723
     63          6           0      -14.546808    1.859885   -0.460260
     64          6           0      -14.451454    0.551413   -1.203091
     65          6           0      -13.192914    0.581866   -2.102401
     66          6           0      -15.773069    0.284906   -2.050154
     67          1           0        2.851475    3.174492   -1.713518
     68          1           0        8.816980    3.817586    0.492513
     69          1           0        9.269247   -2.371882    1.095569
     70          1           0        1.760149   -1.585015   -2.331613
     71          1           0        1.070670    1.042066   -2.156888
     72          1           0        2.601188   -0.419198   -3.926226
     73          1           0        3.572263    0.980992   -3.654740
     74          1           0        1.994956    1.151895   -4.250049
     75          1           0        0.835856    0.056456    0.006268
     76          1           0        0.884909   -1.567532    0.407777
     77          1           0       -0.464356   -2.110507   -1.827125
     78          1           0       -1.035084   -0.467902   -1.631024
     79          1           0        3.813847    6.333253   -0.893189
     80          1           0        3.193065    5.008424   -1.891950
     81          1           0        4.464781    5.973413   -2.492465
     82          1           0        6.606108    7.264434   -2.028809
     83          1           0        7.249056    8.208765   -0.635390
     84          1           0        5.690812    7.509498   -0.470144
     85          1           0       10.369028    2.306660    1.561750
     86          1           0       10.938368   -0.374341    0.746665
     87          1           0       11.782948    1.414160   -0.848895
     88          1           0       11.497876    2.895041   -0.120033
     89          1           0       10.270273    2.293567   -1.202777
     90          1           0       11.110158    0.856600    3.027087
     91          1           0       11.225518   -0.774284    2.864339
     92          1           0        9.481910    0.384736    4.672419
     93          1           0        9.203566   -1.214204    4.082609
     94          1           0        8.395255    0.132883    3.259798
     95          1           0        8.700068   -4.802961    1.215790
     96          1           0        7.847902   -5.382898   -0.238026
     97          1           0        7.132776   -5.708325    1.338559
     98          1           0        3.138940   -3.834581   -1.765927
     99          1           0       -0.672033   -5.304226   -1.380473
    100          1           0       -0.341789   -4.929908    0.343087
    101          1           0        0.319703   -6.417084   -0.399847
    102          1           0       -3.863511   -1.954519    1.168186
    103          1           0       -3.930424   -3.627424    0.441992
    104          1           0       -4.895481   -1.015536   -0.727718
    105          1           0       -5.650131   -4.497175   -0.427327
    106          1           0       -7.150417   -4.273991   -1.490699
    107          1           0       -7.172907   -4.269141    0.255430
    108          1           0       -7.727639   -2.254117   -2.222009
    109          1           0       -6.799386   -0.832198   -1.706902
    110          1           0       -8.651112   -1.913457    0.358135
    111          1           0       -9.240563   -0.866998   -0.940681
    112          1           0       -6.717530    0.193747    0.286887
    113          1           0       -7.914050   -0.103676    1.518532
    114          1           0       -9.205264    1.286645   -0.791542
    115          1           0       -6.862746    2.699528    0.313107
    116          1           0       -7.847154    3.219472   -1.028654
    117          1           0       -6.747943    1.826715   -1.270397
    118          1           0       -8.810370    3.316958    1.125841
    119          1           0       -8.819442    1.987573    2.246667
    120          1           0      -10.816941    1.299092    0.378688
    121          1           0      -11.094276    2.983866    0.746348
    122          1           0      -10.803610    2.217501    3.235507
    123          1           0      -11.176317    0.596795    2.459991
    124          1           0      -13.072890    2.847506    1.893578
    125          1           0      -13.322559    3.405292    4.082169
    126          1           0      -12.629531    1.915310    4.655155
    127          1           0      -14.367283    2.002825    4.045674
    128          1           0      -14.140380    0.334032    2.676372
    129          1           0      -13.051690    0.271594    1.239128
    130          1           0      -15.463899    2.211677    1.417212
    131          1           0      -15.485252    0.553016    0.959806
    132          1           0      -13.602068    2.361486   -0.673237
    133          1           0      -15.311732    2.559455   -0.797121
    134          1           0      -14.366868   -0.375371   -0.637068
    135          1           0      -13.126463   -0.040414   -2.994664
    136          1           0      -12.360156    0.220421   -1.499139
    137          1           0      -12.952692    1.604325   -2.393719
    138          1           0      -16.148390   -0.733359   -1.955840
    139          1           0      -15.789566    0.588201   -3.096442
    140          1           0      -16.649174    0.821025   -1.685959
 ---------------------------------------------------------------------

 SCF Done:  E(RwB97XD) =  -3007.87268503     A.U. after   19 cycles

 Excitation energies and oscillator strengths:

 Excited State   1:      Singlet-A      1.6705 eV  742.19 nm  f=0.3955  <S**2>=0.000
     245 -> 248       -0.17701
     246 -> 247        0.68325
     245 <- 248       -0.11007
 This state for optimization and/or second-order correction.
 Total Energy, E(TD-HF/TD-DFT) =  -3007.81129443
 Copying the excited state density for this state as the 1-particle RhoCI density.

 Excited State   2:      Singlet-A      2.1950 eV  564.85 nm  f=0.1213  <S**2>=0.000
     245 -> 247        0.64000
     246 -> 248        0.27759

 Excited State   3:      Singlet-A      3.4229 eV  362.22 nm  f=0.0328  <S**2>=0.000
     243 -> 247        0.64028
     246 -> 248       -0.23423

 Excited State   4:      Singlet-A      3.4924 eV  355.01 nm  f=0.0011  <S**2>=0.000
     240 -> 247        0.42626
     240 -> 248        0.27604
     240 -> 249        0.40629
     240 -> 250        0.20238

 Excited State   5:      Singlet-A      3.5711 eV  347.19 nm  f=0.4716  <S**2>=0.000
     241 -> 247        0.20897
     241 -> 250        0.11594
     243 -> 247        0.20026
     245 -> 247       -0.24302
     246 -> 248        0.55580

 The electronic state is 1-A.
 Alpha  occ. eigenvalues --  -46.94456 -19.30870 -19.29975 -19.25143 -19.24873
 Alpha  occ. eigenvalues --  -19.24602 -19.24061 -14.47094 -14.46087 -14.44661
 Alpha  occ. eigenvalues --  -14.43586 -10.43883 -10.42754 -10.41003 -10.40026
 Alpha  occ. eigenvalues --  -10.36028 -10.35616 -10.34947 -10.34859 -10.34385
 Alpha  occ. eigenvalues --  -10.33996 -10.33893 -10.33747 -10.33198 -10.32851
 Alpha  occ. eigenvalues --  -10.32724 -10.32538 -10.32421 -10.32408 -10.32391
 Alpha  occ. eigenvalues --  -10.32278 -10.32238 -10.32045 -10.31010 -10.30843
 Alpha  occ. eigenvalues --  -10.30834 -10.30568 -10.30522 -10.30502 -10.30436
 Alpha  occ. eigenvalues --  -10.30432 -10.30303 -10.29971 -10.29922 -10.29911
 Alpha  occ. eigenvalues --  -10.29851 -10.29718 -10.29506 -10.29424 -10.29277
 Alpha  occ. eigenvalues --  -10.29243 -10.29172 -10.29138 -10.29131 -10.28932
 Alpha  occ. eigenvalues --  -10.28813 -10.28618 -10.28593 -10.28566 -10.28557
 Alpha  occ. eigenvalues --  -10.28419 -10.28160 -10.28149 -10.28136 -10.28053
 Alpha  occ. eigenvalues --  -10.27996  -3.20612  -1.94209  -1.93723  -1.93617
 Alpha  occ. eigenvalues --   -1.19024  -1.18424  -1.11577  -1.09696  -1.09576
 Alpha  occ. eigenvalues --   -1.08043  -1.07808  -1.06475  -1.05797  -1.05130
 Alpha  occ. eigenvalues --   -0.95108  -0.93383  -0.92008  -0.91954  -0.91231
 Alpha  occ. eigenvalues --   -0.90771  -0.90358  -0.89439  -0.89247  -0.89081
 Alpha  occ. eigenvalues --   -0.88312  -0.87918  -0.86537  -0.86099  -0.85104
 Alpha  occ. eigenvalues --   -0.84421  -0.83769  -0.83483  -0.83091  -0.82429
 Alpha  occ. eigenvalues --   -0.81867  -0.80327  -0.80156  -0.79184  -0.78245
 Alpha  occ. eigenvalues --   -0.77779  -0.77447  -0.77392  -0.76631  -0.75802
 Alpha  occ. eigenvalues --   -0.75249  -0.74683  -0.73321  -0.72394  -0.72008
 Alpha  occ. eigenvalues --   -0.70413  -0.69501  -0.69220  -0.68670  -0.67721
 Alpha  occ. eigenvalues --   -0.67338  -0.67075  -0.67026  -0.66432  -0.66281
 Alpha  occ. eigenvalues --   -0.65794  -0.65446  -0.64066  -0.63603  -0.62992
 Alpha  occ. eigenvalues --   -0.62589  -0.62207  -0.61248  -0.60562  -0.60056
 Alpha  occ. eigenvalues --   -0.59580  -0.59528  -0.58658  -0.58162  -0.57902
 Alpha  occ. eigenvalues --   -0.57556  -0.57311  -0.57048  -0.56729  -0.56289
 Alpha  occ. eigenvalues --   -0.55847  -0.55361  -0.55166  -0.55004  -0.54893
 Alpha  occ. eigenvalues --   -0.54414  -0.54268  -0.54223  -0.53479  -0.53422
 Alpha  occ. eigenvalues --   -0.53167  -0.53061  -0.52920  -0.52673  -0.52384
 Alpha  occ. eigenvalues --   -0.52203  -0.52071  -0.51806  -0.51469  -0.51338
 Alpha  occ. eigenvalues --   -0.51240  -0.51163  -0.51078  -0.50933  -0.50802
 Alpha  occ. eigenvalues --   -0.50625  -0.50454  -0.49716  -0.49547  -0.49289
 Alpha  occ. eigenvalues --   -0.49046  -0.49029  -0.48849  -0.48545  -0.48469
 Alpha  occ. eigenvalues --   -0.48378  -0.48159  -0.47925  -0.47891  -0.47739
 Alpha  occ. eigenvalues --   -0.47382  -0.47299  -0.47170  -0.47037  -0.46819
 Alpha  occ. eigenvalues --   -0.46696  -0.46208  -0.46083  -0.45906  -0.45756
 Alpha  occ. eigenvalues --   -0.45730  -0.45560  -0.45471  -0.45299  -0.44950
 Alpha  occ. eigenvalues --   -0.44820  -0.44798  -0.44119  -0.44070  -0.43945
 Alpha  occ. eigenvalues --   -0.43529  -0.43442  -0.43258  -0.43063  -0.43049
 Alpha  occ. eigenvalues --   -0.42995  -0.42683  -0.42450  -0.42245  -0.42028
 Alpha  occ. eigenvalues --   -0.41770  -0.41520  -0.41505  -0.41132  -0.41064
 Alpha  occ. eigenvalues --   -0.40877  -0.40364  -0.39938  -0.39796  -0.39105
 Alpha  occ. eigenvalues --   -0.39033  -0.38856  -0.38587  -0.38514  -0.38174
 Alpha  occ. eigenvalues --   -0.37993  -0.37613  -0.36660  -0.36497  -0.36491
 Alpha  occ. eigenvalues --   -0.36085  -0.35512  -0.35198  -0.33568  -0.33335
 Alpha  occ. eigenvalues --   -0.33195  -0.32735  -0.32106  -0.31405  -0.25905
 Alpha  occ. eigenvalues --   -0.22988
 Alpha virt. eigenvalues --   -0.06968   0.00319   0.01752   0.03866   0.06164
 Alpha virt. eigenvalues --    0.06467   0.07511   0.07723   0.07980   0.09564
 Alpha virt. eigenvalues --    0.09864   0.11110   0.11319   0.12060   0.12480

 Mulliken charges:
               1
     1  Mg   0.995755
     2  C   -0.016081
     3  C   -0.087693
     4  C   -0.067975
     5  C   -0.087485
     6  N   -0.409073
     7  C    0.068092
     8  C   -0.091530
     9  C   -0.098510
    10  C    0.099093
    11  C    0.015155
    12  C   -0.006133
    13  C    0.008668
    14  C    0.242809
    15  O   -0.280313
    16  O   -0.369347
    17  N   -0.448728
    18  C    0.143582
    19  C   -0.158045
    20  C   -0.080679
    21  C    0.122506
    22  C    0.059626
    23  C    0.099947
    24  O   -0.298222
    25  C   -0.016796
    26  N   -0.266733
    27  C    0.013647
    28  C   -0.097821
    29  C   -0.017455
    30  C    0.022106
    31  C    0.025002
    32  C   -0.024892
    33  C   -0.045495
    34  N   -0.441952
    35  C    0.128521
    36  C   -0.202039
    37  C   -0.028671
    38  C    0.139300
    39  C    0.087878
    40  C    0.159891
    41  O   -0.219262
    42  C   -0.081876
    43  C    0.242086
    44  O   -0.245821
    45  O   -0.351901
    46  C    0.125076
    47  C    0.276490
    48  C   -0.140597
    49  C   -0.216448
    50  C    0.063180
    51  C    0.033806
    52  C   -0.029242
    53  C    0.055479
    54  C   -0.224835
    55  C   -0.025286
    56  C    0.042442
    57  C   -0.055160
    58  C   -0.011865
    59  C   -0.178491
    60  C    0.022827
    61  C    0.037681
    62  C   -0.063935
    63  C    0.061170
    64  C   -0.225366
    65  C   -0.012846
    66  C   -0.014675
    67  H   -0.017658
    68  H    0.021455
    69  H   -0.009721
    70  H    0.032410
    71  H    0.026232
    72  H    0.023254
    73  H    0.045752
    74  H    0.033162
    75  H    0.035450
    76  H    0.073571
    77  H    0.055478
    78  H    0.058354
    79  H    0.055469
    80  H    0.027011
    81  H    0.042127
    82  H    0.074439
    83  H    0.057190
    84  H    0.054774
    85  H    0.035665
    86  H    0.021491
    87  H    0.040850
    88  H    0.033353
    89  H    0.041711
    90  H    0.023085
    91  H    0.018176
    92  H    0.038931
    93  H    0.038331
    94  H    0.048419
    95  H    0.038454
    96  H    0.059339
    97  H    0.070288
    98  H    0.074958
    99  H    0.051886
   100  H    0.064337
   101  H    0.060271
   102  H    0.078260
   103  H    0.032383
   104  H    0.006103
   105  H    0.019255
   106  H    0.036839
   107  H    0.035247
   108  H    0.029989
   109  H    0.009079
   110  H    0.018924
   111  H    0.030932
   112  H    0.008962
   113  H    0.019109
   114  H    0.035747
   115  H    0.029938
   116  H    0.028129
   117  H    0.025273
   118  H    0.020886
   119  H    0.021470
   120  H    0.019150
   121  H    0.016501
   122  H    0.016693
   123  H    0.021666
   124  H    0.008566
   125  H    0.025383
   126  H    0.030253
   127  H    0.024910
   128  H    0.014680
   129  H    0.005495
   130  H    0.009039
   131  H    0.017338
   132  H    0.011456
   133  H    0.026149
   134  H    0.036073
   135  H    0.025030
   136  H    0.021342
   137  H    0.027424
   138  H    0.020474
   139  H    0.027789
   140  H    0.007230
 Sum of Mulliken charges =  -0.00000

 Dipole moment (field-independent basis, Debye):
    X=             -2.7475    Y=              2.3649    Z=             -4.1846  Tot=              5.5364
 Quadrupole moment (field-independent basis, Debye-Ang):
   XX=           -371.3238   YY=           -412.3441   ZZ=           -401.6818
   XY=             -3.6450   XZ=              1.1436   YZ=             -2.4048

 Normal termination of Gaussian 16 at Wed Apr 27 10:11:15 2022.
