 Gaussian 16, Revision A.03,
 Gaussian 16:  ES64L-G16RevA.03 25-Dec-2016

 --------------------
 #p ZINDO=(nstates=5)
 --------------------

 -----------------------------
 step_1151_chromophore_1 ZINDO
 -----------------------------
 Symbolic Z-matrix:
 Charge =  0 Multiplicity = 1

                         Standard orientation:
 ---------------------------------------------------------------------
 Center     Atomic      Atomic             Coordinates (Angstroms)
 Number     Number       Type             X           Y           Z
 ---------------------------------------------------------------------
      1         12           0        5.764724    0.510683    0.172914
      2          6           0        3.778479   -2.287661   -0.448120
      3          6           0        3.549283    2.499368   -1.212682
      4          6           0        8.055263    3.035628    0.476439
      5          6           0        8.478389   -1.699081    0.755121
      6          7           0        3.882979    0.192688   -0.611272
      7          6           0        3.193532   -1.013876   -0.759774
      8          6           0        1.887716   -0.867574   -1.521299
      9          6           0        2.049153    0.566171   -2.082333
     10          6           0        3.192043    1.190014   -1.180193
     11          6           0        2.565210    0.587750   -3.511908
     12          6           0        0.755663   -0.925010   -0.462234
     13          6           0       -0.618550   -1.319772   -1.093160
     14          6           0       -1.670625   -1.789914   -0.080226
     15          8           0       -1.536972   -1.658317    1.153157
     16          8           0       -2.794487   -2.340787   -0.677868
     17          7           0        5.725027    2.514365   -0.131751
     18          6           0        4.717784    3.184833   -0.737292
     19          6           0        5.075338    4.585564   -0.931804
     20          6           0        6.378461    4.796973   -0.383733
     21          6           0        6.739498    3.399180    0.044283
     22          6           0        4.097014    5.526971   -1.569041
     23          6           0        7.297195    6.048450   -0.371990
     24          8           0        8.521631    6.008076    0.099586
     25          6           0        6.659264    7.346048   -0.943020
     26          7           0        7.943213    0.620750    0.549332
     27          6           0        8.587147    1.790151    0.688112
     28          6           0       10.105201    1.573279    0.798946
     29          6           0       10.122108    0.138141    1.256591
     30          6           0        8.798380   -0.333664    0.806343
     31          6           0       10.964705    1.991896   -0.419080
     32          6           0       10.488067    0.016075    2.717937
     33          6           0        9.314039   -0.180837    3.755580
     34          7           0        6.155201   -1.544478    0.249259
     35          6           0        7.265615   -2.316602    0.432886
     36          6           0        6.918844   -3.717476    0.484988
     37          6           0        5.587440   -3.705926    0.141847
     38          6           0        5.126994   -2.411110   -0.032580
     39          6           0        7.722962   -4.988237    0.770485
     40          6           0        4.424266   -4.601955   -0.126293
     41          8           0        4.312557   -5.836498   -0.088551
     42          6           0        3.264436   -3.646330   -0.699822
     43          6           0        2.039313   -4.115897   -0.027728
     44          8           0        1.818043   -4.136302    1.176783
     45          8           0        1.236172   -4.691950   -0.958646
     46          6           0        0.053757   -5.374173   -0.570627
     47          6           0       -3.887775   -2.553925    0.257880
     48          6           0       -5.045492   -2.060810   -0.458091
     49          6           0       -6.293531   -2.543946   -0.706388
     50          6           0       -6.585137   -3.966656   -0.611102
     51          6           0       -7.316603   -1.726939   -1.361039
     52          6           0       -8.362819   -1.141294   -0.355125
     53          6           0       -7.789774    0.081562    0.452034
     54          6           0       -8.492875    1.389358    0.026561
     55          6           0       -7.400993    2.339443   -0.563716
     56          6           0       -9.107548    2.274156    1.235008
     57          6           0      -10.590853    2.084334    1.099238
     58          6           0      -11.323177    1.677320    2.444149
     59          6           0      -12.842430    1.988573    2.523615
     60          6           0      -13.332981    2.325862    3.931737
     61          6           0      -13.693027    0.898753    1.859130
     62          6           0      -14.836753    1.429410    0.990723
     63          6           0      -14.546808    1.859885   -0.460260
     64          6           0      -14.451454    0.551413   -1.203091
     65          6           0      -13.192914    0.581866   -2.102401
     66          6           0      -15.773069    0.284906   -2.050154
     67          1           0        2.851475    3.174492   -1.713518
     68          1           0        8.816980    3.817586    0.492513
     69          1           0        9.269247   -2.371882    1.095569
     70          1           0        1.760149   -1.585015   -2.331613
     71          1           0        1.070670    1.042066   -2.156888
     72          1           0        2.601188   -0.419198   -3.926226
     73          1           0        3.572263    0.980992   -3.654740
     74          1           0        1.994956    1.151895   -4.250049
     75          1           0        0.835856    0.056456    0.006268
     76          1           0        0.884909   -1.567532    0.407777
     77          1           0       -0.464356   -2.110507   -1.827125
     78          1           0       -1.035084   -0.467902   -1.631024
     79          1           0        3.813847    6.333253   -0.893189
     80          1           0        3.193065    5.008424   -1.891950
     81          1           0        4.464781    5.973413   -2.492465
     82          1           0        6.606108    7.264434   -2.028809
     83          1           0        7.249056    8.208765   -0.635390
     84          1           0        5.690812    7.509498   -0.470144
     85          1           0       10.369028    2.306660    1.561750
     86          1           0       10.938368   -0.374341    0.746665
     87          1           0       11.782948    1.414160   -0.848895
     88          1           0       11.497876    2.895041   -0.120033
     89          1           0       10.270273    2.293567   -1.202777
     90          1           0       11.110158    0.856600    3.027087
     91          1           0       11.225518   -0.774284    2.864339
     92          1           0        9.481910    0.384736    4.672419
     93          1           0        9.203566   -1.214204    4.082609
     94          1           0        8.395255    0.132883    3.259798
     95          1           0        8.700068   -4.802961    1.215790
     96          1           0        7.847902   -5.382898   -0.238026
     97          1           0        7.132776   -5.708325    1.338559
     98          1           0        3.138940   -3.834581   -1.765927
     99          1           0       -0.672033   -5.304226   -1.380473
    100          1           0       -0.341789   -4.929908    0.343087
    101          1           0        0.319703   -6.417084   -0.399847
    102          1           0       -3.863511   -1.954519    1.168186
    103          1           0       -3.930424   -3.627424    0.441992
    104          1           0       -4.895481   -1.015536   -0.727718
    105          1           0       -5.650131   -4.497175   -0.427327
    106          1           0       -7.150417   -4.273991   -1.490699
    107          1           0       -7.172907   -4.269141    0.255430
    108          1           0       -7.727639   -2.254117   -2.222009
    109          1           0       -6.799386   -0.832198   -1.706902
    110          1           0       -8.651112   -1.913457    0.358135
    111          1           0       -9.240563   -0.866998   -0.940681
    112          1           0       -6.717530    0.193747    0.286887
    113          1           0       -7.914050   -0.103676    1.518532
    114          1           0       -9.205264    1.286645   -0.791542
    115          1           0       -6.862746    2.699528    0.313107
    116          1           0       -7.847154    3.219472   -1.028654
    117          1           0       -6.747943    1.826715   -1.270397
    118          1           0       -8.810370    3.316958    1.125841
    119          1           0       -8.819442    1.987573    2.246667
    120          1           0      -10.816941    1.299092    0.378688
    121          1           0      -11.094276    2.983866    0.746348
    122          1           0      -10.803610    2.217501    3.235507
    123          1           0      -11.176317    0.596795    2.459991
    124          1           0      -13.072890    2.847506    1.893578
    125          1           0      -13.322559    3.405292    4.082169
    126          1           0      -12.629531    1.915310    4.655155
    127          1           0      -14.367283    2.002825    4.045674
    128          1           0      -14.140380    0.334032    2.676372
    129          1           0      -13.051690    0.271594    1.239128
    130          1           0      -15.463899    2.211677    1.417212
    131          1           0      -15.485252    0.553016    0.959806
    132          1           0      -13.602068    2.361486   -0.673237
    133          1           0      -15.311732    2.559455   -0.797121
    134          1           0      -14.366868   -0.375371   -0.637068
    135          1           0      -13.126463   -0.040414   -2.994664
    136          1           0      -12.360156    0.220421   -1.499139
    137          1           0      -12.952692    1.604325   -2.393719
    138          1           0      -16.148390   -0.733359   -1.955840
    139          1           0      -15.789566    0.588201   -3.096442
    140          1           0      -16.649174    0.821025   -1.685959
 ---------------------------------------------------------------------

 SCF Done:  E(RZINDO/S) =  -474.558656608     A.U. after   19 cycles

 Excitation energies and oscillator strengths:

 Excited State   1:      Singlet-A      1.2675 eV  978.18 nm  f=0.6042  <S**2>=0.000
     175 ->178         0.18783
     176 ->177         0.66345
 This state for optimization and/or second-order correction.
 Total Energy, E(CIS/TDA) =  -474.512077030
 Copying the excited state density for this state as the 1-particle RhoCI density.

 Excited State   2:      Singlet-A      1.9343 eV  640.99 nm  f=0.0374  <S**2>=0.000
     175 ->177         0.53745
     176 ->178        -0.43224

 Excited State   3:      Singlet-A      2.9050 eV  426.80 nm  f=0.1457  <S**2>=0.000
     175 ->177        -0.14381
     176 ->178        -0.17282
     176 ->179         0.59689
     176 ->180        -0.18612

 Excited State   4:      Singlet-A      2.9758 eV  416.64 nm  f=0.0343  <S**2>=0.000
     168 ->177         0.24224
     168 ->178        -0.11837
     168 ->179        -0.30531
     168 ->180        -0.25729
     168 ->185        -0.18262
     169 ->177        -0.19080
     169 ->179         0.15133
     169 ->180         0.20493
     169 ->185         0.10313
     176 ->178         0.11272

 Excited State   5:      Singlet-A      3.0152 eV  411.20 nm  f=0.0185  <S**2>=0.000
     168 ->177         0.16360
     168 ->179         0.22819
     168 ->180        -0.21294
     169 ->177         0.20584
     169 ->178        -0.11691
     169 ->179         0.37163
     169 ->180        -0.26938
     169 ->185         0.12784
     169 ->187        -0.13559

 The electronic state is 1-A.
 Alpha  occ. eigenvalues --   -1.87167  -1.84747  -1.81894  -1.74723  -1.73729
 Alpha  occ. eigenvalues --   -1.72586  -1.66732  -1.62857  -1.58650  -1.56497
 Alpha  occ. eigenvalues --   -1.52362  -1.50755  -1.49803  -1.47573  -1.46527
 Alpha  occ. eigenvalues --   -1.44681  -1.42979  -1.41423  -1.38406  -1.38303
 Alpha  occ. eigenvalues --   -1.35934  -1.33540  -1.32218  -1.31512  -1.29057
 Alpha  occ. eigenvalues --   -1.27802  -1.25894  -1.23035  -1.21678  -1.19475
 Alpha  occ. eigenvalues --   -1.17542  -1.17285  -1.16012  -1.14240  -1.13983
 Alpha  occ. eigenvalues --   -1.12683  -1.10609  -1.10487  -1.05786  -1.04181
 Alpha  occ. eigenvalues --   -1.03355  -1.01638  -0.98988  -0.98037  -0.97402
 Alpha  occ. eigenvalues --   -0.95927  -0.94798  -0.94343  -0.93034  -0.92704
 Alpha  occ. eigenvalues --   -0.90811  -0.89867  -0.88907  -0.88377  -0.86646
 Alpha  occ. eigenvalues --   -0.85649  -0.83934  -0.83075  -0.82033  -0.80850
 Alpha  occ. eigenvalues --   -0.80086  -0.79666  -0.78530  -0.77183  -0.76701
 Alpha  occ. eigenvalues --   -0.76375  -0.75404  -0.75268  -0.74226  -0.74032
 Alpha  occ. eigenvalues --   -0.73598  -0.72820  -0.72703  -0.71543  -0.70830
 Alpha  occ. eigenvalues --   -0.70307  -0.69843  -0.68796  -0.67937  -0.67907
 Alpha  occ. eigenvalues --   -0.67508  -0.67154  -0.66805  -0.65920  -0.65664
 Alpha  occ. eigenvalues --   -0.65135  -0.64449  -0.64197  -0.63949  -0.63332
 Alpha  occ. eigenvalues --   -0.63254  -0.62957  -0.62716  -0.62193  -0.61442
 Alpha  occ. eigenvalues --   -0.61155  -0.60836  -0.60511  -0.60184  -0.59927
 Alpha  occ. eigenvalues --   -0.59578  -0.59312  -0.59207  -0.58920  -0.58028
 Alpha  occ. eigenvalues --   -0.57782  -0.57263  -0.57182  -0.57092  -0.56591
 Alpha  occ. eigenvalues --   -0.55793  -0.55234  -0.55036  -0.54937  -0.54789
 Alpha  occ. eigenvalues --   -0.54106  -0.53640  -0.53031  -0.52932  -0.52788
 Alpha  occ. eigenvalues --   -0.52257  -0.51865  -0.51486  -0.51339  -0.51053
 Alpha  occ. eigenvalues --   -0.50603  -0.50586  -0.50480  -0.50320  -0.49918
 Alpha  occ. eigenvalues --   -0.49882  -0.49534  -0.49190  -0.49112  -0.48733
 Alpha  occ. eigenvalues --   -0.48565  -0.48493  -0.48219  -0.47862  -0.47512
 Alpha  occ. eigenvalues --   -0.47400  -0.47255  -0.46829  -0.46785  -0.46199
 Alpha  occ. eigenvalues --   -0.46120  -0.45992  -0.45908  -0.45610  -0.45421
 Alpha  occ. eigenvalues --   -0.44958  -0.44548  -0.44459  -0.43969  -0.43540
 Alpha  occ. eigenvalues --   -0.43455  -0.43027  -0.42594  -0.41853  -0.41679
 Alpha  occ. eigenvalues --   -0.41345  -0.41331  -0.40977  -0.39076  -0.39037
 Alpha  occ. eigenvalues --   -0.38201  -0.37362  -0.35784  -0.35624  -0.34830
 Alpha  occ. eigenvalues --   -0.33507  -0.32792  -0.32537  -0.31154  -0.26724
 Alpha  occ. eigenvalues --   -0.21799
 Alpha virt. eigenvalues --   -0.08424  -0.02131  -0.00872   0.00810   0.01435
 Alpha virt. eigenvalues --    0.02366   0.02580   0.03083   0.04101   0.04843
 Alpha virt. eigenvalues --    0.05901   0.06930   0.07168   0.07485   0.07783

 Mulliken charges:
               1
     1  Mg   0.430890
     2  C   -0.055676
     3  C   -0.076536
     4  C   -0.054944
     5  C   -0.073123
     6  N   -0.282247
     7  C    0.134793
     8  C    0.003267
     9  C    0.005478
    10  C    0.121766
    11  C   -0.053319
    12  C   -0.028633
    13  C    0.008083
    14  C    0.458165
    15  O   -0.516702
    16  O   -0.263220
    17  N   -0.293824
    18  C    0.084090
    19  C   -0.002929
    20  C   -0.064546
    21  C    0.122507
    22  C   -0.043548
    23  C    0.324127
    24  O   -0.550699
    25  C   -0.026279
    26  N   -0.254517
    27  C    0.106831
    28  C    0.002610
    29  C    0.023257
    30  C    0.169047
    31  C   -0.056479
    32  C   -0.026540
    33  C   -0.058356
    34  N   -0.341959
    35  C    0.120756
    36  C    0.047737
    37  C   -0.040803
    38  C    0.122575
    39  C   -0.035170
    40  C    0.326373
    41  O   -0.507407
    42  C    0.065671
    43  C    0.493599
    44  O   -0.520256
    45  O   -0.276007
    46  C    0.078674
    47  C    0.116806
    48  C   -0.089945
    49  C   -0.008081
    50  C   -0.042914
    51  C   -0.020284
    52  C   -0.030716
    53  C   -0.028221
    54  C   -0.022220
    55  C   -0.065518
    56  C   -0.034717
    57  C   -0.043208
    58  C   -0.043347
    59  C   -0.016529
    60  C   -0.055732
    61  C   -0.028360
    62  C   -0.033341
    63  C   -0.025323
    64  C   -0.000765
    65  C   -0.063299
    66  C   -0.071210
    67  H    0.017227
    68  H    0.050505
    69  H    0.018058
    70  H    0.034182
    71  H    0.028153
    72  H    0.009633
    73  H    0.022479
    74  H    0.015350
    75  H    0.030491
    76  H    0.046009
    77  H    0.040630
    78  H    0.042226
    79  H    0.029184
    80  H    0.020926
    81  H    0.023735
    82  H    0.047213
    83  H    0.034949
    84  H    0.036754
    85  H    0.026597
    86  H    0.019394
    87  H    0.029099
    88  H    0.015238
    89  H    0.023284
    90  H    0.019182
    91  H    0.010500
    92  H    0.020933
    93  H    0.020937
    94  H    0.028442
    95  H    0.027718
    96  H    0.035663
    97  H    0.046047
    98  H    0.053728
    99  H    0.028820
   100  H    0.051319
   101  H    0.043544
   102  H    0.066377
   103  H    0.042349
   104  H    0.013456
   105  H    0.019673
   106  H    0.028275
   107  H    0.023806
   108  H    0.025270
   109  H    0.013843
   110  H    0.017868
   111  H    0.020713
   112  H    0.027951
   113  H    0.019006
   114  H    0.033523
   115  H    0.017116
   116  H    0.011544
   117  H    0.014899
   118  H    0.023015
   119  H    0.026534
   120  H    0.018269
   121  H    0.014179
   122  H    0.019690
   123  H    0.021508
   124  H    0.015000
   125  H    0.012354
   126  H    0.022948
   127  H    0.022705
   128  H    0.016857
   129  H    0.021331
   130  H    0.013255
   131  H    0.007820
   132  H    0.022590
   133  H    0.023160
   134  H    0.030090
   135  H    0.016386
   136  H    0.007323
   137  H    0.017732
   138  H    0.014366
   139  H    0.022077
   140  H    0.007342
 Sum of Mulliken charges =  -0.00000

 Dipole moment (field-independent basis, Debye):
    X=             -3.0363    Y=              1.7073    Z=             -7.2146  Tot=              8.0115
 N-N= 4.283644124269D+03 E-N= 0.000000000000D+00  KE=-9.241831603013D+03
 Leave Link  601 at Wed Apr 27 10:22:03 2022, MaxMem=  6710886400 cpu:               0.8 elap:               0.0
 (Enter /sw/apps/gaussian-16.0/g16/l9999.exe)
 1\1\GINC-BP1-COMPUTE196\SP\RZINDO CIS\STO-3G\C55H74Mg1N4O6\OF15641\27-
 Apr-2022\0\\#p ZINDO=(nstates=5)\\step_1151_chromophore_1 ZINDO\\0,1\M
 g,0,-1.385,17.17,26.733\C,0,-1.754,14.854,29.314\C,0,-2.285,19.639,28.
 702\C,0,-1.392,19.183,23.965\C,0,-1.371,14.447,24.459\N,0,-1.839,17.27
 4,28.743\C,0,-1.91,16.235,29.675\C,0,-2.425,16.682,31.032\C,0,-2.951,1
 8.095,30.681\C,0,-2.24,18.423,29.304\C,0,-4.447,18.12,30.413\C,0,-1.18
 7,16.766,31.963\C,0,-1.582,16.687,33.473\C,0,-0.419,16.355,34.417\O,0,

 Normal termination of Gaussian 16 at Wed Apr 27 10:22:03 2022.
