 Gaussian 16, Revision A.03,
 Gaussian 16:  ES64L-G16RevA.03 25-Dec-2016

 ------------------------------
 #p blyp/Def2SVP td=(nstates=5)
 ------------------------------

 -------------------------------------------------
 step_401_chromophore_8 TDDFT with blyp functional
 -------------------------------------------------
 Symbolic Z-matrix:
 Charge =  0 Multiplicity = 1

                         Standard orientation:
 ---------------------------------------------------------------------
 Center     Atomic      Atomic             Coordinates (Angstroms)
 Number     Number       Type             X           Y           Z
 ---------------------------------------------------------------------
      1         12           0        4.318454    1.008408    0.110231
      2          6           0        4.044016   -2.333023    1.129966
      3          6           0        4.227186    0.012336   -3.195530
      4          6           0        4.212930    4.276104   -0.808736
      5          6           0        3.985270    2.046752    3.435877
      6          7           0        4.105901   -1.017069   -0.868091
      7          6           0        4.162821   -2.261365   -0.281546
      8          6           0        4.123692   -3.355221   -1.366145
      9          6           0        4.277359   -2.497804   -2.762223
     10          6           0        4.186504   -1.096187   -2.256886
     11          6           0        5.577032   -2.722451   -3.546304
     12          6           0        2.867378   -4.267090   -1.385997
     13          6           0        1.442912   -3.603991   -1.226142
     14          6           0        0.173582   -4.350388   -1.698014
     15          8           0        0.081940   -5.189771   -2.575009
     16          8           0       -0.960986   -3.848281   -1.137293
     17          7           0        4.200611    1.989997   -1.754026
     18          6           0        4.182640    1.374338   -2.970373
     19          6           0        4.145124    2.379951   -3.991893
     20          6           0        4.004842    3.659056   -3.315461
     21          6           0        4.183642    3.369200   -1.864555
     22          6           0        4.171168    2.059265   -5.462821
     23          6           0        3.845419    5.015771   -4.036959
     24          8           0        3.866293    5.032502   -5.269658
     25          6           0        3.601346    6.216089   -3.268979
     26          7           0        4.004634    2.939291    1.207754
     27          6           0        4.211369    4.166184    0.578781
     28          6           0        4.608382    5.203410    1.582803
     29          6           0        4.326360    4.526620    2.937492
     30          6           0        3.998992    3.104394    2.540653
     31          6           0        6.055488    5.752353    1.423442
     32          6           0        3.238765    5.061753    3.882277
     33          6           0        2.708783    6.545347    3.739031
     34          7           0        4.087154    0.088251    1.957297
     35          6           0        3.925655    0.596828    3.278342
     36          6           0        3.796555   -0.574206    4.208456
     37          6           0        3.979407   -1.669591    3.383808
     38          6           0        4.008882   -1.257960    2.039657
     39          6           0        3.630165   -0.549098    5.759644
     40          6           0        4.005445   -3.124129    3.479491
     41          8           0        3.775330   -3.981011    4.330352
     42          6           0        4.059984   -3.645901    1.972881
     43          6           0        5.269747   -4.501480    1.840868
     44          8           0        6.362742   -4.203937    2.344748
     45          8           0        5.027877   -5.526328    0.990041
     46          6           0        6.033561   -6.529898    0.836953
     47          6           0       -2.197410   -4.519307   -1.368948
     48          6           0       -3.262113   -3.502837   -1.293933
     49          6           0       -4.597072   -3.692147   -1.303551
     50          6           0       -5.215371   -5.044848   -1.033433
     51          6           0       -5.557945   -2.474390   -1.425705
     52          6           0       -4.971468   -1.055753   -1.842717
     53          6           0       -4.517581   -0.151089   -0.602385
     54          6           0       -5.382269    1.202437   -0.477938
     55          6           0       -4.693507    2.518278   -0.815830
     56          6           0       -6.164865    1.258477    0.860364
     57          6           0       -7.538085    0.560994    0.875000
     58          6           0       -8.638973    1.542909    1.217228
     59          6           0       -9.584135    2.000571    0.016777
     60          6           0       -9.496138    3.507369   -0.303932
     61          6           0      -11.044536    1.549279    0.275820
     62          6           0      -11.530156    0.186556   -0.080254
     63          6           0      -12.637938   -0.408751    0.843543
     64          6           0      -13.943203    0.438890    0.756375
     65          6           0      -15.095906   -0.271745   -0.037085
     66          6           0      -14.480620    0.888103    2.121813
     67          1           0        4.314008   -0.312536   -4.234126
     68          1           0        4.385415    5.328127   -1.048574
     69          1           0        4.115414    2.273333    4.496590
     70          1           0        5.001384   -3.996492   -1.287090
     71          1           0        3.439966   -2.820033   -3.380358
     72          1           0        5.300135   -3.102254   -4.529349
     73          1           0        6.063432   -3.395693   -2.840229
     74          1           0        6.154318   -1.803192   -3.640597
     75          1           0        2.981194   -4.988159   -0.576454
     76          1           0        2.994126   -4.827989   -2.311022
     77          1           0        1.470922   -2.681563   -1.805806
     78          1           0        1.177363   -3.400626   -0.188698
     79          1           0        4.965871    2.735193   -5.780062
     80          1           0        3.261684    2.326110   -6.000298
     81          1           0        4.592651    1.079881   -5.687784
     82          1           0        2.692823    6.210140   -2.667427
     83          1           0        3.580445    6.972781   -4.054278
     84          1           0        4.531242    6.549576   -2.810226
     85          1           0        3.883862    6.008703    1.460477
     86          1           0        5.246891    4.394468    3.505627
     87          1           0        6.250448    5.951070    0.369837
     88          1           0        6.834009    5.145207    1.885405
     89          1           0        6.185341    6.628993    2.058076
     90          1           0        3.576759    4.882340    4.902672
     91          1           0        2.325567    4.474043    3.791172
     92          1           0        3.142327    7.207683    2.990216
     93          1           0        2.759466    7.145557    4.647124
     94          1           0        1.650135    6.464261    3.492032
     95          1           0        4.430043   -1.153243    6.187026
     96          1           0        2.620052   -0.794326    6.089665
     97          1           0        3.829593    0.503545    5.960692
     98          1           0        3.232732   -4.337102    1.811449
     99          1           0        5.593569   -7.520346    0.953617
    100          1           0        6.897297   -6.368388    1.481267
    101          1           0        6.436783   -6.459205   -0.172849
    102          1           0       -2.386501   -5.070288   -0.447435
    103          1           0       -2.278083   -5.153747   -2.251803
    104          1           0       -2.851762   -2.493105   -1.280906
    105          1           0       -6.039376   -5.124591   -1.743188
    106          1           0       -5.534612   -5.096548    0.007937
    107          1           0       -4.482853   -5.824123   -1.242332
    108          1           0       -6.153720   -2.372088   -0.519754
    109          1           0       -6.180420   -2.676851   -2.297547
    110          1           0       -5.635237   -0.472364   -2.481467
    111          1           0       -4.105108   -1.351127   -2.435734
    112          1           0       -3.458697    0.091740   -0.689660
    113          1           0       -4.628376   -0.817132    0.253338
    114          1           0       -6.140085    1.192837   -1.261312
    115          1           0       -3.976561    2.774941   -0.036370
    116          1           0       -5.415194    3.287626   -1.092500
    117          1           0       -4.107636    2.454528   -1.733170
    118          1           0       -6.255826    2.328693    1.042666
    119          1           0       -5.594560    0.914392    1.724180
    120          1           0       -7.587586   -0.080278    1.754418
    121          1           0       -7.662912   -0.039315   -0.026553
    122          1           0       -8.280328    2.419663    1.756977
    123          1           0       -9.288127    1.020818    1.919861
    124          1           0       -9.122601    1.579574   -0.876755
    125          1           0       -8.963052    4.070512    0.461849
    126          1           0      -10.525507    3.859920   -0.368701
    127          1           0       -9.093603    3.583938   -1.313794
    128          1           0      -11.752647    2.237154   -0.187298
    129          1           0      -11.234728    1.610334    1.347367
    130          1           0      -10.743329   -0.568107   -0.065164
    131          1           0      -11.946387    0.290289   -1.081739
    132          1           0      -12.282527   -0.354917    1.872584
    133          1           0      -12.804307   -1.475210    0.694737
    134          1           0      -13.686827    1.346151    0.208543
    135          1           0      -16.059028   -0.128620    0.453896
    136          1           0      -14.905367   -1.331982   -0.199500
    137          1           0      -15.046871    0.260698   -0.986125
    138          1           0      -15.500166    0.546304    2.300934
    139          1           0      -14.539907    1.966759    2.267297
    140          1           0      -13.840646    0.550321    2.937334
 ---------------------------------------------------------------------

 SCF Done:  E(RB-LYP) =  -3007.37034973     A.U. after   21 cycles

 Excitation energies and oscillator strengths:

 Excited State   1:      Singlet-A      1.8340 eV  676.04 nm  f=0.2663  <S**2>=0.000
     245 -> 248       -0.21615
     246 -> 247        0.67630
     246 <- 247       -0.13552
 This state for optimization and/or second-order correction.
 Total Energy, E(TD-HF/TD-DFT) =  -3007.30295269
 Copying the excited state density for this state as the 1-particle RhoCI density.

 Excited State   2:      Singlet-A      1.8707 eV  662.78 nm  f=0.0029  <S**2>=0.000
     244 -> 247        0.70343

 Excited State   3:      Singlet-A      1.9937 eV  621.88 nm  f=0.0043  <S**2>=0.000
     243 -> 247        0.68920
     245 -> 247       -0.12857

 Excited State   4:      Singlet-A      2.0274 eV  611.55 nm  f=0.0715  <S**2>=0.000
     243 -> 247        0.13700
     245 -> 247        0.62979
     246 -> 248        0.26920

 Excited State   5:      Singlet-A      2.0956 eV  591.65 nm  f=0.0001  <S**2>=0.000
     242 -> 247        0.70703

 The electronic state is 1-A.
 Alpha  occ. eigenvalues --  -46.28152 -18.83331 -18.81876 -18.76541 -18.76290
 Alpha  occ. eigenvalues --  -18.75765 -18.75560 -14.03884 -14.02788 -14.01391
 Alpha  occ. eigenvalues --  -14.01250 -10.04187 -10.04087  -9.99766  -9.99591
 Alpha  occ. eigenvalues --   -9.98011  -9.97407  -9.97124  -9.97035  -9.96755
 Alpha  occ. eigenvalues --   -9.96551  -9.96542  -9.96247  -9.95253  -9.94950
 Alpha  occ. eigenvalues --   -9.94909  -9.94504  -9.94487  -9.94421  -9.94319
 Alpha  occ. eigenvalues --   -9.94117  -9.93995  -9.93657  -9.93609  -9.93416
 Alpha  occ. eigenvalues --   -9.93397  -9.93374  -9.93338  -9.93037  -9.92956
 Alpha  occ. eigenvalues --   -9.92817  -9.92768  -9.92750  -9.92556  -9.92472
 Alpha  occ. eigenvalues --   -9.92320  -9.92176  -9.92102  -9.91792  -9.91766
 Alpha  occ. eigenvalues --   -9.91693  -9.91675  -9.91467  -9.91369  -9.91296
 Alpha  occ. eigenvalues --   -9.91018  -9.90872  -9.90834  -9.90819  -9.90784
 Alpha  occ. eigenvalues --   -9.90705  -9.90637  -9.90620  -9.90527  -9.90409
 Alpha  occ. eigenvalues --   -9.90261  -2.92542  -1.72972  -1.72437  -1.72243
 Alpha  occ. eigenvalues --   -0.98998  -0.98784  -0.91201  -0.91003  -0.89781
 Alpha  occ. eigenvalues --   -0.89619  -0.86319  -0.85545  -0.85087  -0.84438
 Alpha  occ. eigenvalues --   -0.74703  -0.73113  -0.72893  -0.72663  -0.72394
 Alpha  occ. eigenvalues --   -0.72283  -0.71683  -0.71200  -0.70225  -0.69766
 Alpha  occ. eigenvalues --   -0.69361  -0.69006  -0.68208  -0.67856  -0.67354
 Alpha  occ. eigenvalues --   -0.66873  -0.66677  -0.65760  -0.65415  -0.64829
 Alpha  occ. eigenvalues --   -0.64454  -0.62756  -0.62616  -0.61533  -0.61075
 Alpha  occ. eigenvalues --   -0.60239  -0.59790  -0.59616  -0.59342  -0.58820
 Alpha  occ. eigenvalues --   -0.58246  -0.57880  -0.57410  -0.56006  -0.55476
 Alpha  occ. eigenvalues --   -0.53956  -0.53402  -0.52645  -0.51976  -0.51459
 Alpha  occ. eigenvalues --   -0.51236  -0.50956  -0.50948  -0.50615  -0.49785
 Alpha  occ. eigenvalues --   -0.49486  -0.49379  -0.48950  -0.48274  -0.46328
 Alpha  occ. eigenvalues --   -0.46034  -0.45795  -0.45487  -0.44904  -0.44438
 Alpha  occ. eigenvalues --   -0.44224  -0.43805  -0.43331  -0.42757  -0.42441
 Alpha  occ. eigenvalues --   -0.42336  -0.42109  -0.41877  -0.41382  -0.41080
 Alpha  occ. eigenvalues --   -0.41013  -0.40846  -0.40781  -0.40469  -0.40105
 Alpha  occ. eigenvalues --   -0.40043  -0.39661  -0.39388  -0.39259  -0.39146
 Alpha  occ. eigenvalues --   -0.38934  -0.38621  -0.38541  -0.38427  -0.38270
 Alpha  occ. eigenvalues --   -0.38097  -0.37956  -0.37737  -0.37629  -0.37401
 Alpha  occ. eigenvalues --   -0.36982  -0.36810  -0.36716  -0.36605  -0.36404
 Alpha  occ. eigenvalues --   -0.36216  -0.36157  -0.35908  -0.35850  -0.35372
 Alpha  occ. eigenvalues --   -0.35338  -0.35205  -0.35076  -0.34871  -0.34706
 Alpha  occ. eigenvalues --   -0.34596  -0.34304  -0.34288  -0.34141  -0.33939
 Alpha  occ. eigenvalues --   -0.33799  -0.33668  -0.33622  -0.33410  -0.33364
 Alpha  occ. eigenvalues --   -0.33191  -0.32876  -0.32761  -0.32421  -0.32128
 Alpha  occ. eigenvalues --   -0.31938  -0.31919  -0.31717  -0.31610  -0.31377
 Alpha  occ. eigenvalues --   -0.31330  -0.31207  -0.31015  -0.30770  -0.30694
 Alpha  occ. eigenvalues --   -0.30535  -0.30185  -0.30024  -0.29963  -0.29899
 Alpha  occ. eigenvalues --   -0.29734  -0.29527  -0.29388  -0.29192  -0.28972
 Alpha  occ. eigenvalues --   -0.28825  -0.28411  -0.28302  -0.28045  -0.27475
 Alpha  occ. eigenvalues --   -0.27270  -0.26781  -0.26562  -0.26455  -0.26211
 Alpha  occ. eigenvalues --   -0.26142  -0.25762  -0.25523  -0.25425  -0.25311
 Alpha  occ. eigenvalues --   -0.25104  -0.24812  -0.24610  -0.23889  -0.23688
 Alpha  occ. eigenvalues --   -0.23655  -0.22522  -0.21542  -0.21519  -0.21090
 Alpha  occ. eigenvalues --   -0.20016  -0.19299  -0.18836  -0.18366  -0.17441
 Alpha  occ. eigenvalues --   -0.16088
 Alpha virt. eigenvalues --   -0.11598  -0.07362  -0.06411  -0.04960  -0.03185
 Alpha virt. eigenvalues --   -0.02978  -0.02461  -0.01846  -0.01102  -0.00233
 Alpha virt. eigenvalues --    0.00841   0.01333   0.02043   0.02423   0.02579

 Mulliken charges:
               1
     1  Mg   0.670755
     2  C   -0.006585
     3  C   -0.079734
     4  C   -0.046781
     5  C   -0.067574
     6  N   -0.225056
     7  C   -0.062277
     8  C    0.055205
     9  C   -0.068114
    10  C    0.022311
    11  C    0.150640
    12  C    0.103879
    13  C    0.100830
    14  C    0.065749
    15  O   -0.187563
    16  O   -0.259936
    17  N   -0.290196
    18  C    0.185588
    19  C   -0.161495
    20  C    0.003801
    21  C    0.158710
    22  C    0.207496
    23  C   -0.105933
    24  O   -0.174774
    25  C    0.182648
    26  N   -0.203692
    27  C   -0.081935
    28  C    0.127672
    29  C    0.016661
    30  C    0.029132
    31  C    0.132698
    32  C    0.100253
    33  C    0.041112
    34  N   -0.291131
    35  C    0.075271
    36  C   -0.184021
    37  C    0.048703
    38  C    0.144576
    39  C    0.181380
    40  C    0.002723
    41  O   -0.139095
    42  C    0.021854
    43  C    0.105699
    44  O   -0.193872
    45  O   -0.243719
    46  C    0.205253
    47  C    0.338505
    48  C   -0.143925
    49  C   -0.163157
    50  C    0.137795
    51  C    0.109852
    52  C    0.029395
    53  C    0.115728
    54  C   -0.066566
    55  C    0.100308
    56  C    0.094517
    57  C    0.099006
    58  C    0.090176
    59  C   -0.067285
    60  C    0.117821
    61  C    0.097402
    62  C    0.074135
    63  C    0.103548
    64  C   -0.116537
    65  C    0.115051
    66  C    0.099073
    67  H   -0.063615
    68  H   -0.075561
    69  H   -0.063334
    70  H   -0.026448
    71  H   -0.009769
    72  H    0.004624
    73  H   -0.017089
    74  H    0.001118
    75  H   -0.008105
    76  H   -0.009651
    77  H    0.019322
    78  H    0.009131
    79  H    0.000357
    80  H    0.018350
    81  H   -0.025645
    82  H    0.031212
    83  H   -0.028675
    84  H    0.010706
    85  H   -0.032757
    86  H   -0.024439
    87  H    0.000165
    88  H   -0.011686
    89  H   -0.013352
    90  H   -0.015379
    91  H   -0.015978
    92  H   -0.003983
    93  H   -0.010105
    94  H   -0.007844
    95  H    0.022104
    96  H    0.021590
    97  H   -0.025753
    98  H   -0.008873
    99  H    0.022792
   100  H    0.024380
   101  H    0.003050
   102  H   -0.010667
   103  H    0.028249
   104  H   -0.023848
   105  H   -0.007732
   106  H    0.016138
   107  H   -0.011268
   108  H   -0.008741
   109  H   -0.022433
   110  H   -0.022480
   111  H   -0.028953
   112  H   -0.028260
   113  H   -0.027014
   114  H   -0.042866
   115  H   -0.013103
   116  H   -0.010280
   117  H   -0.030707
   118  H   -0.050339
   119  H   -0.036308
   120  H   -0.044269
   121  H   -0.009133
   122  H   -0.033941
   123  H   -0.044536
   124  H   -0.043903
   125  H   -0.010566
   126  H   -0.033651
   127  H   -0.015025
   128  H   -0.030761
   129  H   -0.040371
   130  H   -0.034776
   131  H   -0.034667
   132  H   -0.041247
   133  H   -0.035203
   134  H   -0.027463
   135  H   -0.012137
   136  H   -0.012522
   137  H   -0.017423
   138  H   -0.023826
   139  H   -0.021829
   140  H   -0.024952
 Sum of Mulliken charges =  -0.00000

 Dipole moment (field-independent basis, Debye):
    X=              0.2887    Y=              2.8712    Z=              0.6648  Tot=              2.9612
 Quadrupole moment (field-independent basis, Debye-Ang):
   XX=           -392.8720   YY=           -392.2314   ZZ=           -431.8534
   XY=             13.6266   XZ=             -5.1560   YZ=             37.6956

 Normal termination of Gaussian 16 at Fri Apr 29 19:35:45 2022.
