 Gaussian 16, Revision A.03,
 Gaussian 16:  ES64L-G16RevA.03 25-Dec-2016

 -----------------------------------
 #p cam-b3lyp/Def2SVP td=(nstates=5)
 -----------------------------------

 ------------------------------------------------------
 step_401_chromophore_8 TDDFT with cam-b3lyp functional
 ------------------------------------------------------
 Symbolic Z-matrix:
 Charge =  0 Multiplicity = 1

                         Standard orientation:
 ---------------------------------------------------------------------
 Center     Atomic      Atomic             Coordinates (Angstroms)
 Number     Number       Type             X           Y           Z
 ---------------------------------------------------------------------
      1         12           0        4.318454    1.008408    0.110231
      2          6           0        4.044016   -2.333023    1.129966
      3          6           0        4.227186    0.012336   -3.195530
      4          6           0        4.212930    4.276104   -0.808736
      5          6           0        3.985270    2.046752    3.435877
      6          7           0        4.105901   -1.017069   -0.868091
      7          6           0        4.162821   -2.261365   -0.281546
      8          6           0        4.123692   -3.355221   -1.366145
      9          6           0        4.277359   -2.497804   -2.762223
     10          6           0        4.186504   -1.096187   -2.256886
     11          6           0        5.577032   -2.722451   -3.546304
     12          6           0        2.867378   -4.267090   -1.385997
     13          6           0        1.442912   -3.603991   -1.226142
     14          6           0        0.173582   -4.350388   -1.698014
     15          8           0        0.081940   -5.189771   -2.575009
     16          8           0       -0.960986   -3.848281   -1.137293
     17          7           0        4.200611    1.989997   -1.754026
     18          6           0        4.182640    1.374338   -2.970373
     19          6           0        4.145124    2.379951   -3.991893
     20          6           0        4.004842    3.659056   -3.315461
     21          6           0        4.183642    3.369200   -1.864555
     22          6           0        4.171168    2.059265   -5.462821
     23          6           0        3.845419    5.015771   -4.036959
     24          8           0        3.866293    5.032502   -5.269658
     25          6           0        3.601346    6.216089   -3.268979
     26          7           0        4.004634    2.939291    1.207754
     27          6           0        4.211369    4.166184    0.578781
     28          6           0        4.608382    5.203410    1.582803
     29          6           0        4.326360    4.526620    2.937492
     30          6           0        3.998992    3.104394    2.540653
     31          6           0        6.055488    5.752353    1.423442
     32          6           0        3.238765    5.061753    3.882277
     33          6           0        2.708783    6.545347    3.739031
     34          7           0        4.087154    0.088251    1.957297
     35          6           0        3.925655    0.596828    3.278342
     36          6           0        3.796555   -0.574206    4.208456
     37          6           0        3.979407   -1.669591    3.383808
     38          6           0        4.008882   -1.257960    2.039657
     39          6           0        3.630165   -0.549098    5.759644
     40          6           0        4.005445   -3.124129    3.479491
     41          8           0        3.775330   -3.981011    4.330352
     42          6           0        4.059984   -3.645901    1.972881
     43          6           0        5.269747   -4.501480    1.840868
     44          8           0        6.362742   -4.203937    2.344748
     45          8           0        5.027877   -5.526328    0.990041
     46          6           0        6.033561   -6.529898    0.836953
     47          6           0       -2.197410   -4.519307   -1.368948
     48          6           0       -3.262113   -3.502837   -1.293933
     49          6           0       -4.597072   -3.692147   -1.303551
     50          6           0       -5.215371   -5.044848   -1.033433
     51          6           0       -5.557945   -2.474390   -1.425705
     52          6           0       -4.971468   -1.055753   -1.842717
     53          6           0       -4.517581   -0.151089   -0.602385
     54          6           0       -5.382269    1.202437   -0.477938
     55          6           0       -4.693507    2.518278   -0.815830
     56          6           0       -6.164865    1.258477    0.860364
     57          6           0       -7.538085    0.560994    0.875000
     58          6           0       -8.638973    1.542909    1.217228
     59          6           0       -9.584135    2.000571    0.016777
     60          6           0       -9.496138    3.507369   -0.303932
     61          6           0      -11.044536    1.549279    0.275820
     62          6           0      -11.530156    0.186556   -0.080254
     63          6           0      -12.637938   -0.408751    0.843543
     64          6           0      -13.943203    0.438890    0.756375
     65          6           0      -15.095906   -0.271745   -0.037085
     66          6           0      -14.480620    0.888103    2.121813
     67          1           0        4.314008   -0.312536   -4.234126
     68          1           0        4.385415    5.328127   -1.048574
     69          1           0        4.115414    2.273333    4.496590
     70          1           0        5.001384   -3.996492   -1.287090
     71          1           0        3.439966   -2.820033   -3.380358
     72          1           0        5.300135   -3.102254   -4.529349
     73          1           0        6.063432   -3.395693   -2.840229
     74          1           0        6.154318   -1.803192   -3.640597
     75          1           0        2.981194   -4.988159   -0.576454
     76          1           0        2.994126   -4.827989   -2.311022
     77          1           0        1.470922   -2.681563   -1.805806
     78          1           0        1.177363   -3.400626   -0.188698
     79          1           0        4.965871    2.735193   -5.780062
     80          1           0        3.261684    2.326110   -6.000298
     81          1           0        4.592651    1.079881   -5.687784
     82          1           0        2.692823    6.210140   -2.667427
     83          1           0        3.580445    6.972781   -4.054278
     84          1           0        4.531242    6.549576   -2.810226
     85          1           0        3.883862    6.008703    1.460477
     86          1           0        5.246891    4.394468    3.505627
     87          1           0        6.250448    5.951070    0.369837
     88          1           0        6.834009    5.145207    1.885405
     89          1           0        6.185341    6.628993    2.058076
     90          1           0        3.576759    4.882340    4.902672
     91          1           0        2.325567    4.474043    3.791172
     92          1           0        3.142327    7.207683    2.990216
     93          1           0        2.759466    7.145557    4.647124
     94          1           0        1.650135    6.464261    3.492032
     95          1           0        4.430043   -1.153243    6.187026
     96          1           0        2.620052   -0.794326    6.089665
     97          1           0        3.829593    0.503545    5.960692
     98          1           0        3.232732   -4.337102    1.811449
     99          1           0        5.593569   -7.520346    0.953617
    100          1           0        6.897297   -6.368388    1.481267
    101          1           0        6.436783   -6.459205   -0.172849
    102          1           0       -2.386501   -5.070288   -0.447435
    103          1           0       -2.278083   -5.153747   -2.251803
    104          1           0       -2.851762   -2.493105   -1.280906
    105          1           0       -6.039376   -5.124591   -1.743188
    106          1           0       -5.534612   -5.096548    0.007937
    107          1           0       -4.482853   -5.824123   -1.242332
    108          1           0       -6.153720   -2.372088   -0.519754
    109          1           0       -6.180420   -2.676851   -2.297547
    110          1           0       -5.635237   -0.472364   -2.481467
    111          1           0       -4.105108   -1.351127   -2.435734
    112          1           0       -3.458697    0.091740   -0.689660
    113          1           0       -4.628376   -0.817132    0.253338
    114          1           0       -6.140085    1.192837   -1.261312
    115          1           0       -3.976561    2.774941   -0.036370
    116          1           0       -5.415194    3.287626   -1.092500
    117          1           0       -4.107636    2.454528   -1.733170
    118          1           0       -6.255826    2.328693    1.042666
    119          1           0       -5.594560    0.914392    1.724180
    120          1           0       -7.587586   -0.080278    1.754418
    121          1           0       -7.662912   -0.039315   -0.026553
    122          1           0       -8.280328    2.419663    1.756977
    123          1           0       -9.288127    1.020818    1.919861
    124          1           0       -9.122601    1.579574   -0.876755
    125          1           0       -8.963052    4.070512    0.461849
    126          1           0      -10.525507    3.859920   -0.368701
    127          1           0       -9.093603    3.583938   -1.313794
    128          1           0      -11.752647    2.237154   -0.187298
    129          1           0      -11.234728    1.610334    1.347367
    130          1           0      -10.743329   -0.568107   -0.065164
    131          1           0      -11.946387    0.290289   -1.081739
    132          1           0      -12.282527   -0.354917    1.872584
    133          1           0      -12.804307   -1.475210    0.694737
    134          1           0      -13.686827    1.346151    0.208543
    135          1           0      -16.059028   -0.128620    0.453896
    136          1           0      -14.905367   -1.331982   -0.199500
    137          1           0      -15.046871    0.260698   -0.986125
    138          1           0      -15.500166    0.546304    2.300934
    139          1           0      -14.539907    1.966759    2.267297
    140          1           0      -13.840646    0.550321    2.937334
 ---------------------------------------------------------------------

 SCF Done:  E(RCAM-B3LYP) =  -3007.15810591     A.U. after   17 cycles

 Excitation energies and oscillator strengths:

 Excited State   1:      Singlet-A      1.7381 eV  713.35 nm  f=0.3414  <S**2>=0.000
     245 -> 248        0.20005
     246 -> 247        0.67993
     245 <- 248        0.11211
 This state for optimization and/or second-order correction.
 Total Energy, E(TD-HF/TD-DFT) =  -3007.09423314
 Copying the excited state density for this state as the 1-particle RhoCI density.

 Excited State   2:      Singlet-A      2.2435 eV  552.64 nm  f=0.0779  <S**2>=0.000
     245 -> 247        0.62199
     246 -> 248       -0.32552

 Excited State   3:      Singlet-A      3.3292 eV  372.42 nm  f=0.0024  <S**2>=0.000
     243 -> 247        0.68480
     246 -> 248        0.10459

 Excited State   4:      Singlet-A      3.4261 eV  361.88 nm  f=0.0178  <S**2>=0.000
     241 -> 247        0.21712
     241 -> 249        0.18594
     241 -> 250       -0.10659
     241 -> 251        0.11837
     242 -> 247        0.51931
     242 -> 249        0.23057
     242 -> 250       -0.10493
     242 -> 251        0.12402
     246 -> 248        0.13801

 Excited State   5:      Singlet-A      3.4922 eV  355.03 nm  f=0.6578  <S**2>=0.000
     241 -> 247       -0.26372
     245 -> 247        0.29394
     246 -> 248        0.56384
     245 <- 247       -0.10561

 The electronic state is 1-A.
 Alpha  occ. eigenvalues --  -46.89803 -19.26338 -19.24648 -19.19613 -19.19217
 Alpha  occ. eigenvalues --  -19.18929 -19.18907 -14.42980 -14.41591 -14.39806
 Alpha  occ. eigenvalues --  -14.39798 -10.39542 -10.39419 -10.35061 -10.34902
 Alpha  occ. eigenvalues --  -10.32000 -10.31820 -10.31496 -10.31283 -10.31231
 Alpha  occ. eigenvalues --  -10.31211 -10.31000 -10.30482 -10.29714 -10.29111
 Alpha  occ. eigenvalues --  -10.29038 -10.28898 -10.28650 -10.28456 -10.28439
 Alpha  occ. eigenvalues --  -10.28421 -10.28177 -10.27844 -10.27752 -10.27718
 Alpha  occ. eigenvalues --  -10.27586 -10.27309 -10.27149 -10.27131 -10.26976
 Alpha  occ. eigenvalues --  -10.26903 -10.26635 -10.26549 -10.26505 -10.26201
 Alpha  occ. eigenvalues --  -10.26170 -10.25922 -10.25890 -10.25698 -10.25496
 Alpha  occ. eigenvalues --  -10.25411 -10.25410 -10.25394 -10.25205 -10.25004
 Alpha  occ. eigenvalues --  -10.24734 -10.24700 -10.24473 -10.24402 -10.24352
 Alpha  occ. eigenvalues --  -10.24342 -10.24265 -10.24207 -10.24105 -10.24026
 Alpha  occ. eigenvalues --  -10.23845  -3.18086  -1.92997  -1.92540  -1.92379
 Alpha  occ. eigenvalues --   -1.17539  -1.17194  -1.09715  -1.09358  -1.07634
 Alpha  occ. eigenvalues --   -1.07610  -1.04035  -1.03254  -1.02720  -1.01972
 Alpha  occ. eigenvalues --   -0.91760  -0.89906  -0.89671  -0.89382  -0.89100
 Alpha  occ. eigenvalues --   -0.89015  -0.88345  -0.87842  -0.86740  -0.86274
 Alpha  occ. eigenvalues --   -0.85777  -0.85650  -0.84425  -0.83941  -0.83590
 Alpha  occ. eigenvalues --   -0.83105  -0.82687  -0.81666  -0.81288  -0.80729
 Alpha  occ. eigenvalues --   -0.80255  -0.78367  -0.78148  -0.77213  -0.76570
 Alpha  occ. eigenvalues --   -0.75615  -0.75072  -0.74949  -0.74621  -0.74033
 Alpha  occ. eigenvalues --   -0.73255  -0.72898  -0.72369  -0.70785  -0.70165
 Alpha  occ. eigenvalues --   -0.68509  -0.67936  -0.67238  -0.66312  -0.65620
 Alpha  occ. eigenvalues --   -0.65430  -0.65101  -0.64831  -0.64683  -0.63579
 Alpha  occ. eigenvalues --   -0.63448  -0.63174  -0.62865  -0.62108  -0.59935
 Alpha  occ. eigenvalues --   -0.59703  -0.59168  -0.58897  -0.58345  -0.57827
 Alpha  occ. eigenvalues --   -0.57757  -0.57321  -0.56525  -0.55878  -0.55704
 Alpha  occ. eigenvalues --   -0.55525  -0.55349  -0.55028  -0.54333  -0.53945
 Alpha  occ. eigenvalues --   -0.53748  -0.53703  -0.53479  -0.53280  -0.52906
 Alpha  occ. eigenvalues --   -0.52627  -0.52139  -0.51883  -0.51765  -0.51670
 Alpha  occ. eigenvalues --   -0.51446  -0.51315  -0.50946  -0.50860  -0.50782
 Alpha  occ. eigenvalues --   -0.50508  -0.50251  -0.50103  -0.49906  -0.49650
 Alpha  occ. eigenvalues --   -0.49629  -0.49322  -0.49126  -0.48956  -0.48811
 Alpha  occ. eigenvalues --   -0.48654  -0.48202  -0.48036  -0.47872  -0.47693
 Alpha  occ. eigenvalues --   -0.47364  -0.47195  -0.47067  -0.46938  -0.46857
 Alpha  occ. eigenvalues --   -0.46761  -0.46264  -0.46006  -0.45815  -0.45686
 Alpha  occ. eigenvalues --   -0.45639  -0.45406  -0.45309  -0.45223  -0.45066
 Alpha  occ. eigenvalues --   -0.44942  -0.44741  -0.44374  -0.44112  -0.43740
 Alpha  occ. eigenvalues --   -0.43604  -0.43384  -0.43268  -0.43156  -0.42919
 Alpha  occ. eigenvalues --   -0.42760  -0.42750  -0.42615  -0.42463  -0.42382
 Alpha  occ. eigenvalues --   -0.42024  -0.41741  -0.41405  -0.41285  -0.41229
 Alpha  occ. eigenvalues --   -0.41059  -0.40732  -0.40714  -0.40352  -0.39970
 Alpha  occ. eigenvalues --   -0.39857  -0.39435  -0.39270  -0.39026  -0.38289
 Alpha  occ. eigenvalues --   -0.38159  -0.37776  -0.37343  -0.37266  -0.37193
 Alpha  occ. eigenvalues --   -0.36930  -0.36928  -0.36684  -0.36275  -0.36082
 Alpha  occ. eigenvalues --   -0.35942  -0.35617  -0.35112  -0.34706  -0.34568
 Alpha  occ. eigenvalues --   -0.34070  -0.33703  -0.32960  -0.31390  -0.31311
 Alpha  occ. eigenvalues --   -0.30631  -0.30102  -0.29478  -0.28863  -0.24221
 Alpha  occ. eigenvalues --   -0.21371
 Alpha virt. eigenvalues --   -0.08628  -0.02452   0.00109   0.01908   0.02340
 Alpha virt. eigenvalues --    0.04634   0.05046   0.05408   0.06464   0.06619
 Alpha virt. eigenvalues --    0.07444   0.08102   0.08412   0.08709   0.08770

 Mulliken charges:
               1
     1  Mg   0.801243
     2  C   -0.030568
     3  C   -0.091696
     4  C   -0.078533
     5  C   -0.076848
     6  N   -0.289362
     7  C   -0.028292
     8  C    0.014366
     9  C   -0.119414
    10  C    0.040258
    11  C    0.089074
    12  C    0.054510
    13  C    0.029865
    14  C    0.151882
    15  O   -0.229897
    16  O   -0.325387
    17  N   -0.380948
    18  C    0.191338
    19  C   -0.164140
    20  C   -0.063753
    21  C    0.194447
    22  C    0.148827
    23  C   -0.019956
    24  O   -0.214086
    25  C    0.081489
    26  N   -0.273461
    27  C   -0.044430
    28  C    0.055252
    29  C   -0.037456
    30  C    0.050593
    31  C    0.078649
    32  C    0.043166
    33  C   -0.021115
    34  N   -0.376654
    35  C    0.076974
    36  C   -0.183315
    37  C   -0.030297
    38  C    0.175449
    39  C    0.138611
    40  C    0.101543
    41  O   -0.177140
    42  C   -0.048629
    43  C    0.196090
    44  O   -0.233778
    45  O   -0.309461
    46  C    0.167002
    47  C    0.300669
    48  C   -0.163716
    49  C   -0.185355
    50  C    0.078170
    51  C    0.061176
    52  C   -0.025972
    53  C    0.061403
    54  C   -0.120949
    55  C    0.044046
    56  C    0.042957
    57  C    0.039758
    58  C    0.040534
    59  C   -0.119958
    60  C    0.062114
    61  C    0.041486
    62  C    0.019991
    63  C    0.052789
    64  C   -0.182362
    65  C    0.060806
    66  C    0.041860
    67  H   -0.026417
    68  H   -0.043215
    69  H   -0.031640
    70  H    0.007284
    71  H    0.024506
    72  H    0.028779
    73  H    0.008014
    74  H    0.027400
    75  H    0.020278
    76  H    0.022233
    77  H    0.047267
    78  H    0.039934
    79  H    0.029247
    80  H    0.047074
    81  H    0.001831
    82  H    0.061821
    83  H    0.011095
    84  H    0.040590
    85  H    0.003184
    86  H    0.011944
    87  H    0.022806
    88  H    0.013750
    89  H    0.012026
    90  H    0.012650
    91  H    0.015621
    92  H    0.016860
    93  H    0.014838
    94  H    0.015877
    95  H    0.046376
    96  H    0.046624
    97  H   -0.003575
    98  H    0.033087
    99  H    0.044533
   100  H    0.052083
   101  H    0.022975
   102  H    0.016787
   103  H    0.059067
   104  H    0.009147
   105  H    0.016181
   106  H    0.039724
   107  H    0.012243
   108  H    0.014675
   109  H    0.006218
   110  H    0.006114
   111  H    0.001462
   112  H    0.000287
   113  H    0.001193
   114  H   -0.014035
   115  H    0.010139
   116  H    0.012493
   117  H   -0.004971
   118  H   -0.020579
   119  H   -0.006839
   120  H   -0.012223
   121  H    0.013712
   122  H   -0.005737
   123  H   -0.015823
   124  H   -0.012458
   125  H    0.011847
   126  H   -0.008128
   127  H    0.008078
   128  H   -0.004462
   129  H   -0.013254
   130  H   -0.006695
   131  H   -0.007082
   132  H   -0.013652
   133  H   -0.005143
   134  H    0.003393
   135  H    0.011198
   136  H    0.010272
   137  H    0.005449
   138  H    0.000290
   139  H    0.002823
   140  H   -0.000911
 Sum of Mulliken charges =  -0.00000

 Dipole moment (field-independent basis, Debye):
    X=              0.4745    Y=              3.2708    Z=              0.2995  Tot=              3.3186
 Quadrupole moment (field-independent basis, Debye-Ang):
   XX=           -391.4734   YY=           -387.5779   ZZ=           -430.9371
   XY=             14.4479   XZ=             -7.7110   YZ=             37.4416

 Normal termination of Gaussian 16 at Fri Apr 29 18:11:39 2022.
