 Gaussian 16, Revision A.03,
 Gaussian 16:  ES64L-G16RevA.03 25-Dec-2016

 ---------------------------------
 #p PBE1PBE/Def2SVP td=(nstates=5)
 ---------------------------------

 ----------------------------------------------------
 step_401_chromophore_8 TDDFT with PBE1PBE functional
 ----------------------------------------------------
 Symbolic Z-matrix:
 Charge =  0 Multiplicity = 1

                         Standard orientation:
 ---------------------------------------------------------------------
 Center     Atomic      Atomic             Coordinates (Angstroms)
 Number     Number       Type             X           Y           Z
 ---------------------------------------------------------------------
      1         12           0        4.318454    1.008408    0.110231
      2          6           0        4.044016   -2.333023    1.129966
      3          6           0        4.227186    0.012336   -3.195530
      4          6           0        4.212930    4.276104   -0.808736
      5          6           0        3.985270    2.046752    3.435877
      6          7           0        4.105901   -1.017069   -0.868091
      7          6           0        4.162821   -2.261365   -0.281546
      8          6           0        4.123692   -3.355221   -1.366145
      9          6           0        4.277359   -2.497804   -2.762223
     10          6           0        4.186504   -1.096187   -2.256886
     11          6           0        5.577032   -2.722451   -3.546304
     12          6           0        2.867378   -4.267090   -1.385997
     13          6           0        1.442912   -3.603991   -1.226142
     14          6           0        0.173582   -4.350388   -1.698014
     15          8           0        0.081940   -5.189771   -2.575009
     16          8           0       -0.960986   -3.848281   -1.137293
     17          7           0        4.200611    1.989997   -1.754026
     18          6           0        4.182640    1.374338   -2.970373
     19          6           0        4.145124    2.379951   -3.991893
     20          6           0        4.004842    3.659056   -3.315461
     21          6           0        4.183642    3.369200   -1.864555
     22          6           0        4.171168    2.059265   -5.462821
     23          6           0        3.845419    5.015771   -4.036959
     24          8           0        3.866293    5.032502   -5.269658
     25          6           0        3.601346    6.216089   -3.268979
     26          7           0        4.004634    2.939291    1.207754
     27          6           0        4.211369    4.166184    0.578781
     28          6           0        4.608382    5.203410    1.582803
     29          6           0        4.326360    4.526620    2.937492
     30          6           0        3.998992    3.104394    2.540653
     31          6           0        6.055488    5.752353    1.423442
     32          6           0        3.238765    5.061753    3.882277
     33          6           0        2.708783    6.545347    3.739031
     34          7           0        4.087154    0.088251    1.957297
     35          6           0        3.925655    0.596828    3.278342
     36          6           0        3.796555   -0.574206    4.208456
     37          6           0        3.979407   -1.669591    3.383808
     38          6           0        4.008882   -1.257960    2.039657
     39          6           0        3.630165   -0.549098    5.759644
     40          6           0        4.005445   -3.124129    3.479491
     41          8           0        3.775330   -3.981011    4.330352
     42          6           0        4.059984   -3.645901    1.972881
     43          6           0        5.269747   -4.501480    1.840868
     44          8           0        6.362742   -4.203937    2.344748
     45          8           0        5.027877   -5.526328    0.990041
     46          6           0        6.033561   -6.529898    0.836953
     47          6           0       -2.197410   -4.519307   -1.368948
     48          6           0       -3.262113   -3.502837   -1.293933
     49          6           0       -4.597072   -3.692147   -1.303551
     50          6           0       -5.215371   -5.044848   -1.033433
     51          6           0       -5.557945   -2.474390   -1.425705
     52          6           0       -4.971468   -1.055753   -1.842717
     53          6           0       -4.517581   -0.151089   -0.602385
     54          6           0       -5.382269    1.202437   -0.477938
     55          6           0       -4.693507    2.518278   -0.815830
     56          6           0       -6.164865    1.258477    0.860364
     57          6           0       -7.538085    0.560994    0.875000
     58          6           0       -8.638973    1.542909    1.217228
     59          6           0       -9.584135    2.000571    0.016777
     60          6           0       -9.496138    3.507369   -0.303932
     61          6           0      -11.044536    1.549279    0.275820
     62          6           0      -11.530156    0.186556   -0.080254
     63          6           0      -12.637938   -0.408751    0.843543
     64          6           0      -13.943203    0.438890    0.756375
     65          6           0      -15.095906   -0.271745   -0.037085
     66          6           0      -14.480620    0.888103    2.121813
     67          1           0        4.314008   -0.312536   -4.234126
     68          1           0        4.385415    5.328127   -1.048574
     69          1           0        4.115414    2.273333    4.496590
     70          1           0        5.001384   -3.996492   -1.287090
     71          1           0        3.439966   -2.820033   -3.380358
     72          1           0        5.300135   -3.102254   -4.529349
     73          1           0        6.063432   -3.395693   -2.840229
     74          1           0        6.154318   -1.803192   -3.640597
     75          1           0        2.981194   -4.988159   -0.576454
     76          1           0        2.994126   -4.827989   -2.311022
     77          1           0        1.470922   -2.681563   -1.805806
     78          1           0        1.177363   -3.400626   -0.188698
     79          1           0        4.965871    2.735193   -5.780062
     80          1           0        3.261684    2.326110   -6.000298
     81          1           0        4.592651    1.079881   -5.687784
     82          1           0        2.692823    6.210140   -2.667427
     83          1           0        3.580445    6.972781   -4.054278
     84          1           0        4.531242    6.549576   -2.810226
     85          1           0        3.883862    6.008703    1.460477
     86          1           0        5.246891    4.394468    3.505627
     87          1           0        6.250448    5.951070    0.369837
     88          1           0        6.834009    5.145207    1.885405
     89          1           0        6.185341    6.628993    2.058076
     90          1           0        3.576759    4.882340    4.902672
     91          1           0        2.325567    4.474043    3.791172
     92          1           0        3.142327    7.207683    2.990216
     93          1           0        2.759466    7.145557    4.647124
     94          1           0        1.650135    6.464261    3.492032
     95          1           0        4.430043   -1.153243    6.187026
     96          1           0        2.620052   -0.794326    6.089665
     97          1           0        3.829593    0.503545    5.960692
     98          1           0        3.232732   -4.337102    1.811449
     99          1           0        5.593569   -7.520346    0.953617
    100          1           0        6.897297   -6.368388    1.481267
    101          1           0        6.436783   -6.459205   -0.172849
    102          1           0       -2.386501   -5.070288   -0.447435
    103          1           0       -2.278083   -5.153747   -2.251803
    104          1           0       -2.851762   -2.493105   -1.280906
    105          1           0       -6.039376   -5.124591   -1.743188
    106          1           0       -5.534612   -5.096548    0.007937
    107          1           0       -4.482853   -5.824123   -1.242332
    108          1           0       -6.153720   -2.372088   -0.519754
    109          1           0       -6.180420   -2.676851   -2.297547
    110          1           0       -5.635237   -0.472364   -2.481467
    111          1           0       -4.105108   -1.351127   -2.435734
    112          1           0       -3.458697    0.091740   -0.689660
    113          1           0       -4.628376   -0.817132    0.253338
    114          1           0       -6.140085    1.192837   -1.261312
    115          1           0       -3.976561    2.774941   -0.036370
    116          1           0       -5.415194    3.287626   -1.092500
    117          1           0       -4.107636    2.454528   -1.733170
    118          1           0       -6.255826    2.328693    1.042666
    119          1           0       -5.594560    0.914392    1.724180
    120          1           0       -7.587586   -0.080278    1.754418
    121          1           0       -7.662912   -0.039315   -0.026553
    122          1           0       -8.280328    2.419663    1.756977
    123          1           0       -9.288127    1.020818    1.919861
    124          1           0       -9.122601    1.579574   -0.876755
    125          1           0       -8.963052    4.070512    0.461849
    126          1           0      -10.525507    3.859920   -0.368701
    127          1           0       -9.093603    3.583938   -1.313794
    128          1           0      -11.752647    2.237154   -0.187298
    129          1           0      -11.234728    1.610334    1.347367
    130          1           0      -10.743329   -0.568107   -0.065164
    131          1           0      -11.946387    0.290289   -1.081739
    132          1           0      -12.282527   -0.354917    1.872584
    133          1           0      -12.804307   -1.475210    0.694737
    134          1           0      -13.686827    1.346151    0.208543
    135          1           0      -16.059028   -0.128620    0.453896
    136          1           0      -14.905367   -1.331982   -0.199500
    137          1           0      -15.046871    0.260698   -0.986125
    138          1           0      -15.500166    0.546304    2.300934
    139          1           0      -14.539907    1.966759    2.267297
    140          1           0      -13.840646    0.550321    2.937334
 ---------------------------------------------------------------------

 SCF Done:  E(RPBE1PBE) =  -3005.34705018     A.U. after   16 cycles

 Excitation energies and oscillator strengths:

 Excited State   1:      Singlet-A      1.8921 eV  655.26 nm  f=0.3309  <S**2>=0.000
     245 -> 248        0.19467
     246 -> 247        0.68601
 This state for optimization and/or second-order correction.
 Total Energy, E(TD-HF/TD-DFT) =  -3005.27751579
 Copying the excited state density for this state as the 1-particle RhoCI density.

 Excited State   2:      Singlet-A      2.2526 eV  550.42 nm  f=0.0845  <S**2>=0.000
     245 -> 247        0.63743
     246 -> 248       -0.29601

 Excited State   3:      Singlet-A      2.9274 eV  423.53 nm  f=0.0005  <S**2>=0.000
     242 -> 247        0.66136
     242 -> 249       -0.16762
     243 -> 247       -0.11297

 Excited State   4:      Singlet-A      2.9726 eV  417.09 nm  f=0.0038  <S**2>=0.000
     242 -> 247        0.10533
     243 -> 247        0.69020

 Excited State   5:      Singlet-A      3.1678 eV  391.39 nm  f=0.0000  <S**2>=0.000
     244 -> 247        0.70673

 The electronic state is 1-A.
 Alpha  occ. eigenvalues --  -46.93172 -19.26968 -19.25360 -19.19866 -19.19494
 Alpha  occ. eigenvalues --  -19.19235 -19.19037 -14.42428 -14.41140 -14.39536
 Alpha  occ. eigenvalues --  -14.39381 -10.36549 -10.36458 -10.32143 -10.32103
 Alpha  occ. eigenvalues --  -10.29473 -10.29321 -10.29214 -10.28922 -10.28809
 Alpha  occ. eigenvalues --  -10.28787 -10.28651 -10.28277 -10.27220 -10.26909
 Alpha  occ. eigenvalues --  -10.26904 -10.26688 -10.26521 -10.26233 -10.25974
 Alpha  occ. eigenvalues --  -10.25949 -10.25912 -10.25689 -10.25406 -10.25266
 Alpha  occ. eigenvalues --  -10.25248 -10.24966 -10.24800 -10.24744 -10.24616
 Alpha  occ. eigenvalues --  -10.24548 -10.24219 -10.24146 -10.23989 -10.23688
 Alpha  occ. eigenvalues --  -10.23467 -10.23425 -10.23310 -10.23201 -10.23192
 Alpha  occ. eigenvalues --  -10.23113 -10.23078 -10.23050 -10.22790 -10.22573
 Alpha  occ. eigenvalues --  -10.22278 -10.22267 -10.21974 -10.21928 -10.21916
 Alpha  occ. eigenvalues --  -10.21808 -10.21701 -10.21607 -10.21574 -10.21496
 Alpha  occ. eigenvalues --  -10.21235  -3.15044  -1.87895  -1.87415  -1.87259
 Alpha  occ. eigenvalues --   -1.12330  -1.12045  -1.04353  -1.04153  -1.02483
 Alpha  occ. eigenvalues --   -1.02441  -0.98636  -0.97837  -0.97338  -0.96617
 Alpha  occ. eigenvalues --   -0.86135  -0.84045  -0.83766  -0.83671  -0.83388
 Alpha  occ. eigenvalues --   -0.83272  -0.82437  -0.82124  -0.80849  -0.80589
 Alpha  occ. eigenvalues --   -0.80076  -0.79841  -0.78647  -0.78242  -0.77726
 Alpha  occ. eigenvalues --   -0.77281  -0.76915  -0.75964  -0.75558  -0.74942
 Alpha  occ. eigenvalues --   -0.74492  -0.72653  -0.72471  -0.71479  -0.70895
 Alpha  occ. eigenvalues --   -0.69945  -0.69225  -0.69033  -0.68767  -0.68212
 Alpha  occ. eigenvalues --   -0.67672  -0.67255  -0.66780  -0.65112  -0.64564
 Alpha  occ. eigenvalues --   -0.63040  -0.62166  -0.61637  -0.60567  -0.60035
 Alpha  occ. eigenvalues --   -0.59726  -0.59491  -0.59388  -0.59187  -0.58030
 Alpha  occ. eigenvalues --   -0.57744  -0.57596  -0.57030  -0.56284  -0.54466
 Alpha  occ. eigenvalues --   -0.54206  -0.53771  -0.53470  -0.52817  -0.52364
 Alpha  occ. eigenvalues --   -0.52204  -0.51741  -0.51048  -0.50357  -0.50165
 Alpha  occ. eigenvalues --   -0.50062  -0.49903  -0.49604  -0.48902  -0.48506
 Alpha  occ. eigenvalues --   -0.48119  -0.48083  -0.47951  -0.47875  -0.47467
 Alpha  occ. eigenvalues --   -0.47161  -0.46657  -0.46441  -0.46432  -0.46178
 Alpha  occ. eigenvalues --   -0.45967  -0.45913  -0.45445  -0.45386  -0.45368
 Alpha  occ. eigenvalues --   -0.45102  -0.44687  -0.44613  -0.44419  -0.44198
 Alpha  occ. eigenvalues --   -0.44171  -0.43894  -0.43754  -0.43572  -0.43399
 Alpha  occ. eigenvalues --   -0.43335  -0.42848  -0.42664  -0.42439  -0.42382
 Alpha  occ. eigenvalues --   -0.41931  -0.41815  -0.41699  -0.41625  -0.41537
 Alpha  occ. eigenvalues --   -0.41471  -0.40992  -0.40626  -0.40618  -0.40375
 Alpha  occ. eigenvalues --   -0.40334  -0.40141  -0.40090  -0.39924  -0.39717
 Alpha  occ. eigenvalues --   -0.39641  -0.39458  -0.39065  -0.38902  -0.38507
 Alpha  occ. eigenvalues --   -0.38402  -0.38253  -0.38085  -0.37855  -0.37773
 Alpha  occ. eigenvalues --   -0.37514  -0.37472  -0.37361  -0.37256  -0.37227
 Alpha  occ. eigenvalues --   -0.36863  -0.36647  -0.36325  -0.36229  -0.36057
 Alpha  occ. eigenvalues --   -0.35793  -0.35607  -0.35474  -0.35128  -0.34957
 Alpha  occ. eigenvalues --   -0.34607  -0.34297  -0.34063  -0.33828  -0.33183
 Alpha  occ. eigenvalues --   -0.33119  -0.32766  -0.32228  -0.32151  -0.32092
 Alpha  occ. eigenvalues --   -0.31927  -0.31735  -0.31677  -0.31205  -0.30915
 Alpha  occ. eigenvalues --   -0.30802  -0.30501  -0.30000  -0.29852  -0.29544
 Alpha  occ. eigenvalues --   -0.28997  -0.28491  -0.28446  -0.26993  -0.26152
 Alpha  occ. eigenvalues --   -0.25985  -0.25215  -0.24954  -0.24145  -0.21151
 Alpha  occ. eigenvalues --   -0.19024
 Alpha virt. eigenvalues --   -0.11148  -0.05842  -0.04113  -0.02395  -0.00652
 Alpha virt. eigenvalues --   -0.00064   0.00736   0.00966   0.02019   0.02749
 Alpha virt. eigenvalues --    0.03758   0.04018   0.04921   0.05294   0.05517

 Mulliken charges:
               1
     1  Mg   0.943409
     2  C   -0.042836
     3  C   -0.079534
     4  C   -0.085166
     5  C   -0.077376
     6  N   -0.389178
     7  C    0.051031
     8  C   -0.056140
     9  C   -0.190407
    10  C    0.075913
    11  C    0.029294
    12  C    0.002385
    13  C   -0.051419
    14  C    0.224012
    15  O   -0.264756
    16  O   -0.360271
    17  N   -0.499669
    18  C    0.212882
    19  C   -0.193369
    20  C   -0.105845
    21  C    0.222716
    22  C    0.088959
    23  C    0.031200
    24  O   -0.249259
    25  C    0.002753
    26  N   -0.370329
    27  C    0.002348
    28  C   -0.033696
    29  C   -0.108946
    30  C    0.087760
    31  C    0.020761
    32  C   -0.015081
    33  C   -0.091446
    34  N   -0.497089
    35  C    0.101298
    36  C   -0.193083
    37  C   -0.085914
    38  C    0.222976
    39  C    0.081679
    40  C    0.196234
    41  O   -0.220500
    42  C   -0.152501
    43  C    0.288438
    44  O   -0.268006
    45  O   -0.344803
    46  C    0.114723
    47  C    0.261885
    48  C   -0.178833
    49  C   -0.226176
    50  C    0.012987
    51  C    0.002435
    52  C   -0.094143
    53  C    0.012322
    54  C   -0.207386
    55  C   -0.020011
    56  C   -0.006326
    57  C   -0.029748
    58  C   -0.010230
    59  C   -0.200296
    60  C    0.004287
    61  C   -0.017865
    62  C   -0.048796
    63  C   -0.000658
    64  C   -0.277367
    65  C    0.002181
    66  C   -0.015359
    67  H    0.005081
    68  H   -0.008332
    69  H    0.002169
    70  H    0.047401
    71  H    0.060255
    72  H    0.055478
    73  H    0.036310
    74  H    0.055943
    75  H    0.055247
    76  H    0.054288
    77  H    0.081192
    78  H    0.071747
    79  H    0.057578
    80  H    0.073632
    81  H    0.028294
    82  H    0.087817
    83  H    0.039445
    84  H    0.066442
    85  H    0.042569
    86  H    0.049576
    87  H    0.050492
    88  H    0.040626
    89  H    0.040192
    90  H    0.043978
    91  H    0.048284
    92  H    0.042920
    93  H    0.042903
    94  H    0.043900
    95  H    0.073592
    96  H    0.073894
    97  H    0.026494
    98  H    0.069225
    99  H    0.066061
   100  H    0.072172
   101  H    0.044320
   102  H    0.046240
   103  H    0.083642
   104  H    0.040420
   105  H    0.043915
   106  H    0.067127
   107  H    0.039680
   108  H    0.046408
   109  H    0.040166
   110  H    0.037455
   111  H    0.034905
   112  H    0.031974
   113  H    0.033576
   114  H    0.025673
   115  H    0.038326
   116  H    0.039907
   117  H    0.024394
   118  H    0.012902
   119  H    0.025183
   120  H    0.022136
   121  H    0.044939
   122  H    0.024829
   123  H    0.017107
   124  H    0.026251
   125  H    0.038048
   126  H    0.019729
   127  H    0.035000
   128  H    0.026353
   129  H    0.021051
   130  H    0.026961
   131  H    0.028502
   132  H    0.019178
   133  H    0.026084
   134  H    0.043508
   135  H    0.037754
   136  H    0.036829
   137  H    0.032983
   138  H    0.026946
   139  H    0.030057
   140  H    0.025621
 Sum of Mulliken charges =  -0.00000

 Dipole moment (field-independent basis, Debye):
    X=              0.4789    Y=              3.2473    Z=              0.5522  Tot=              3.3286
 Quadrupole moment (field-independent basis, Debye-Ang):
   XX=           -388.6688   YY=           -383.7262   ZZ=           -427.0300
   XY=             14.5335   XZ=             -6.9484   YZ=             38.9358

 Normal termination of Gaussian 16 at Fri Apr 29 18:38:52 2022.
