 Gaussian 16, Revision A.03,
 Gaussian 16:  ES64L-G16RevA.03 25-Dec-2016

 --------------------------------
 #p wB97XD/Def2SVP td=(nstates=5)
 --------------------------------

 ---------------------------------------------------
 step_401_chromophore_8 TDDFT with wB97XD functional
 ---------------------------------------------------
 Symbolic Z-matrix:
 Charge =  0 Multiplicity = 1

                         Standard orientation:
 ---------------------------------------------------------------------
 Center     Atomic      Atomic             Coordinates (Angstroms)
 Number     Number       Type             X           Y           Z
 ---------------------------------------------------------------------
      1         12           0        4.318454    1.008408    0.110231
      2          6           0        4.044016   -2.333023    1.129966
      3          6           0        4.227186    0.012336   -3.195530
      4          6           0        4.212930    4.276104   -0.808736
      5          6           0        3.985270    2.046752    3.435877
      6          7           0        4.105901   -1.017069   -0.868091
      7          6           0        4.162821   -2.261365   -0.281546
      8          6           0        4.123692   -3.355221   -1.366145
      9          6           0        4.277359   -2.497804   -2.762223
     10          6           0        4.186504   -1.096187   -2.256886
     11          6           0        5.577032   -2.722451   -3.546304
     12          6           0        2.867378   -4.267090   -1.385997
     13          6           0        1.442912   -3.603991   -1.226142
     14          6           0        0.173582   -4.350388   -1.698014
     15          8           0        0.081940   -5.189771   -2.575009
     16          8           0       -0.960986   -3.848281   -1.137293
     17          7           0        4.200611    1.989997   -1.754026
     18          6           0        4.182640    1.374338   -2.970373
     19          6           0        4.145124    2.379951   -3.991893
     20          6           0        4.004842    3.659056   -3.315461
     21          6           0        4.183642    3.369200   -1.864555
     22          6           0        4.171168    2.059265   -5.462821
     23          6           0        3.845419    5.015771   -4.036959
     24          8           0        3.866293    5.032502   -5.269658
     25          6           0        3.601346    6.216089   -3.268979
     26          7           0        4.004634    2.939291    1.207754
     27          6           0        4.211369    4.166184    0.578781
     28          6           0        4.608382    5.203410    1.582803
     29          6           0        4.326360    4.526620    2.937492
     30          6           0        3.998992    3.104394    2.540653
     31          6           0        6.055488    5.752353    1.423442
     32          6           0        3.238765    5.061753    3.882277
     33          6           0        2.708783    6.545347    3.739031
     34          7           0        4.087154    0.088251    1.957297
     35          6           0        3.925655    0.596828    3.278342
     36          6           0        3.796555   -0.574206    4.208456
     37          6           0        3.979407   -1.669591    3.383808
     38          6           0        4.008882   -1.257960    2.039657
     39          6           0        3.630165   -0.549098    5.759644
     40          6           0        4.005445   -3.124129    3.479491
     41          8           0        3.775330   -3.981011    4.330352
     42          6           0        4.059984   -3.645901    1.972881
     43          6           0        5.269747   -4.501480    1.840868
     44          8           0        6.362742   -4.203937    2.344748
     45          8           0        5.027877   -5.526328    0.990041
     46          6           0        6.033561   -6.529898    0.836953
     47          6           0       -2.197410   -4.519307   -1.368948
     48          6           0       -3.262113   -3.502837   -1.293933
     49          6           0       -4.597072   -3.692147   -1.303551
     50          6           0       -5.215371   -5.044848   -1.033433
     51          6           0       -5.557945   -2.474390   -1.425705
     52          6           0       -4.971468   -1.055753   -1.842717
     53          6           0       -4.517581   -0.151089   -0.602385
     54          6           0       -5.382269    1.202437   -0.477938
     55          6           0       -4.693507    2.518278   -0.815830
     56          6           0       -6.164865    1.258477    0.860364
     57          6           0       -7.538085    0.560994    0.875000
     58          6           0       -8.638973    1.542909    1.217228
     59          6           0       -9.584135    2.000571    0.016777
     60          6           0       -9.496138    3.507369   -0.303932
     61          6           0      -11.044536    1.549279    0.275820
     62          6           0      -11.530156    0.186556   -0.080254
     63          6           0      -12.637938   -0.408751    0.843543
     64          6           0      -13.943203    0.438890    0.756375
     65          6           0      -15.095906   -0.271745   -0.037085
     66          6           0      -14.480620    0.888103    2.121813
     67          1           0        4.314008   -0.312536   -4.234126
     68          1           0        4.385415    5.328127   -1.048574
     69          1           0        4.115414    2.273333    4.496590
     70          1           0        5.001384   -3.996492   -1.287090
     71          1           0        3.439966   -2.820033   -3.380358
     72          1           0        5.300135   -3.102254   -4.529349
     73          1           0        6.063432   -3.395693   -2.840229
     74          1           0        6.154318   -1.803192   -3.640597
     75          1           0        2.981194   -4.988159   -0.576454
     76          1           0        2.994126   -4.827989   -2.311022
     77          1           0        1.470922   -2.681563   -1.805806
     78          1           0        1.177363   -3.400626   -0.188698
     79          1           0        4.965871    2.735193   -5.780062
     80          1           0        3.261684    2.326110   -6.000298
     81          1           0        4.592651    1.079881   -5.687784
     82          1           0        2.692823    6.210140   -2.667427
     83          1           0        3.580445    6.972781   -4.054278
     84          1           0        4.531242    6.549576   -2.810226
     85          1           0        3.883862    6.008703    1.460477
     86          1           0        5.246891    4.394468    3.505627
     87          1           0        6.250448    5.951070    0.369837
     88          1           0        6.834009    5.145207    1.885405
     89          1           0        6.185341    6.628993    2.058076
     90          1           0        3.576759    4.882340    4.902672
     91          1           0        2.325567    4.474043    3.791172
     92          1           0        3.142327    7.207683    2.990216
     93          1           0        2.759466    7.145557    4.647124
     94          1           0        1.650135    6.464261    3.492032
     95          1           0        4.430043   -1.153243    6.187026
     96          1           0        2.620052   -0.794326    6.089665
     97          1           0        3.829593    0.503545    5.960692
     98          1           0        3.232732   -4.337102    1.811449
     99          1           0        5.593569   -7.520346    0.953617
    100          1           0        6.897297   -6.368388    1.481267
    101          1           0        6.436783   -6.459205   -0.172849
    102          1           0       -2.386501   -5.070288   -0.447435
    103          1           0       -2.278083   -5.153747   -2.251803
    104          1           0       -2.851762   -2.493105   -1.280906
    105          1           0       -6.039376   -5.124591   -1.743188
    106          1           0       -5.534612   -5.096548    0.007937
    107          1           0       -4.482853   -5.824123   -1.242332
    108          1           0       -6.153720   -2.372088   -0.519754
    109          1           0       -6.180420   -2.676851   -2.297547
    110          1           0       -5.635237   -0.472364   -2.481467
    111          1           0       -4.105108   -1.351127   -2.435734
    112          1           0       -3.458697    0.091740   -0.689660
    113          1           0       -4.628376   -0.817132    0.253338
    114          1           0       -6.140085    1.192837   -1.261312
    115          1           0       -3.976561    2.774941   -0.036370
    116          1           0       -5.415194    3.287626   -1.092500
    117          1           0       -4.107636    2.454528   -1.733170
    118          1           0       -6.255826    2.328693    1.042666
    119          1           0       -5.594560    0.914392    1.724180
    120          1           0       -7.587586   -0.080278    1.754418
    121          1           0       -7.662912   -0.039315   -0.026553
    122          1           0       -8.280328    2.419663    1.756977
    123          1           0       -9.288127    1.020818    1.919861
    124          1           0       -9.122601    1.579574   -0.876755
    125          1           0       -8.963052    4.070512    0.461849
    126          1           0      -10.525507    3.859920   -0.368701
    127          1           0       -9.093603    3.583938   -1.313794
    128          1           0      -11.752647    2.237154   -0.187298
    129          1           0      -11.234728    1.610334    1.347367
    130          1           0      -10.743329   -0.568107   -0.065164
    131          1           0      -11.946387    0.290289   -1.081739
    132          1           0      -12.282527   -0.354917    1.872584
    133          1           0      -12.804307   -1.475210    0.694737
    134          1           0      -13.686827    1.346151    0.208543
    135          1           0      -16.059028   -0.128620    0.453896
    136          1           0      -14.905367   -1.331982   -0.199500
    137          1           0      -15.046871    0.260698   -0.986125
    138          1           0      -15.500166    0.546304    2.300934
    139          1           0      -14.539907    1.966759    2.267297
    140          1           0      -13.840646    0.550321    2.937334
 ---------------------------------------------------------------------

 SCF Done:  E(RwB97XD) =  -3007.85584463     A.U. after   19 cycles

 Excitation energies and oscillator strengths:

 Excited State   1:      Singlet-A      1.6815 eV  737.35 nm  f=0.3394  <S**2>=0.000
     245 -> 248        0.20542
     246 -> 247        0.67803
     245 <- 248        0.12184
 This state for optimization and/or second-order correction.
 Total Energy, E(TD-HF/TD-DFT) =  -3007.79405105
 Copying the excited state density for this state as the 1-particle RhoCI density.

 Excited State   2:      Singlet-A      2.1874 eV  566.81 nm  f=0.0754  <S**2>=0.000
     245 -> 247        0.62020
     246 -> 248       -0.32710

 Excited State   3:      Singlet-A      3.3510 eV  370.00 nm  f=0.0075  <S**2>=0.000
     243 -> 247        0.67388
     243 -> 249       -0.10096
     246 -> 248        0.13661

 Excited State   4:      Singlet-A      3.4593 eV  358.41 nm  f=0.0665  <S**2>=0.000
     241 -> 249       -0.13875
     241 -> 250        0.12326
     242 -> 247        0.52494
     242 -> 249        0.26510
     242 -> 250       -0.17223
     246 -> 248        0.22383

 Excited State   5:      Singlet-A      3.5109 eV  353.14 nm  f=0.6146  <S**2>=0.000
     241 -> 247        0.28326
     241 -> 249        0.12342
     242 -> 249       -0.10452
     243 -> 247       -0.10211
     245 -> 247        0.28115
     246 -> 248        0.52654
     245 <- 247       -0.10370

 The electronic state is 1-A.
 Alpha  occ. eigenvalues --  -46.96143 -19.31550 -19.29897 -19.24569 -19.24149
 Alpha  occ. eigenvalues --  -19.23982 -19.23939 -14.47598 -14.46175 -14.44409
 Alpha  occ. eigenvalues --  -14.44405 -10.43380 -10.43219 -10.39025 -10.38933
 Alpha  occ. eigenvalues --  -10.35893 -10.35718 -10.35516 -10.35378 -10.35270
 Alpha  occ. eigenvalues --  -10.35102 -10.35042 -10.34457 -10.33768 -10.33130
 Alpha  occ. eigenvalues --  -10.33087 -10.33043 -10.32751 -10.32619 -10.32503
 Alpha  occ. eigenvalues --  -10.32344 -10.32232 -10.31876 -10.31815 -10.31801
 Alpha  occ. eigenvalues --  -10.31595 -10.31454 -10.31069 -10.31035 -10.30996
 Alpha  occ. eigenvalues --  -10.30950 -10.30541 -10.30485 -10.30394 -10.30047
 Alpha  occ. eigenvalues --  -10.30041 -10.29825 -10.29745 -10.29648 -10.29475
 Alpha  occ. eigenvalues --  -10.29421 -10.29386 -10.29343 -10.29143 -10.28935
 Alpha  occ. eigenvalues --  -10.28649 -10.28614 -10.28349 -10.28293 -10.28271
 Alpha  occ. eigenvalues --  -10.28184 -10.28146 -10.28017 -10.27938 -10.27913
 Alpha  occ. eigenvalues --  -10.27649  -3.21899  -1.95492  -1.95016  -1.94856
 Alpha  occ. eigenvalues --   -1.19727  -1.19386  -1.11933  -1.11583  -1.09825
 Alpha  occ. eigenvalues --   -1.09801  -1.06025  -1.05254  -1.04767  -1.04004
 Alpha  occ. eigenvalues --   -0.93726  -0.91707  -0.91429  -0.91295  -0.90981
 Alpha  occ. eigenvalues --   -0.90902  -0.90101  -0.89759  -0.88509  -0.88213
 Alpha  occ. eigenvalues --   -0.87727  -0.87571  -0.86316  -0.85853  -0.85431
 Alpha  occ. eigenvalues --   -0.84997  -0.84552  -0.83565  -0.83193  -0.82584
 Alpha  occ. eigenvalues --   -0.82132  -0.80273  -0.80053  -0.79187  -0.78515
 Alpha  occ. eigenvalues --   -0.77576  -0.76897  -0.76729  -0.76436  -0.75863
 Alpha  occ. eigenvalues --   -0.75211  -0.74849  -0.74340  -0.72712  -0.72106
 Alpha  occ. eigenvalues --   -0.70519  -0.69797  -0.69255  -0.68183  -0.67548
 Alpha  occ. eigenvalues --   -0.67320  -0.67043  -0.66810  -0.66682  -0.65502
 Alpha  occ. eigenvalues --   -0.65263  -0.65150  -0.64677  -0.63918  -0.61883
 Alpha  occ. eigenvalues --   -0.61706  -0.61149  -0.60878  -0.60297  -0.59742
 Alpha  occ. eigenvalues --   -0.59720  -0.59242  -0.58506  -0.57780  -0.57620
 Alpha  occ. eigenvalues --   -0.57490  -0.57286  -0.56988  -0.56270  -0.55888
 Alpha  occ. eigenvalues --   -0.55642  -0.55580  -0.55337  -0.55250  -0.54823
 Alpha  occ. eigenvalues --   -0.54519  -0.54026  -0.53815  -0.53676  -0.53553
 Alpha  occ. eigenvalues --   -0.53326  -0.53247  -0.52813  -0.52742  -0.52688
 Alpha  occ. eigenvalues --   -0.52423  -0.52219  -0.51960  -0.51762  -0.51617
 Alpha  occ. eigenvalues --   -0.51514  -0.51205  -0.51051  -0.50907  -0.50691
 Alpha  occ. eigenvalues --   -0.50555  -0.50091  -0.49962  -0.49721  -0.49619
 Alpha  occ. eigenvalues --   -0.49341  -0.49082  -0.48948  -0.48880  -0.48788
 Alpha  occ. eigenvalues --   -0.48706  -0.48197  -0.47856  -0.47729  -0.47588
 Alpha  occ. eigenvalues --   -0.47536  -0.47282  -0.47246  -0.47121  -0.46899
 Alpha  occ. eigenvalues --   -0.46877  -0.46687  -0.46248  -0.46056  -0.45658
 Alpha  occ. eigenvalues --   -0.45529  -0.45326  -0.45212  -0.45006  -0.44880
 Alpha  occ. eigenvalues --   -0.44746  -0.44612  -0.44487  -0.44373  -0.44319
 Alpha  occ. eigenvalues --   -0.43989  -0.43677  -0.43328  -0.43260  -0.43177
 Alpha  occ. eigenvalues --   -0.42909  -0.42605  -0.42565  -0.42208  -0.41853
 Alpha  occ. eigenvalues --   -0.41687  -0.41319  -0.41114  -0.40868  -0.40145
 Alpha  occ. eigenvalues --   -0.40089  -0.39808  -0.39251  -0.39178  -0.39120
 Alpha  occ. eigenvalues --   -0.38875  -0.38754  -0.38705  -0.38220  -0.37914
 Alpha  occ. eigenvalues --   -0.37799  -0.37449  -0.36948  -0.36698  -0.36558
 Alpha  occ. eigenvalues --   -0.35896  -0.35599  -0.35172  -0.33581  -0.33267
 Alpha  occ. eigenvalues --   -0.32720  -0.32148  -0.31687  -0.30890  -0.26137
 Alpha  occ. eigenvalues --   -0.23174
 Alpha virt. eigenvalues --   -0.06974  -0.00566   0.02191   0.04121   0.05305
 Alpha virt. eigenvalues --    0.06762   0.07425   0.07800   0.08754   0.09290
 Alpha virt. eigenvalues --    0.10129   0.10848   0.11653   0.12094   0.12239

 Mulliken charges:
               1
     1  Mg   0.936255
     2  C   -0.043552
     3  C   -0.098569
     4  C   -0.095869
     5  C   -0.089849
     6  N   -0.355671
     7  C    0.011502
     8  C   -0.027974
     9  C   -0.168801
    10  C    0.064653
    11  C    0.040713
    12  C    0.016126
    13  C   -0.031294
    14  C    0.213732
    15  O   -0.262104
    16  O   -0.357669
    17  N   -0.466359
    18  C    0.206966
    19  C   -0.181474
    20  C   -0.103515
    21  C    0.219700
    22  C    0.099462
    23  C    0.028859
    24  O   -0.243847
    25  C    0.011643
    26  N   -0.340849
    27  C   -0.010137
    28  C   -0.004786
    29  C   -0.086748
    30  C    0.077114
    31  C    0.032313
    32  C   -0.003187
    33  C   -0.075642
    34  N   -0.463102
    35  C    0.090361
    36  C   -0.195835
    37  C   -0.077156
    38  C    0.206048
    39  C    0.097755
    40  C    0.177872
    41  O   -0.212597
    42  C   -0.114452
    43  C    0.264402
    44  O   -0.263760
    45  O   -0.342017
    46  C    0.129900
    47  C    0.272130
    48  C   -0.179374
    49  C   -0.217013
    50  C    0.027962
    51  C    0.018590
    52  C   -0.069988
    53  C    0.019963
    54  C   -0.173348
    55  C   -0.006495
    56  C    0.007624
    57  C   -0.011023
    58  C    0.006251
    59  C   -0.176920
    60  C    0.016979
    61  C    0.006636
    62  C   -0.029811
    63  C    0.014350
    64  C   -0.248325
    65  C    0.015475
    66  C   -0.002291
    67  H   -0.002345
    68  H   -0.022289
    69  H   -0.006161
    70  H    0.033174
    71  H    0.050423
    72  H    0.051481
    73  H    0.029830
    74  H    0.048895
    75  H    0.043947
    76  H    0.047559
    77  H    0.071762
    78  H    0.064865
    79  H    0.052269
    80  H    0.071880
    81  H    0.024638
    82  H    0.085407
    83  H    0.037791
    84  H    0.062877
    85  H    0.029745
    86  H    0.039056
    87  H    0.044331
    88  H    0.035182
    89  H    0.034417
    90  H    0.037448
    91  H    0.040052
    92  H    0.035669
    93  H    0.037659
    94  H    0.037918
    95  H    0.068710
    96  H    0.069426
    97  H    0.017909
    98  H    0.062444
    99  H    0.062424
   100  H    0.068706
   101  H    0.039757
   102  H    0.039449
   103  H    0.080574
   104  H    0.032496
   105  H    0.038134
   106  H    0.062149
   107  H    0.033915
   108  H    0.037020
   109  H    0.031814
   110  H    0.029885
   111  H    0.023638
   112  H    0.025363
   113  H    0.022810
   114  H    0.008099
   115  H    0.032146
   116  H    0.034077
   117  H    0.018011
   118  H    0.000295
   119  H    0.018373
   120  H    0.015079
   121  H    0.032712
   122  H    0.015576
   123  H    0.006907
   124  H    0.012938
   125  H    0.032226
   126  H    0.013015
   127  H    0.029870
   128  H    0.014974
   129  H    0.006305
   130  H    0.018993
   131  H    0.018273
   132  H    0.007083
   133  H    0.019612
   134  H    0.028302
   135  H    0.031475
   136  H    0.030833
   137  H    0.026901
   138  H    0.020252
   139  H    0.024745
   140  H    0.018892
 Sum of Mulliken charges =  -0.00000

 Dipole moment (field-independent basis, Debye):
    X=              0.5196    Y=              3.3603    Z=              0.2204  Tot=              3.4074
 Quadrupole moment (field-independent basis, Debye-Ang):
   XX=           -387.7868   YY=           -382.8007   ZZ=           -426.9133
   XY=             14.8749   XZ=             -8.3746   YZ=             37.7140

 Normal termination of Gaussian 16 at Fri Apr 29 19:17:07 2022.
