 Gaussian 16, Revision A.03,
 Gaussian 16:  ES64L-G16RevA.03 25-Dec-2016

 --------------------
 #p ZINDO=(nstates=5)
 --------------------

 ----------------------------
 step_401_chromophore_8 ZINDO
 ----------------------------
 Symbolic Z-matrix:
 Charge =  0 Multiplicity = 1

                         Standard orientation:
 ---------------------------------------------------------------------
 Center     Atomic      Atomic             Coordinates (Angstroms)
 Number     Number       Type             X           Y           Z
 ---------------------------------------------------------------------
      1         12           0        4.318454    1.008408    0.110231
      2          6           0        4.044016   -2.333023    1.129966
      3          6           0        4.227186    0.012336   -3.195530
      4          6           0        4.212930    4.276104   -0.808736
      5          6           0        3.985270    2.046752    3.435877
      6          7           0        4.105901   -1.017069   -0.868091
      7          6           0        4.162821   -2.261365   -0.281546
      8          6           0        4.123692   -3.355221   -1.366145
      9          6           0        4.277359   -2.497804   -2.762223
     10          6           0        4.186504   -1.096187   -2.256886
     11          6           0        5.577032   -2.722451   -3.546304
     12          6           0        2.867378   -4.267090   -1.385997
     13          6           0        1.442912   -3.603991   -1.226142
     14          6           0        0.173582   -4.350388   -1.698014
     15          8           0        0.081940   -5.189771   -2.575009
     16          8           0       -0.960986   -3.848281   -1.137293
     17          7           0        4.200611    1.989997   -1.754026
     18          6           0        4.182640    1.374338   -2.970373
     19          6           0        4.145124    2.379951   -3.991893
     20          6           0        4.004842    3.659056   -3.315461
     21          6           0        4.183642    3.369200   -1.864555
     22          6           0        4.171168    2.059265   -5.462821
     23          6           0        3.845419    5.015771   -4.036959
     24          8           0        3.866293    5.032502   -5.269658
     25          6           0        3.601346    6.216089   -3.268979
     26          7           0        4.004634    2.939291    1.207754
     27          6           0        4.211369    4.166184    0.578781
     28          6           0        4.608382    5.203410    1.582803
     29          6           0        4.326360    4.526620    2.937492
     30          6           0        3.998992    3.104394    2.540653
     31          6           0        6.055488    5.752353    1.423442
     32          6           0        3.238765    5.061753    3.882277
     33          6           0        2.708783    6.545347    3.739031
     34          7           0        4.087154    0.088251    1.957297
     35          6           0        3.925655    0.596828    3.278342
     36          6           0        3.796555   -0.574206    4.208456
     37          6           0        3.979407   -1.669591    3.383808
     38          6           0        4.008882   -1.257960    2.039657
     39          6           0        3.630165   -0.549098    5.759644
     40          6           0        4.005445   -3.124129    3.479491
     41          8           0        3.775330   -3.981011    4.330352
     42          6           0        4.059984   -3.645901    1.972881
     43          6           0        5.269747   -4.501480    1.840868
     44          8           0        6.362742   -4.203937    2.344748
     45          8           0        5.027877   -5.526328    0.990041
     46          6           0        6.033561   -6.529898    0.836953
     47          6           0       -2.197410   -4.519307   -1.368948
     48          6           0       -3.262113   -3.502837   -1.293933
     49          6           0       -4.597072   -3.692147   -1.303551
     50          6           0       -5.215371   -5.044848   -1.033433
     51          6           0       -5.557945   -2.474390   -1.425705
     52          6           0       -4.971468   -1.055753   -1.842717
     53          6           0       -4.517581   -0.151089   -0.602385
     54          6           0       -5.382269    1.202437   -0.477938
     55          6           0       -4.693507    2.518278   -0.815830
     56          6           0       -6.164865    1.258477    0.860364
     57          6           0       -7.538085    0.560994    0.875000
     58          6           0       -8.638973    1.542909    1.217228
     59          6           0       -9.584135    2.000571    0.016777
     60          6           0       -9.496138    3.507369   -0.303932
     61          6           0      -11.044536    1.549279    0.275820
     62          6           0      -11.530156    0.186556   -0.080254
     63          6           0      -12.637938   -0.408751    0.843543
     64          6           0      -13.943203    0.438890    0.756375
     65          6           0      -15.095906   -0.271745   -0.037085
     66          6           0      -14.480620    0.888103    2.121813
     67          1           0        4.314008   -0.312536   -4.234126
     68          1           0        4.385415    5.328127   -1.048574
     69          1           0        4.115414    2.273333    4.496590
     70          1           0        5.001384   -3.996492   -1.287090
     71          1           0        3.439966   -2.820033   -3.380358
     72          1           0        5.300135   -3.102254   -4.529349
     73          1           0        6.063432   -3.395693   -2.840229
     74          1           0        6.154318   -1.803192   -3.640597
     75          1           0        2.981194   -4.988159   -0.576454
     76          1           0        2.994126   -4.827989   -2.311022
     77          1           0        1.470922   -2.681563   -1.805806
     78          1           0        1.177363   -3.400626   -0.188698
     79          1           0        4.965871    2.735193   -5.780062
     80          1           0        3.261684    2.326110   -6.000298
     81          1           0        4.592651    1.079881   -5.687784
     82          1           0        2.692823    6.210140   -2.667427
     83          1           0        3.580445    6.972781   -4.054278
     84          1           0        4.531242    6.549576   -2.810226
     85          1           0        3.883862    6.008703    1.460477
     86          1           0        5.246891    4.394468    3.505627
     87          1           0        6.250448    5.951070    0.369837
     88          1           0        6.834009    5.145207    1.885405
     89          1           0        6.185341    6.628993    2.058076
     90          1           0        3.576759    4.882340    4.902672
     91          1           0        2.325567    4.474043    3.791172
     92          1           0        3.142327    7.207683    2.990216
     93          1           0        2.759466    7.145557    4.647124
     94          1           0        1.650135    6.464261    3.492032
     95          1           0        4.430043   -1.153243    6.187026
     96          1           0        2.620052   -0.794326    6.089665
     97          1           0        3.829593    0.503545    5.960692
     98          1           0        3.232732   -4.337102    1.811449
     99          1           0        5.593569   -7.520346    0.953617
    100          1           0        6.897297   -6.368388    1.481267
    101          1           0        6.436783   -6.459205   -0.172849
    102          1           0       -2.386501   -5.070288   -0.447435
    103          1           0       -2.278083   -5.153747   -2.251803
    104          1           0       -2.851762   -2.493105   -1.280906
    105          1           0       -6.039376   -5.124591   -1.743188
    106          1           0       -5.534612   -5.096548    0.007937
    107          1           0       -4.482853   -5.824123   -1.242332
    108          1           0       -6.153720   -2.372088   -0.519754
    109          1           0       -6.180420   -2.676851   -2.297547
    110          1           0       -5.635237   -0.472364   -2.481467
    111          1           0       -4.105108   -1.351127   -2.435734
    112          1           0       -3.458697    0.091740   -0.689660
    113          1           0       -4.628376   -0.817132    0.253338
    114          1           0       -6.140085    1.192837   -1.261312
    115          1           0       -3.976561    2.774941   -0.036370
    116          1           0       -5.415194    3.287626   -1.092500
    117          1           0       -4.107636    2.454528   -1.733170
    118          1           0       -6.255826    2.328693    1.042666
    119          1           0       -5.594560    0.914392    1.724180
    120          1           0       -7.587586   -0.080278    1.754418
    121          1           0       -7.662912   -0.039315   -0.026553
    122          1           0       -8.280328    2.419663    1.756977
    123          1           0       -9.288127    1.020818    1.919861
    124          1           0       -9.122601    1.579574   -0.876755
    125          1           0       -8.963052    4.070512    0.461849
    126          1           0      -10.525507    3.859920   -0.368701
    127          1           0       -9.093603    3.583938   -1.313794
    128          1           0      -11.752647    2.237154   -0.187298
    129          1           0      -11.234728    1.610334    1.347367
    130          1           0      -10.743329   -0.568107   -0.065164
    131          1           0      -11.946387    0.290289   -1.081739
    132          1           0      -12.282527   -0.354917    1.872584
    133          1           0      -12.804307   -1.475210    0.694737
    134          1           0      -13.686827    1.346151    0.208543
    135          1           0      -16.059028   -0.128620    0.453896
    136          1           0      -14.905367   -1.331982   -0.199500
    137          1           0      -15.046871    0.260698   -0.986125
    138          1           0      -15.500166    0.546304    2.300934
    139          1           0      -14.539907    1.966759    2.267297
    140          1           0      -13.840646    0.550321    2.937334
 ---------------------------------------------------------------------

 SCF Done:  E(RZINDO/S) =  -474.122492343     A.U. after   19 cycles

 Excitation energies and oscillator strengths:

 Excited State   1:      Singlet-A      1.2747 eV  972.65 nm  f=0.5570  <S**2>=0.000
     175 ->178         0.20040
     176 ->177         0.66099
 This state for optimization and/or second-order correction.
 Total Energy, E(CIS/TDA) =  -474.075647990
 Copying the excited state density for this state as the 1-particle RhoCI density.

 Excited State   2:      Singlet-A      1.8946 eV  654.40 nm  f=0.0065  <S**2>=0.000
     175 ->177         0.50703
     176 ->178        -0.47107

 Excited State   3:      Singlet-A      2.8998 eV  427.56 nm  f=0.0024  <S**2>=0.000
     169 ->177         0.17145
     169 ->179         0.20591
     169 ->180         0.24469
     169 ->185         0.11084
     170 ->177         0.21458
     170 ->179         0.24439
     170 ->180         0.30463
     170 ->185         0.13498
     170 ->187         0.10969
     176 ->179        -0.10044

 Excited State   4:      Singlet-A      3.0086 eV  412.10 nm  f=0.7178  <S**2>=0.000
     168 ->177         0.11300
     168 ->179        -0.15524
     168 ->180         0.11571
     168 ->185        -0.10385
     175 ->177        -0.32880
     176 ->178        -0.35053
     176 ->179         0.36186
     176 ->180         0.14697

 Excited State   5:      Singlet-A      3.0197 eV  410.58 nm  f=0.4005  <S**2>=0.000
     168 ->177         0.21549
     168 ->178        -0.11941
     168 ->179        -0.32986
     168 ->180         0.25035
     168 ->185        -0.22320
     171 ->177        -0.10218
     175 ->177         0.24391
     176 ->178         0.27649

 The electronic state is 1-A.
 Alpha  occ. eigenvalues --   -1.82171  -1.80790  -1.79094  -1.75179  -1.73051
 Alpha  occ. eigenvalues --   -1.70640  -1.64930  -1.60071  -1.59820  -1.58408
 Alpha  occ. eigenvalues --   -1.54460  -1.50427  -1.47279  -1.46167  -1.45922
 Alpha  occ. eigenvalues --   -1.44098  -1.42372  -1.40621  -1.39129  -1.38155
 Alpha  occ. eigenvalues --   -1.35891  -1.33218  -1.31980  -1.30686  -1.30080
 Alpha  occ. eigenvalues --   -1.28695  -1.27200  -1.23409  -1.22785  -1.19030
 Alpha  occ. eigenvalues --   -1.17196  -1.15466  -1.14861  -1.14850  -1.13608
 Alpha  occ. eigenvalues --   -1.12238  -1.10052  -1.09194  -1.05939  -1.04144
 Alpha  occ. eigenvalues --   -1.02321  -1.00751  -0.99369  -0.98757  -0.96696
 Alpha  occ. eigenvalues --   -0.95692  -0.94630  -0.93548  -0.92323  -0.92088
 Alpha  occ. eigenvalues --   -0.91451  -0.90665  -0.88813  -0.88265  -0.87089
 Alpha  occ. eigenvalues --   -0.85939  -0.85211  -0.83491  -0.82546  -0.80415
 Alpha  occ. eigenvalues --   -0.80059  -0.78165  -0.77117  -0.76128  -0.75795
 Alpha  occ. eigenvalues --   -0.75480  -0.75040  -0.74365  -0.73662  -0.73365
 Alpha  occ. eigenvalues --   -0.72992  -0.72449  -0.71984  -0.71412  -0.70954
 Alpha  occ. eigenvalues --   -0.70004  -0.69297  -0.68910  -0.68660  -0.67843
 Alpha  occ. eigenvalues --   -0.67393  -0.67361  -0.66827  -0.66427  -0.65820
 Alpha  occ. eigenvalues --   -0.65368  -0.64853  -0.64776  -0.64506  -0.63915
 Alpha  occ. eigenvalues --   -0.63226  -0.63003  -0.62919  -0.62654  -0.62453
 Alpha  occ. eigenvalues --   -0.61888  -0.61232  -0.60959  -0.60295  -0.59921
 Alpha  occ. eigenvalues --   -0.59612  -0.59222  -0.58740  -0.58404  -0.58108
 Alpha  occ. eigenvalues --   -0.58046  -0.57570  -0.57371  -0.56687  -0.56483
 Alpha  occ. eigenvalues --   -0.56336  -0.55878  -0.55702  -0.55584  -0.54421
 Alpha  occ. eigenvalues --   -0.54398  -0.54114  -0.53794  -0.53520  -0.52955
 Alpha  occ. eigenvalues --   -0.52899  -0.52597  -0.52297  -0.52073  -0.51939
 Alpha  occ. eigenvalues --   -0.51266  -0.51175  -0.50866  -0.50516  -0.50045
 Alpha  occ. eigenvalues --   -0.49697  -0.49440  -0.49399  -0.49264  -0.48923
 Alpha  occ. eigenvalues --   -0.48781  -0.48712  -0.48519  -0.47968  -0.47798
 Alpha  occ. eigenvalues --   -0.47550  -0.47424  -0.46722  -0.46471  -0.46231
 Alpha  occ. eigenvalues --   -0.46196  -0.45617  -0.45596  -0.45206  -0.44925
 Alpha  occ. eigenvalues --   -0.44905  -0.44723  -0.44692  -0.44430  -0.44304
 Alpha  occ. eigenvalues --   -0.44022  -0.43615  -0.43192  -0.42892  -0.42526
 Alpha  occ. eigenvalues --   -0.41738  -0.41546  -0.41150  -0.39304  -0.38737
 Alpha  occ. eigenvalues --   -0.38210  -0.37706  -0.35817  -0.34886  -0.34457
 Alpha  occ. eigenvalues --   -0.33309  -0.32915  -0.32510  -0.31352  -0.26996
 Alpha  occ. eigenvalues --   -0.21915
 Alpha virt. eigenvalues --   -0.08480  -0.02938  -0.00669   0.01261   0.01606
 Alpha virt. eigenvalues --    0.02049   0.02144   0.02438   0.04231   0.05200
 Alpha virt. eigenvalues --    0.05636   0.06809   0.06934   0.07457   0.07697

 Mulliken charges:
               1
     1  Mg   0.432855
     2  C   -0.032165
     3  C   -0.074021
     4  C   -0.085305
     5  C   -0.070171
     6  N   -0.285427
     7  C    0.097780
     8  C    0.000069
     9  C   -0.005550
    10  C    0.144912
    11  C   -0.054516
    12  C   -0.018511
    13  C    0.009490
    14  C    0.461372
    15  O   -0.523575
    16  O   -0.269798
    17  N   -0.333587
    18  C    0.128179
    19  C    0.050599
    20  C   -0.070525
    21  C    0.141408
    22  C   -0.039671
    23  C    0.336675
    24  O   -0.527206
    25  C   -0.033147
    26  N   -0.292337
    27  C    0.141045
    28  C    0.018820
    29  C    0.010287
    30  C    0.123482
    31  C   -0.049162
    32  C   -0.024839
    33  C   -0.064803
    34  N   -0.320270
    35  C    0.065715
    36  C    0.015112
    37  C   -0.032873
    38  C    0.115887
    39  C   -0.040066
    40  C    0.328056
    41  O   -0.517819
    42  C    0.038705
    43  C    0.490989
    44  O   -0.527494
    45  O   -0.263531
    46  C    0.076746
    47  C    0.111193
    48  C   -0.077300
    49  C   -0.031503
    50  C   -0.041877
    51  C   -0.027394
    52  C   -0.048648
    53  C   -0.040178
    54  C   -0.014144
    55  C   -0.051710
    56  C   -0.034927
    57  C   -0.031251
    58  C   -0.036074
    59  C   -0.018653
    60  C   -0.062601
    61  C   -0.026084
    62  C   -0.027994
    63  C   -0.035544
    64  C   -0.013716
    65  C   -0.062532
    66  C   -0.059443
    67  H    0.031307
    68  H    0.014538
    69  H    0.014159
    70  H    0.036003
    71  H    0.035656
    72  H    0.029967
    73  H    0.033409
    74  H    0.028542
    75  H    0.022707
    76  H    0.031385
    77  H    0.048555
    78  H    0.042255
    79  H    0.034458
    80  H    0.052138
    81  H    0.026008
    82  H    0.052447
    83  H    0.028454
    84  H    0.045153
    85  H    0.030815
    86  H    0.030571
    87  H    0.028219
    88  H    0.027737
    89  H    0.016407
    90  H    0.021273
    91  H    0.022807
    92  H    0.022039
    93  H    0.018862
    94  H    0.015472
    95  H    0.043401
    96  H    0.043435
    97  H    0.017066
    98  H    0.052053
    99  H    0.039542
   100  H    0.054648
   101  H    0.026593
   102  H    0.040432
   103  H    0.070703
   104  H    0.031935
   105  H    0.024787
   106  H    0.036123
   107  H    0.023741
   108  H    0.029155
   109  H    0.019738
   110  H    0.025091
   111  H    0.020126
   112  H    0.021095
   113  H    0.023304
   114  H    0.014321
   115  H    0.020404
   116  H    0.022514
   117  H    0.007225
   118  H    0.011306
   119  H    0.017200
   120  H    0.012337
   121  H    0.030946
   122  H    0.023968
   123  H    0.008575
   124  H    0.019358
   125  H    0.027024
   126  H    0.015475
   127  H    0.020188
   128  H    0.014766
   129  H    0.014941
   130  H    0.012790
   131  H    0.015269
   132  H    0.013127
   133  H    0.020939
   134  H    0.021774
   135  H    0.025038
   136  H    0.023143
   137  H    0.016037
   138  H    0.017335
   139  H    0.013284
   140  H    0.014972
 Sum of Mulliken charges =  -0.00000

 Dipole moment (field-independent basis, Debye):
    X=              0.2979    Y=              4.7087    Z=             -0.6318  Tot=              4.7602
 N-N= 4.402652965774D+03 E-N= 0.000000000000D+00  KE=-9.479195842702D+03
 Leave Link  601 at Fri Apr 29 19:35:53 2022, MaxMem=  6710886400 cpu:               0.7 elap:               0.0
 (Enter /sw/apps/gaussian-16.0/g16/l9999.exe)
 1\1\GINC-BP1-COMPUTE160\SP\RZINDO CIS\STO-3G\C55H74Mg1N4O6\OF15641\29-
 Apr-2022\0\\#p ZINDO=(nstates=5)\\step_401_chromophore_8 ZINDO\\0,1\Mg
 ,0,44.658,3.277,47.116\C,0,42.285,5.854,47.025\C,0,42.122,0.933,47.062
 \C,0,47.002,0.836,46.832\C,0,47.222,5.63,46.744\N,0,42.409,3.464,47.00
 7\C,0,41.637,4.597,47.133\C,0,40.144,4.216,47.147\C,0,40.182,2.574,47.
 248\C,0,41.641,2.304,47.085\C,0,39.648,1.971,48.554\C,0,39.294,4.699,4
 5.941\C,0,39.884,4.546,44.484\C,0,38.947,4.556,43.254\O,0,37.776,4.227

 Normal termination of Gaussian 16 at Fri Apr 29 19:35:53 2022.
