 Gaussian 16, Revision A.03,
 Gaussian 16:  ES64L-G16RevA.03 25-Dec-2016

 ------------------------------
 #p blyp/Def2SVP td=(nstates=5)
 ------------------------------

 ---------------------------------------------------
 step_1051_chromophore_16 TDDFT with blyp functional
 ---------------------------------------------------
 Symbolic Z-matrix:
 Charge =  0 Multiplicity = 1

                         Standard orientation:
 ---------------------------------------------------------------------
 Center     Atomic      Atomic             Coordinates (Angstroms)
 Number     Number       Type             X           Y           Z
 ---------------------------------------------------------------------
      1         12           0        6.011690    0.670962    0.245207
      2          6           0        3.659282   -1.978484    0.151139
      3          6           0        3.618798    2.631863   -1.026096
      4          6           0        8.359297    2.783475   -0.202279
      5          6           0        8.462156   -1.809385    1.258256
      6          7           0        3.879823    0.355016   -0.332189
      7          6           0        3.117035   -0.796731   -0.288925
      8          6           0        1.672063   -0.609342   -0.787571
      9          6           0        1.665563    0.914994   -1.158580
     10          6           0        3.120119    1.369466   -0.803866
     11          6           0        1.010419    1.394472   -2.519301
     12          6           0        0.638092   -1.007635    0.305198
     13          6           0       -0.758948   -0.238970    0.462791
     14          6           0       -1.883569   -1.217911    0.638366
     15          8           0       -2.495774   -1.419496    1.685374
     16          8           0       -2.065987   -1.941706   -0.476251
     17          7           0        5.995951    2.566162   -0.483002
     18          6           0        4.884413    3.230953   -0.832403
     19          6           0        5.331784    4.505015   -1.262876
     20          6           0        6.742160    4.545017   -1.007033
     21          6           0        7.095296    3.223307   -0.582009
     22          6           0        4.428048    5.561590   -1.760266
     23          6           0        7.718852    5.729484   -1.015249
     24          8           0        8.929683    5.604681   -0.658896
     25          6           0        7.312804    7.119509   -1.582858
     26          7           0        8.013026    0.536779    0.759016
     27          6           0        8.806778    1.598499    0.371866
     28          6           0       10.345370    1.318664    0.696404
     29          6           0       10.286220   -0.018886    1.497714
     30          6           0        8.886649   -0.493841    1.189186
     31          6           0       11.267835    1.211286   -0.509572
     32          6           0       10.555354    0.130439    3.035991
     33          6           0        9.670068    1.166599    3.789363
     34          7           0        6.093941   -1.422501    0.729267
     35          6           0        7.133517   -2.264409    1.032223
     36          6           0        6.636341   -3.590346    1.177281
     37          6           0        5.272782   -3.496646    0.844325
     38          6           0        4.997513   -2.188126    0.489070
     39          6           0        7.435145   -4.844573    1.361265
     40          6           0        4.180753   -4.365002    0.681205
     41          8           0        3.990841   -5.580845    0.764346
     42          6           0        3.079728   -3.378388    0.278625
     43          6           0        2.361497   -3.971256   -0.880220
     44          8           0        2.667453   -3.777018   -2.034869
     45          8           0        1.356395   -4.862636   -0.516061
     46          6           0        0.625155   -5.464404   -1.642019
     47          6           0       -3.096285   -3.017777   -0.367922
     48          6           0       -4.366284   -2.360985   -0.890990
     49          6           0       -5.436459   -3.068646   -1.309603
     50          6           0       -5.527460   -4.636617   -1.241040
     51          6           0       -6.775628   -2.400115   -1.803489
     52          6           0       -7.527971   -1.596164   -0.736301
     53          6           0       -7.809204   -0.085771   -1.108945
     54          6           0       -9.206062    0.008059   -1.702639
     55          6           0       -9.208282    0.716963   -3.030091
     56          6           0      -10.279937    0.529087   -0.718417
     57          6           0      -11.792459    0.461608   -1.263924
     58          6           0      -12.720546    0.061237   -0.186454
     59          6           0      -14.103236    0.676921   -0.135313
     60          6           0      -14.841666    0.347294   -1.462118
     61          6           0      -13.949436    2.179760    0.107496
     62          6           0      -15.007997    2.756213    1.111405
     63          6           0      -14.307938    3.388840    2.343728
     64          6           0      -13.598625    2.336015    3.202422
     65          6           0      -12.456375    3.035559    4.038407
     66          6           0      -14.618802    1.618218    4.089998
     67          1           0        2.955020    3.378349   -1.466793
     68          1           0        9.098425    3.514882   -0.535135
     69          1           0        9.254155   -2.545929    1.408549
     70          1           0        1.469660   -1.220995   -1.666837
     71          1           0        1.073570    1.507594   -0.461938
     72          1           0        1.707635    1.905911   -3.182283
     73          1           0        0.192009    2.100767   -2.374337
     74          1           0        0.627025    0.514207   -3.035084
     75          1           0        1.082235   -0.883872    1.292472
     76          1           0        0.366122   -2.033626    0.054786
     77          1           0       -0.911606    0.341984   -0.445767
     78          1           0       -0.648128    0.363098    1.364386
     79          1           0        4.770532    6.541136   -1.427244
     80          1           0        3.355028    5.466715   -1.597350
     81          1           0        4.556104    5.518163   -2.842042
     82          1           0        6.498624    7.506977   -0.969680
     83          1           0        6.958979    7.043891   -2.610837
     84          1           0        8.173237    7.787410   -1.559083
     85          1           0       10.814271    2.060874    1.342892
     86          1           0       10.976886   -0.751641    1.079723
     87          1           0       12.246609    1.576064   -0.198042
     88          1           0       10.924864    1.812264   -1.351519
     89          1           0       11.252175    0.169401   -0.829110
     90          1           0       11.622018    0.261534    3.214899
     91          1           0       10.345892   -0.858895    3.445175
     92          1           0        8.844137    0.629231    4.255277
     93          1           0        9.252483    1.901252    3.100337
     94          1           0       10.348943    1.697603    4.457425
     95          1           0        8.493217   -4.589862    1.406853
     96          1           0        7.236263   -5.602792    0.603211
     97          1           0        7.184597   -5.270209    2.332690
     98          1           0        2.297767   -3.316757    1.035446
     99          1           0       -0.420865   -5.159759   -1.600637
    100          1           0        0.696077   -6.550824   -1.598261
    101          1           0        0.903361   -5.036126   -2.605012
    102          1           0       -3.258783   -3.374660    0.648817
    103          1           0       -2.822721   -3.840849   -1.028148
    104          1           0       -4.543771   -1.292884   -0.765298
    105          1           0       -6.139370   -4.981968   -2.074289
    106          1           0       -5.980923   -4.814934   -0.266127
    107          1           0       -4.555769   -5.121251   -1.334077
    108          1           0       -7.412637   -3.212808   -2.151840
    109          1           0       -6.533616   -1.775245   -2.663011
    110          1           0       -6.985078   -1.629747    0.208954
    111          1           0       -8.424332   -2.197178   -0.581590
    112          1           0       -7.067597    0.228988   -1.844146
    113          1           0       -7.645255    0.566718   -0.250836
    114          1           0       -9.632187   -0.973713   -1.912174
    115          1           0      -10.028452    1.432697   -2.990484
    116          1           0       -9.330461    0.053908   -3.886580
    117          1           0       -8.327292    1.283653   -3.329521
    118          1           0      -10.116559    1.605821   -0.746226
    119          1           0      -10.200098    0.122786    0.289335
    120          1           0      -11.721595   -0.300791   -2.038986
    121          1           0      -12.120766    1.447364   -1.593565
    122          1           0      -12.270489    0.185259    0.798182
    123          1           0      -12.769813   -1.026912   -0.142021
    124          1           0      -14.646619    0.226366    0.695787
    125          1           0      -14.190898    0.027471   -2.276121
    126          1           0      -15.417691    1.211339   -1.792719
    127          1           0      -15.541847   -0.480899   -1.345996
    128          1           0      -14.047836    2.723198   -0.831716
    129          1           0      -12.912152    2.346400    0.399157
    130          1           0      -15.847820    2.126508    1.406325
    131          1           0      -15.488705    3.575281    0.576883
    132          1           0      -15.100208    3.891382    2.899838
    133          1           0      -13.724137    4.252655    2.027473
    134          1           0      -13.310368    1.466929    2.610781
    135          1           0      -12.482534    4.055342    3.653673
    136          1           0      -11.469429    2.632777    3.810606
    137          1           0      -12.611614    3.149860    5.111706
    138          1           0      -14.335726    1.540981    5.139178
    139          1           0      -14.680825    0.622967    3.649135
    140          1           0      -15.603992    2.085630    4.107113
 ---------------------------------------------------------------------

 SCF Done:  E(RB-LYP) =  -3007.37803046     A.U. after   22 cycles

 Excitation energies and oscillator strengths:

 Excited State   1:      Singlet-A      1.7564 eV  705.90 nm  f=0.0062  <S**2>=0.000
     243 -> 247        0.21041
     244 -> 247        0.64913
     245 -> 247        0.15678
 This state for optimization and/or second-order correction.
 Total Energy, E(TD-HF/TD-DFT) =  -3007.31348356
 Copying the excited state density for this state as the 1-particle RhoCI density.

 Excited State   2:      Singlet-A      1.7679 eV  701.31 nm  f=0.0382  <S**2>=0.000
     243 -> 247        0.51875
     244 -> 247       -0.27734
     245 -> 247        0.29179
     246 -> 247        0.25343

 Excited State   3:      Singlet-A      1.8282 eV  678.18 nm  f=0.2928  <S**2>=0.000
     243 -> 247       -0.25102
     245 -> 247       -0.11115
     245 -> 248        0.11425
     245 -> 249       -0.11409
     246 -> 247        0.64161
     246 <- 247       -0.14396

 Excited State   4:      Singlet-A      2.0409 eV  607.49 nm  f=0.1069  <S**2>=0.000
     243 -> 247       -0.34233
     245 -> 247        0.56906
     246 -> 248       -0.13855
     246 -> 249        0.13103

 Excited State   5:      Singlet-A      2.1642 eV  572.90 nm  f=0.0001  <S**2>=0.000
     242 -> 247        0.70672

 The electronic state is 1-A.
 Alpha  occ. eigenvalues --  -46.26967 -18.82538 -18.81311 -18.76224 -18.76116
 Alpha  occ. eigenvalues --  -18.75782 -18.75260 -14.03825 -14.03280 -14.00661
 Alpha  occ. eigenvalues --  -14.00491 -10.03881 -10.03260 -10.00608  -9.98799
 Alpha  occ. eigenvalues --   -9.98548  -9.96952  -9.96855  -9.96837  -9.96836
 Alpha  occ. eigenvalues --   -9.96407  -9.95441  -9.95182  -9.95038  -9.94796
 Alpha  occ. eigenvalues --   -9.94725  -9.94045  -9.93971  -9.93932  -9.93810
 Alpha  occ. eigenvalues --   -9.93639  -9.93626  -9.93455  -9.93287  -9.93271
 Alpha  occ. eigenvalues --   -9.93270  -9.93108  -9.93064  -9.92852  -9.92839
 Alpha  occ. eigenvalues --   -9.92806  -9.92796  -9.92700  -9.92514  -9.92160
 Alpha  occ. eigenvalues --   -9.92035  -9.91910  -9.91852  -9.91834  -9.91630
 Alpha  occ. eigenvalues --   -9.91524  -9.91511  -9.91503  -9.91478  -9.91441
 Alpha  occ. eigenvalues --   -9.91219  -9.91213  -9.91179  -9.90913  -9.90818
 Alpha  occ. eigenvalues --   -9.90734  -9.90557  -9.90516  -9.90340  -9.90140
 Alpha  occ. eigenvalues --   -9.90013  -2.91666  -1.72104  -1.71573  -1.71347
 Alpha  occ. eigenvalues --   -0.98516  -0.96906  -0.90423  -0.89616  -0.89312
 Alpha  occ. eigenvalues --   -0.89196  -0.88410  -0.86548  -0.85754  -0.84398
 Alpha  occ. eigenvalues --   -0.76343  -0.73864  -0.73237  -0.72912  -0.72784
 Alpha  occ. eigenvalues --   -0.72016  -0.71969  -0.71202  -0.70910  -0.70608
 Alpha  occ. eigenvalues --   -0.69853  -0.69258  -0.67972  -0.67393  -0.67326
 Alpha  occ. eigenvalues --   -0.66414  -0.65915  -0.65158  -0.64794  -0.64554
 Alpha  occ. eigenvalues --   -0.63941  -0.62880  -0.62864  -0.61943  -0.60811
 Alpha  occ. eigenvalues --   -0.60282  -0.60154  -0.60060  -0.59410  -0.58957
 Alpha  occ. eigenvalues --   -0.58574  -0.58125  -0.57227  -0.56144  -0.54969
 Alpha  occ. eigenvalues --   -0.54553  -0.54279  -0.52959  -0.52637  -0.52132
 Alpha  occ. eigenvalues --   -0.51602  -0.51399  -0.50861  -0.50100  -0.49561
 Alpha  occ. eigenvalues --   -0.49311  -0.49051  -0.47927  -0.47754  -0.47326
 Alpha  occ. eigenvalues --   -0.46437  -0.46233  -0.45967  -0.45455  -0.44481
 Alpha  occ. eigenvalues --   -0.44409  -0.43910  -0.43187  -0.42563  -0.42355
 Alpha  occ. eigenvalues --   -0.42189  -0.42026  -0.41816  -0.41352  -0.41075
 Alpha  occ. eigenvalues --   -0.40944  -0.40533  -0.40387  -0.40211  -0.39948
 Alpha  occ. eigenvalues --   -0.39802  -0.39573  -0.39448  -0.39229  -0.39098
 Alpha  occ. eigenvalues --   -0.38950  -0.38551  -0.38441  -0.38315  -0.38085
 Alpha  occ. eigenvalues --   -0.37964  -0.37703  -0.37608  -0.37488  -0.37199
 Alpha  occ. eigenvalues --   -0.37170  -0.36909  -0.36686  -0.36624  -0.36428
 Alpha  occ. eigenvalues --   -0.36394  -0.36259  -0.35932  -0.35849  -0.35741
 Alpha  occ. eigenvalues --   -0.35500  -0.35455  -0.35315  -0.34812  -0.34731
 Alpha  occ. eigenvalues --   -0.34593  -0.34448  -0.34434  -0.34256  -0.34252
 Alpha  occ. eigenvalues --   -0.34154  -0.33610  -0.33591  -0.33390  -0.33205
 Alpha  occ. eigenvalues --   -0.33197  -0.32787  -0.32586  -0.32315  -0.32236
 Alpha  occ. eigenvalues --   -0.32083  -0.31955  -0.31855  -0.31652  -0.31575
 Alpha  occ. eigenvalues --   -0.31294  -0.31217  -0.30987  -0.30758  -0.30495
 Alpha  occ. eigenvalues --   -0.30403  -0.30248  -0.30056  -0.29980  -0.29903
 Alpha  occ. eigenvalues --   -0.29728  -0.29470  -0.29323  -0.29151  -0.28946
 Alpha  occ. eigenvalues --   -0.28853  -0.28791  -0.28548  -0.28324  -0.27839
 Alpha  occ. eigenvalues --   -0.27609  -0.27287  -0.26988  -0.26760  -0.26443
 Alpha  occ. eigenvalues --   -0.26324  -0.26222  -0.25568  -0.25273  -0.25119
 Alpha  occ. eigenvalues --   -0.24927  -0.24277  -0.24226  -0.24210  -0.23929
 Alpha  occ. eigenvalues --   -0.23250  -0.22478  -0.21525  -0.21360  -0.20728
 Alpha  occ. eigenvalues --   -0.20203  -0.20082  -0.18719  -0.18504  -0.17435
 Alpha  occ. eigenvalues --   -0.16387
 Alpha virt. eigenvalues --   -0.12131  -0.06578  -0.06259  -0.04879  -0.02802
 Alpha virt. eigenvalues --   -0.02286  -0.01813  -0.01639  -0.01135   0.00272
 Alpha virt. eigenvalues --    0.00948   0.01233   0.02140   0.02413   0.02483

 Mulliken charges:
               1
     1  Mg   0.687172
     2  C    0.049424
     3  C   -0.068848
     4  C   -0.039910
     5  C   -0.083210
     6  N   -0.202523
     7  C   -0.096213
     8  C    0.039801
     9  C    0.018166
    10  C    0.056799
    11  C    0.117140
    12  C    0.024946
    13  C    0.191501
    14  C    0.044829
    15  O   -0.199512
    16  O   -0.272040
    17  N   -0.256153
    18  C    0.079802
    19  C   -0.131119
    20  C    0.046808
    21  C    0.035404
    22  C    0.178650
    23  C   -0.050833
    24  O   -0.205872
    25  C    0.110457
    26  N   -0.268029
    27  C    0.096207
    28  C   -0.005098
    29  C    0.048106
    30  C    0.015377
    31  C    0.137485
    32  C    0.077340
    33  C    0.065821
    34  N   -0.237101
    35  C    0.120524
    36  C   -0.175176
    37  C    0.076106
    38  C    0.086320
    39  C    0.191847
    40  C   -0.033700
    41  O   -0.134415
    42  C    0.074364
    43  C    0.073333
    44  O   -0.173432
    45  O   -0.280061
    46  C    0.210183
    47  C    0.327431
    48  C   -0.103676
    49  C   -0.190961
    50  C    0.126099
    51  C    0.131569
    52  C    0.052639
    53  C    0.148555
    54  C   -0.077041
    55  C    0.108880
    56  C    0.074345
    57  C    0.073965
    58  C    0.070106
    59  C   -0.037436
    60  C    0.111732
    61  C    0.086780
    62  C    0.085662
    63  C    0.080802
    64  C   -0.091420
    65  C    0.129998
    66  C    0.087493
    67  H   -0.082341
    68  H   -0.037062
    69  H   -0.059708
    70  H   -0.002475
    71  H   -0.014997
    72  H   -0.004628
    73  H   -0.009765
    74  H   -0.001489
    75  H   -0.006309
    76  H    0.016456
    77  H   -0.011448
    78  H   -0.007642
    79  H   -0.014984
    80  H   -0.001509
    81  H   -0.000397
    82  H    0.017279
    83  H    0.010192
    84  H   -0.003240
    85  H   -0.021486
    86  H   -0.041234
    87  H   -0.003523
    88  H   -0.007495
    89  H   -0.012274
    90  H   -0.018934
    91  H   -0.031974
    92  H    0.006340
    93  H    0.009273
    94  H   -0.002411
    95  H   -0.029239
    96  H    0.018928
    97  H   -0.000555
    98  H   -0.003937
    99  H   -0.007642
   100  H    0.028863
   101  H    0.016282
   102  H    0.025036
   103  H    0.010139
   104  H   -0.030044
   105  H   -0.001306
   106  H    0.017845
   107  H   -0.014986
   108  H   -0.043735
   109  H   -0.013190
   110  H   -0.022438
   111  H   -0.026429
   112  H   -0.036066
   113  H   -0.033768
   114  H   -0.037470
   115  H   -0.024981
   116  H   -0.020265
   117  H   -0.023516
   118  H   -0.042107
   119  H   -0.018347
   120  H   -0.021626
   121  H   -0.015600
   122  H   -0.048153
   123  H   -0.057855
   124  H   -0.043500
   125  H   -0.013963
   126  H   -0.025154
   127  H   -0.025577
   128  H   -0.034546
   129  H   -0.021170
   130  H   -0.022772
   131  H   -0.048165
   132  H   -0.043504
   133  H   -0.031785
   134  H   -0.020121
   135  H   -0.034350
   136  H   -0.008736
   137  H   -0.011994
   138  H   -0.020603
   139  H   -0.018652
   140  H   -0.017648
 Sum of Mulliken charges =  -0.00000

 Dipole moment (field-independent basis, Debye):
    X=             -1.9804    Y=              3.0312    Z=             -1.5951  Tot=              3.9566
 Quadrupole moment (field-independent basis, Debye-Ang):
   XX=           -386.4006   YY=           -416.1601   ZZ=           -408.1153
   XY=              2.8912   XZ=             18.2296   YZ=              0.0112

 Normal termination of Gaussian 16 at Wed Apr 27 03:01:47 2022.
