 Gaussian 16, Revision A.03,
 Gaussian 16:  ES64L-G16RevA.03 25-Dec-2016

 -----------------------------------
 #p cam-b3lyp/Def2SVP td=(nstates=5)
 -----------------------------------

 --------------------------------------------------------
 step_1051_chromophore_16 TDDFT with cam-b3lyp functional
 --------------------------------------------------------
 Symbolic Z-matrix:
 Charge =  0 Multiplicity = 1

                         Standard orientation:
 ---------------------------------------------------------------------
 Center     Atomic      Atomic             Coordinates (Angstroms)
 Number     Number       Type             X           Y           Z
 ---------------------------------------------------------------------
      1         12           0        6.011690    0.670962    0.245207
      2          6           0        3.659282   -1.978484    0.151139
      3          6           0        3.618798    2.631863   -1.026096
      4          6           0        8.359297    2.783475   -0.202279
      5          6           0        8.462156   -1.809385    1.258256
      6          7           0        3.879823    0.355016   -0.332189
      7          6           0        3.117035   -0.796731   -0.288925
      8          6           0        1.672063   -0.609342   -0.787571
      9          6           0        1.665563    0.914994   -1.158580
     10          6           0        3.120119    1.369466   -0.803866
     11          6           0        1.010419    1.394472   -2.519301
     12          6           0        0.638092   -1.007635    0.305198
     13          6           0       -0.758948   -0.238970    0.462791
     14          6           0       -1.883569   -1.217911    0.638366
     15          8           0       -2.495774   -1.419496    1.685374
     16          8           0       -2.065987   -1.941706   -0.476251
     17          7           0        5.995951    2.566162   -0.483002
     18          6           0        4.884413    3.230953   -0.832403
     19          6           0        5.331784    4.505015   -1.262876
     20          6           0        6.742160    4.545017   -1.007033
     21          6           0        7.095296    3.223307   -0.582009
     22          6           0        4.428048    5.561590   -1.760266
     23          6           0        7.718852    5.729484   -1.015249
     24          8           0        8.929683    5.604681   -0.658896
     25          6           0        7.312804    7.119509   -1.582858
     26          7           0        8.013026    0.536779    0.759016
     27          6           0        8.806778    1.598499    0.371866
     28          6           0       10.345370    1.318664    0.696404
     29          6           0       10.286220   -0.018886    1.497714
     30          6           0        8.886649   -0.493841    1.189186
     31          6           0       11.267835    1.211286   -0.509572
     32          6           0       10.555354    0.130439    3.035991
     33          6           0        9.670068    1.166599    3.789363
     34          7           0        6.093941   -1.422501    0.729267
     35          6           0        7.133517   -2.264409    1.032223
     36          6           0        6.636341   -3.590346    1.177281
     37          6           0        5.272782   -3.496646    0.844325
     38          6           0        4.997513   -2.188126    0.489070
     39          6           0        7.435145   -4.844573    1.361265
     40          6           0        4.180753   -4.365002    0.681205
     41          8           0        3.990841   -5.580845    0.764346
     42          6           0        3.079728   -3.378388    0.278625
     43          6           0        2.361497   -3.971256   -0.880220
     44          8           0        2.667453   -3.777018   -2.034869
     45          8           0        1.356395   -4.862636   -0.516061
     46          6           0        0.625155   -5.464404   -1.642019
     47          6           0       -3.096285   -3.017777   -0.367922
     48          6           0       -4.366284   -2.360985   -0.890990
     49          6           0       -5.436459   -3.068646   -1.309603
     50          6           0       -5.527460   -4.636617   -1.241040
     51          6           0       -6.775628   -2.400115   -1.803489
     52          6           0       -7.527971   -1.596164   -0.736301
     53          6           0       -7.809204   -0.085771   -1.108945
     54          6           0       -9.206062    0.008059   -1.702639
     55          6           0       -9.208282    0.716963   -3.030091
     56          6           0      -10.279937    0.529087   -0.718417
     57          6           0      -11.792459    0.461608   -1.263924
     58          6           0      -12.720546    0.061237   -0.186454
     59          6           0      -14.103236    0.676921   -0.135313
     60          6           0      -14.841666    0.347294   -1.462118
     61          6           0      -13.949436    2.179760    0.107496
     62          6           0      -15.007997    2.756213    1.111405
     63          6           0      -14.307938    3.388840    2.343728
     64          6           0      -13.598625    2.336015    3.202422
     65          6           0      -12.456375    3.035559    4.038407
     66          6           0      -14.618802    1.618218    4.089998
     67          1           0        2.955020    3.378349   -1.466793
     68          1           0        9.098425    3.514882   -0.535135
     69          1           0        9.254155   -2.545929    1.408549
     70          1           0        1.469660   -1.220995   -1.666837
     71          1           0        1.073570    1.507594   -0.461938
     72          1           0        1.707635    1.905911   -3.182283
     73          1           0        0.192009    2.100767   -2.374337
     74          1           0        0.627025    0.514207   -3.035084
     75          1           0        1.082235   -0.883872    1.292472
     76          1           0        0.366122   -2.033626    0.054786
     77          1           0       -0.911606    0.341984   -0.445767
     78          1           0       -0.648128    0.363098    1.364386
     79          1           0        4.770532    6.541136   -1.427244
     80          1           0        3.355028    5.466715   -1.597350
     81          1           0        4.556104    5.518163   -2.842042
     82          1           0        6.498624    7.506977   -0.969680
     83          1           0        6.958979    7.043891   -2.610837
     84          1           0        8.173237    7.787410   -1.559083
     85          1           0       10.814271    2.060874    1.342892
     86          1           0       10.976886   -0.751641    1.079723
     87          1           0       12.246609    1.576064   -0.198042
     88          1           0       10.924864    1.812264   -1.351519
     89          1           0       11.252175    0.169401   -0.829110
     90          1           0       11.622018    0.261534    3.214899
     91          1           0       10.345892   -0.858895    3.445175
     92          1           0        8.844137    0.629231    4.255277
     93          1           0        9.252483    1.901252    3.100337
     94          1           0       10.348943    1.697603    4.457425
     95          1           0        8.493217   -4.589862    1.406853
     96          1           0        7.236263   -5.602792    0.603211
     97          1           0        7.184597   -5.270209    2.332690
     98          1           0        2.297767   -3.316757    1.035446
     99          1           0       -0.420865   -5.159759   -1.600637
    100          1           0        0.696077   -6.550824   -1.598261
    101          1           0        0.903361   -5.036126   -2.605012
    102          1           0       -3.258783   -3.374660    0.648817
    103          1           0       -2.822721   -3.840849   -1.028148
    104          1           0       -4.543771   -1.292884   -0.765298
    105          1           0       -6.139370   -4.981968   -2.074289
    106          1           0       -5.980923   -4.814934   -0.266127
    107          1           0       -4.555769   -5.121251   -1.334077
    108          1           0       -7.412637   -3.212808   -2.151840
    109          1           0       -6.533616   -1.775245   -2.663011
    110          1           0       -6.985078   -1.629747    0.208954
    111          1           0       -8.424332   -2.197178   -0.581590
    112          1           0       -7.067597    0.228988   -1.844146
    113          1           0       -7.645255    0.566718   -0.250836
    114          1           0       -9.632187   -0.973713   -1.912174
    115          1           0      -10.028452    1.432697   -2.990484
    116          1           0       -9.330461    0.053908   -3.886580
    117          1           0       -8.327292    1.283653   -3.329521
    118          1           0      -10.116559    1.605821   -0.746226
    119          1           0      -10.200098    0.122786    0.289335
    120          1           0      -11.721595   -0.300791   -2.038986
    121          1           0      -12.120766    1.447364   -1.593565
    122          1           0      -12.270489    0.185259    0.798182
    123          1           0      -12.769813   -1.026912   -0.142021
    124          1           0      -14.646619    0.226366    0.695787
    125          1           0      -14.190898    0.027471   -2.276121
    126          1           0      -15.417691    1.211339   -1.792719
    127          1           0      -15.541847   -0.480899   -1.345996
    128          1           0      -14.047836    2.723198   -0.831716
    129          1           0      -12.912152    2.346400    0.399157
    130          1           0      -15.847820    2.126508    1.406325
    131          1           0      -15.488705    3.575281    0.576883
    132          1           0      -15.100208    3.891382    2.899838
    133          1           0      -13.724137    4.252655    2.027473
    134          1           0      -13.310368    1.466929    2.610781
    135          1           0      -12.482534    4.055342    3.653673
    136          1           0      -11.469429    2.632777    3.810606
    137          1           0      -12.611614    3.149860    5.111706
    138          1           0      -14.335726    1.540981    5.139178
    139          1           0      -14.680825    0.622967    3.649135
    140          1           0      -15.603992    2.085630    4.107113
 ---------------------------------------------------------------------

 SCF Done:  E(RCAM-B3LYP) =  -3007.18068123     A.U. after   17 cycles

 Excitation energies and oscillator strengths:

 Excited State   1:      Singlet-A      1.7044 eV  727.43 nm  f=0.3940  <S**2>=0.000
     245 -> 248       -0.16377
     246 -> 247        0.69000
     245 <- 248       -0.10436
 This state for optimization and/or second-order correction.
 Total Energy, E(TD-HF/TD-DFT) =  -3007.11804474
 Copying the excited state density for this state as the 1-particle RhoCI density.

 Excited State   2:      Singlet-A      2.1864 eV  567.08 nm  f=0.1907  <S**2>=0.000
     245 -> 247        0.66772
     246 -> 248        0.21790

 Excited State   3:      Singlet-A      3.1615 eV  392.17 nm  f=0.0045  <S**2>=0.000
     242 -> 247       -0.15616
     244 -> 247        0.67332

 Excited State   4:      Singlet-A      3.3546 eV  369.59 nm  f=0.0197  <S**2>=0.000
     240 -> 247       -0.12357
     242 -> 247        0.65630
     244 -> 247        0.13463

 Excited State   5:      Singlet-A      3.4282 eV  361.66 nm  f=0.0001  <S**2>=0.000
     239 -> 247        0.16885
     239 -> 249        0.14039
     240 -> 247        0.48935
     240 -> 248        0.10293
     240 -> 249        0.26987
     240 -> 250       -0.14973
     241 -> 247        0.19301
     242 -> 247        0.11956

 The electronic state is 1-A.
 Alpha  occ. eigenvalues --  -46.88474 -19.25458 -19.24205 -19.19238 -19.19218
 Alpha  occ. eigenvalues --  -19.19141 -19.18306 -14.42883 -14.42099 -14.39103
 Alpha  occ. eigenvalues --  -14.38786 -10.39137 -10.38719 -10.36134 -10.34008
 Alpha  occ. eigenvalues --  -10.32685 -10.31566 -10.31464 -10.31265 -10.30813
 Alpha  occ. eigenvalues --  -10.30677 -10.29889 -10.29493 -10.29150 -10.28932
 Alpha  occ. eigenvalues --  -10.28814 -10.28769 -10.28161 -10.27984 -10.27827
 Alpha  occ. eigenvalues --  -10.27754 -10.27568 -10.27523 -10.27454 -10.27376
 Alpha  occ. eigenvalues --  -10.27341 -10.27324 -10.27203 -10.27111 -10.26991
 Alpha  occ. eigenvalues --  -10.26791 -10.26719 -10.26518 -10.26471 -10.25915
 Alpha  occ. eigenvalues --  -10.25596 -10.25581 -10.25560 -10.25527 -10.25480
 Alpha  occ. eigenvalues --  -10.25332 -10.25199 -10.25184 -10.25162 -10.25138
 Alpha  occ. eigenvalues --  -10.24942 -10.24890 -10.24887 -10.24569 -10.24497
 Alpha  occ. eigenvalues --  -10.24338 -10.24140 -10.24118 -10.23911 -10.23821
 Alpha  occ. eigenvalues --  -10.23760  -3.17083  -1.91997  -1.91565  -1.91361
 Alpha  occ. eigenvalues --   -1.17008  -1.15468  -1.08675  -1.08047  -1.07197
 Alpha  occ. eigenvalues --   -1.07092  -1.06312  -1.04247  -1.03308  -1.01879
 Alpha  occ. eigenvalues --   -0.93467  -0.90762  -0.90084  -0.89759  -0.89592
 Alpha  occ. eigenvalues --   -0.88728  -0.88569  -0.87813  -0.87655  -0.87159
 Alpha  occ. eigenvalues --   -0.86292  -0.85608  -0.84221  -0.83590  -0.83415
 Alpha  occ. eigenvalues --   -0.82465  -0.81993  -0.81161  -0.80779  -0.80453
 Alpha  occ. eigenvalues --   -0.79718  -0.78780  -0.78526  -0.77365  -0.76180
 Alpha  occ. eigenvalues --   -0.75639  -0.75518  -0.75335  -0.74698  -0.74177
 Alpha  occ. eigenvalues --   -0.73667  -0.73117  -0.72199  -0.70985  -0.69537
 Alpha  occ. eigenvalues --   -0.69245  -0.68886  -0.67591  -0.67085  -0.66458
 Alpha  occ. eigenvalues --   -0.65763  -0.65588  -0.64789  -0.64010  -0.63451
 Alpha  occ. eigenvalues --   -0.63166  -0.62964  -0.61592  -0.61533  -0.61085
 Alpha  occ. eigenvalues --   -0.60039  -0.59690  -0.59538  -0.58924  -0.57972
 Alpha  occ. eigenvalues --   -0.57834  -0.57434  -0.56382  -0.55867  -0.55506
 Alpha  occ. eigenvalues --   -0.55023  -0.54864  -0.54815  -0.54470  -0.53879
 Alpha  occ. eigenvalues --   -0.53751  -0.53451  -0.53238  -0.53124  -0.52747
 Alpha  occ. eigenvalues --   -0.52612  -0.52275  -0.52166  -0.52005  -0.51705
 Alpha  occ. eigenvalues --   -0.51312  -0.51174  -0.51057  -0.50822  -0.50723
 Alpha  occ. eigenvalues --   -0.50171  -0.50090  -0.49932  -0.49837  -0.49678
 Alpha  occ. eigenvalues --   -0.49403  -0.49291  -0.49111  -0.48869  -0.48720
 Alpha  occ. eigenvalues --   -0.48555  -0.48444  -0.48328  -0.48094  -0.47978
 Alpha  occ. eigenvalues --   -0.47774  -0.47526  -0.47436  -0.46622  -0.46586
 Alpha  occ. eigenvalues --   -0.46418  -0.46399  -0.46232  -0.46198  -0.46005
 Alpha  occ. eigenvalues --   -0.45952  -0.45566  -0.45282  -0.45175  -0.44967
 Alpha  occ. eigenvalues --   -0.44808  -0.44591  -0.44200  -0.44085  -0.43773
 Alpha  occ. eigenvalues --   -0.43756  -0.43588  -0.43367  -0.43316  -0.43029
 Alpha  occ. eigenvalues --   -0.42908  -0.42728  -0.42694  -0.42618  -0.41810
 Alpha  occ. eigenvalues --   -0.41717  -0.41521  -0.41432  -0.41358  -0.41223
 Alpha  occ. eigenvalues --   -0.41061  -0.40777  -0.40532  -0.40400  -0.40171
 Alpha  occ. eigenvalues --   -0.40065  -0.39971  -0.39691  -0.39392  -0.38773
 Alpha  occ. eigenvalues --   -0.38516  -0.38187  -0.37793  -0.37463  -0.37209
 Alpha  occ. eigenvalues --   -0.37084  -0.36992  -0.36899  -0.36383  -0.35875
 Alpha  occ. eigenvalues --   -0.35797  -0.35484  -0.34694  -0.34421  -0.34349
 Alpha  occ. eigenvalues --   -0.34065  -0.33816  -0.33188  -0.31683  -0.30877
 Alpha  occ. eigenvalues --   -0.30523  -0.30220  -0.29834  -0.29305  -0.24173
 Alpha  occ. eigenvalues --   -0.21870
 Alpha virt. eigenvalues --   -0.09440  -0.00997   0.00108   0.01973   0.03145
 Alpha virt. eigenvalues --    0.04877   0.05226   0.05905   0.06006   0.06623
 Alpha virt. eigenvalues --    0.07648   0.08085   0.08586   0.08664   0.08963

 Mulliken charges:
               1
     1  Mg   0.822198
     2  C    0.022412
     3  C   -0.083708
     4  C   -0.060116
     5  C   -0.085402
     6  N   -0.273110
     7  C   -0.055299
     8  C   -0.004421
     9  C   -0.036470
    10  C    0.077460
    11  C    0.057422
    12  C   -0.020042
    13  C    0.118025
    14  C    0.124957
    15  O   -0.241612
    16  O   -0.334483
    17  N   -0.352513
    18  C    0.098844
    19  C   -0.136244
    20  C   -0.024999
    21  C    0.069336
    22  C    0.114382
    23  C    0.027003
    24  O   -0.247423
    25  C    0.034383
    26  N   -0.339307
    27  C    0.107112
    28  C   -0.057349
    29  C   -0.006795
    30  C    0.027881
    31  C    0.081390
    32  C    0.027560
    33  C    0.002971
    34  N   -0.322102
    35  C    0.119012
    36  C   -0.165842
    37  C   -0.011271
    38  C    0.123356
    39  C    0.139463
    40  C    0.064481
    41  O   -0.174245
    42  C   -0.000653
    43  C    0.157143
    44  O   -0.210483
    45  O   -0.342933
    46  C    0.175929
    47  C    0.289275
    48  C   -0.114308
    49  C   -0.216983
    50  C    0.065906
    51  C    0.080147
    52  C   -0.005844
    53  C    0.089754
    54  C   -0.129768
    55  C    0.046027
    56  C    0.029153
    57  C    0.015340
    58  C    0.020705
    59  C   -0.095030
    60  C    0.052628
    61  C    0.027507
    62  C    0.031394
    63  C    0.025238
    64  C   -0.152801
    65  C    0.071247
    66  C    0.034014
    67  H   -0.046715
    68  H    0.003550
    69  H   -0.024955
    70  H    0.032402
    71  H    0.019017
    72  H    0.021293
    73  H    0.014598
    74  H    0.023735
    75  H    0.024587
    76  H    0.042519
    77  H    0.019872
    78  H    0.027128
    79  H    0.011063
    80  H    0.027253
    81  H    0.028876
    82  H    0.041914
    83  H    0.037576
    84  H    0.032689
    85  H    0.014165
    86  H   -0.004132
    87  H    0.020941
    88  H    0.017654
    89  H    0.011578
    90  H    0.008605
    91  H   -0.002877
    92  H    0.029935
    93  H    0.028753
    94  H    0.021272
    95  H   -0.005428
    96  H    0.044412
    97  H    0.025758
    98  H    0.039646
    99  H    0.009540
   100  H    0.050363
   101  H    0.044151
   102  H    0.058381
   103  H    0.034331
   104  H    0.000766
   105  H    0.022515
   106  H    0.041151
   107  H    0.008307
   108  H   -0.012924
   109  H    0.015279
   110  H    0.008128
   111  H    0.001276
   112  H   -0.007792
   113  H   -0.002571
   114  H   -0.007909
   115  H   -0.000577
   116  H    0.005244
   117  H    0.002208
   118  H   -0.013638
   119  H    0.008647
   120  H    0.005687
   121  H    0.010163
   122  H   -0.019292
   123  H   -0.025743
   124  H   -0.011242
   125  H    0.010032
   126  H   -0.000628
   127  H    0.000432
   128  H   -0.005029
   129  H    0.006419
   130  H    0.004563
   131  H   -0.016375
   132  H   -0.013200
   133  H   -0.003259
   134  H    0.006244
   135  H   -0.009874
   136  H    0.014868
   137  H    0.011939
   138  H    0.004480
   139  H    0.003191
   140  H    0.005570
 Sum of Mulliken charges =  -0.00000

 Dipole moment (field-independent basis, Debye):
    X=             -2.1941    Y=              3.9022    Z=             -1.9980  Tot=              4.9024
 Quadrupole moment (field-independent basis, Debye-Ang):
   XX=           -385.6304   YY=           -411.1382   ZZ=           -408.2170
   XY=              7.3390   XZ=             17.1592   YZ=             -1.1268

 Normal termination of Gaussian 16 at Wed Apr 27 02:06:42 2022.
