 Gaussian 16, Revision A.03,
 Gaussian 16:  ES64L-G16RevA.03 25-Dec-2016

 ---------------------------------
 #p PBE1PBE/Def2SVP td=(nstates=5)
 ---------------------------------

 ------------------------------------------------------
 step_1051_chromophore_16 TDDFT with PBE1PBE functional
 ------------------------------------------------------
 Symbolic Z-matrix:
 Charge =  0 Multiplicity = 1

                         Standard orientation:
 ---------------------------------------------------------------------
 Center     Atomic      Atomic             Coordinates (Angstroms)
 Number     Number       Type             X           Y           Z
 ---------------------------------------------------------------------
      1         12           0        6.011690    0.670962    0.245207
      2          6           0        3.659282   -1.978484    0.151139
      3          6           0        3.618798    2.631863   -1.026096
      4          6           0        8.359297    2.783475   -0.202279
      5          6           0        8.462156   -1.809385    1.258256
      6          7           0        3.879823    0.355016   -0.332189
      7          6           0        3.117035   -0.796731   -0.288925
      8          6           0        1.672063   -0.609342   -0.787571
      9          6           0        1.665563    0.914994   -1.158580
     10          6           0        3.120119    1.369466   -0.803866
     11          6           0        1.010419    1.394472   -2.519301
     12          6           0        0.638092   -1.007635    0.305198
     13          6           0       -0.758948   -0.238970    0.462791
     14          6           0       -1.883569   -1.217911    0.638366
     15          8           0       -2.495774   -1.419496    1.685374
     16          8           0       -2.065987   -1.941706   -0.476251
     17          7           0        5.995951    2.566162   -0.483002
     18          6           0        4.884413    3.230953   -0.832403
     19          6           0        5.331784    4.505015   -1.262876
     20          6           0        6.742160    4.545017   -1.007033
     21          6           0        7.095296    3.223307   -0.582009
     22          6           0        4.428048    5.561590   -1.760266
     23          6           0        7.718852    5.729484   -1.015249
     24          8           0        8.929683    5.604681   -0.658896
     25          6           0        7.312804    7.119509   -1.582858
     26          7           0        8.013026    0.536779    0.759016
     27          6           0        8.806778    1.598499    0.371866
     28          6           0       10.345370    1.318664    0.696404
     29          6           0       10.286220   -0.018886    1.497714
     30          6           0        8.886649   -0.493841    1.189186
     31          6           0       11.267835    1.211286   -0.509572
     32          6           0       10.555354    0.130439    3.035991
     33          6           0        9.670068    1.166599    3.789363
     34          7           0        6.093941   -1.422501    0.729267
     35          6           0        7.133517   -2.264409    1.032223
     36          6           0        6.636341   -3.590346    1.177281
     37          6           0        5.272782   -3.496646    0.844325
     38          6           0        4.997513   -2.188126    0.489070
     39          6           0        7.435145   -4.844573    1.361265
     40          6           0        4.180753   -4.365002    0.681205
     41          8           0        3.990841   -5.580845    0.764346
     42          6           0        3.079728   -3.378388    0.278625
     43          6           0        2.361497   -3.971256   -0.880220
     44          8           0        2.667453   -3.777018   -2.034869
     45          8           0        1.356395   -4.862636   -0.516061
     46          6           0        0.625155   -5.464404   -1.642019
     47          6           0       -3.096285   -3.017777   -0.367922
     48          6           0       -4.366284   -2.360985   -0.890990
     49          6           0       -5.436459   -3.068646   -1.309603
     50          6           0       -5.527460   -4.636617   -1.241040
     51          6           0       -6.775628   -2.400115   -1.803489
     52          6           0       -7.527971   -1.596164   -0.736301
     53          6           0       -7.809204   -0.085771   -1.108945
     54          6           0       -9.206062    0.008059   -1.702639
     55          6           0       -9.208282    0.716963   -3.030091
     56          6           0      -10.279937    0.529087   -0.718417
     57          6           0      -11.792459    0.461608   -1.263924
     58          6           0      -12.720546    0.061237   -0.186454
     59          6           0      -14.103236    0.676921   -0.135313
     60          6           0      -14.841666    0.347294   -1.462118
     61          6           0      -13.949436    2.179760    0.107496
     62          6           0      -15.007997    2.756213    1.111405
     63          6           0      -14.307938    3.388840    2.343728
     64          6           0      -13.598625    2.336015    3.202422
     65          6           0      -12.456375    3.035559    4.038407
     66          6           0      -14.618802    1.618218    4.089998
     67          1           0        2.955020    3.378349   -1.466793
     68          1           0        9.098425    3.514882   -0.535135
     69          1           0        9.254155   -2.545929    1.408549
     70          1           0        1.469660   -1.220995   -1.666837
     71          1           0        1.073570    1.507594   -0.461938
     72          1           0        1.707635    1.905911   -3.182283
     73          1           0        0.192009    2.100767   -2.374337
     74          1           0        0.627025    0.514207   -3.035084
     75          1           0        1.082235   -0.883872    1.292472
     76          1           0        0.366122   -2.033626    0.054786
     77          1           0       -0.911606    0.341984   -0.445767
     78          1           0       -0.648128    0.363098    1.364386
     79          1           0        4.770532    6.541136   -1.427244
     80          1           0        3.355028    5.466715   -1.597350
     81          1           0        4.556104    5.518163   -2.842042
     82          1           0        6.498624    7.506977   -0.969680
     83          1           0        6.958979    7.043891   -2.610837
     84          1           0        8.173237    7.787410   -1.559083
     85          1           0       10.814271    2.060874    1.342892
     86          1           0       10.976886   -0.751641    1.079723
     87          1           0       12.246609    1.576064   -0.198042
     88          1           0       10.924864    1.812264   -1.351519
     89          1           0       11.252175    0.169401   -0.829110
     90          1           0       11.622018    0.261534    3.214899
     91          1           0       10.345892   -0.858895    3.445175
     92          1           0        8.844137    0.629231    4.255277
     93          1           0        9.252483    1.901252    3.100337
     94          1           0       10.348943    1.697603    4.457425
     95          1           0        8.493217   -4.589862    1.406853
     96          1           0        7.236263   -5.602792    0.603211
     97          1           0        7.184597   -5.270209    2.332690
     98          1           0        2.297767   -3.316757    1.035446
     99          1           0       -0.420865   -5.159759   -1.600637
    100          1           0        0.696077   -6.550824   -1.598261
    101          1           0        0.903361   -5.036126   -2.605012
    102          1           0       -3.258783   -3.374660    0.648817
    103          1           0       -2.822721   -3.840849   -1.028148
    104          1           0       -4.543771   -1.292884   -0.765298
    105          1           0       -6.139370   -4.981968   -2.074289
    106          1           0       -5.980923   -4.814934   -0.266127
    107          1           0       -4.555769   -5.121251   -1.334077
    108          1           0       -7.412637   -3.212808   -2.151840
    109          1           0       -6.533616   -1.775245   -2.663011
    110          1           0       -6.985078   -1.629747    0.208954
    111          1           0       -8.424332   -2.197178   -0.581590
    112          1           0       -7.067597    0.228988   -1.844146
    113          1           0       -7.645255    0.566718   -0.250836
    114          1           0       -9.632187   -0.973713   -1.912174
    115          1           0      -10.028452    1.432697   -2.990484
    116          1           0       -9.330461    0.053908   -3.886580
    117          1           0       -8.327292    1.283653   -3.329521
    118          1           0      -10.116559    1.605821   -0.746226
    119          1           0      -10.200098    0.122786    0.289335
    120          1           0      -11.721595   -0.300791   -2.038986
    121          1           0      -12.120766    1.447364   -1.593565
    122          1           0      -12.270489    0.185259    0.798182
    123          1           0      -12.769813   -1.026912   -0.142021
    124          1           0      -14.646619    0.226366    0.695787
    125          1           0      -14.190898    0.027471   -2.276121
    126          1           0      -15.417691    1.211339   -1.792719
    127          1           0      -15.541847   -0.480899   -1.345996
    128          1           0      -14.047836    2.723198   -0.831716
    129          1           0      -12.912152    2.346400    0.399157
    130          1           0      -15.847820    2.126508    1.406325
    131          1           0      -15.488705    3.575281    0.576883
    132          1           0      -15.100208    3.891382    2.899838
    133          1           0      -13.724137    4.252655    2.027473
    134          1           0      -13.310368    1.466929    2.610781
    135          1           0      -12.482534    4.055342    3.653673
    136          1           0      -11.469429    2.632777    3.810606
    137          1           0      -12.611614    3.149860    5.111706
    138          1           0      -14.335726    1.540981    5.139178
    139          1           0      -14.680825    0.622967    3.649135
    140          1           0      -15.603992    2.085630    4.107113
 ---------------------------------------------------------------------

 SCF Done:  E(RPBE1PBE) =  -3005.36923484     A.U. after   15 cycles

 Excitation energies and oscillator strengths:

 Excited State   1:      Singlet-A      1.8587 eV  667.05 nm  f=0.3790  <S**2>=0.000
     245 -> 248        0.15519
     246 -> 247        0.69729
     246 <- 247       -0.11270
 This state for optimization and/or second-order correction.
 Total Energy, E(TD-HF/TD-DFT) =  -3005.30092885
 Copying the excited state density for this state as the 1-particle RhoCI density.

 Excited State   2:      Singlet-A      2.2020 eV  563.04 nm  f=0.1737  <S**2>=0.000
     245 -> 247        0.67306
     246 -> 248       -0.19733

 Excited State   3:      Singlet-A      2.8088 eV  441.41 nm  f=0.0025  <S**2>=0.000
     242 -> 247        0.29556
     244 -> 247        0.62156

 Excited State   4:      Singlet-A      2.8736 eV  431.46 nm  f=0.0020  <S**2>=0.000
     240 -> 247        0.11252
     241 -> 247        0.10734
     242 -> 247        0.60679
     244 -> 247       -0.29037

 Excited State   5:      Singlet-A      2.8980 eV  427.82 nm  f=0.0004  <S**2>=0.000
     240 -> 247        0.22396
     241 -> 247        0.62114
     241 -> 249        0.11930
     242 -> 247       -0.11173

 The electronic state is 1-A.
 Alpha  occ. eigenvalues --  -46.91869 -19.26153 -19.24883 -19.19534 -19.19468
 Alpha  occ. eigenvalues --  -19.19323 -19.18637 -14.42311 -14.41723 -14.38659
 Alpha  occ. eigenvalues --  -14.38538 -10.36175 -10.35738 -10.33218 -10.31181
 Alpha  occ. eigenvalues --  -10.30119 -10.29172 -10.29153 -10.29071 -10.28559
 Alpha  occ. eigenvalues --  -10.28074 -10.27416 -10.27025 -10.26975 -10.26711
 Alpha  occ. eigenvalues --  -10.26613 -10.26233 -10.25956 -10.25514 -10.25503
 Alpha  occ. eigenvalues --  -10.25482 -10.25395 -10.25351 -10.25169 -10.25027
 Alpha  occ. eigenvalues --  -10.24873 -10.24846 -10.24818 -10.24647 -10.24551
 Alpha  occ. eigenvalues --  -10.24459 -10.24179 -10.23984 -10.23928 -10.23472
 Alpha  occ. eigenvalues --  -10.23231 -10.23167 -10.23152 -10.23114 -10.23002
 Alpha  occ. eigenvalues --  -10.22889 -10.22818 -10.22784 -10.22761 -10.22743
 Alpha  occ. eigenvalues --  -10.22536 -10.22453 -10.22439 -10.22137 -10.22075
 Alpha  occ. eigenvalues --  -10.21733 -10.21661 -10.21523 -10.21500 -10.21310
 Alpha  occ. eigenvalues --  -10.21297  -3.14059  -1.86914  -1.86460  -1.86259
 Alpha  occ. eigenvalues --   -1.11839  -1.10228  -1.03479  -1.02662  -1.02074
 Alpha  occ. eigenvalues --   -1.01937  -1.00953  -0.98900  -0.98010  -0.96514
 Alpha  occ. eigenvalues --   -0.87907  -0.84845  -0.84258  -0.83983  -0.83759
 Alpha  occ. eigenvalues --   -0.82906  -0.82849  -0.81938  -0.81902  -0.81493
 Alpha  occ. eigenvalues --   -0.80702  -0.79844  -0.78484  -0.77834  -0.77699
 Alpha  occ. eigenvalues --   -0.76652  -0.76231  -0.75374  -0.75021  -0.74669
 Alpha  occ. eigenvalues --   -0.73899  -0.72982  -0.72780  -0.71714  -0.70547
 Alpha  occ. eigenvalues --   -0.69786  -0.69697  -0.69594  -0.68822  -0.68358
 Alpha  occ. eigenvalues --   -0.67985  -0.67588  -0.66549  -0.65375  -0.63884
 Alpha  occ. eigenvalues --   -0.63471  -0.63383  -0.61969  -0.61290  -0.60672
 Alpha  occ. eigenvalues --   -0.60348  -0.59967  -0.59398  -0.58477  -0.57825
 Alpha  occ. eigenvalues --   -0.57470  -0.57141  -0.56185  -0.55743  -0.55601
 Alpha  occ. eigenvalues --   -0.54575  -0.54286  -0.53921  -0.53509  -0.52522
 Alpha  occ. eigenvalues --   -0.52233  -0.51956  -0.50962  -0.50418  -0.50031
 Alpha  occ. eigenvalues --   -0.49647  -0.49375  -0.49251  -0.49033  -0.48365
 Alpha  occ. eigenvalues --   -0.48181  -0.48031  -0.47629  -0.47449  -0.47384
 Alpha  occ. eigenvalues --   -0.47095  -0.46867  -0.46666  -0.46520  -0.46276
 Alpha  occ. eigenvalues --   -0.45845  -0.45738  -0.45602  -0.45433  -0.45303
 Alpha  occ. eigenvalues --   -0.44697  -0.44577  -0.44475  -0.44395  -0.44204
 Alpha  occ. eigenvalues --   -0.44011  -0.43925  -0.43715  -0.43458  -0.43272
 Alpha  occ. eigenvalues --   -0.43204  -0.43032  -0.42919  -0.42658  -0.42588
 Alpha  occ. eigenvalues --   -0.42388  -0.42197  -0.42081  -0.41311  -0.41255
 Alpha  occ. eigenvalues --   -0.41136  -0.41059  -0.40930  -0.40867  -0.40709
 Alpha  occ. eigenvalues --   -0.40587  -0.40340  -0.40108  -0.39946  -0.39753
 Alpha  occ. eigenvalues --   -0.39443  -0.39395  -0.38881  -0.38748  -0.38582
 Alpha  occ. eigenvalues --   -0.38534  -0.38375  -0.38174  -0.38038  -0.37801
 Alpha  occ. eigenvalues --   -0.37716  -0.37559  -0.37512  -0.37474  -0.36504
 Alpha  occ. eigenvalues --   -0.36466  -0.36353  -0.36213  -0.36153  -0.36085
 Alpha  occ. eigenvalues --   -0.35891  -0.35707  -0.35434  -0.35263  -0.35101
 Alpha  occ. eigenvalues --   -0.34820  -0.34749  -0.34507  -0.34215  -0.33603
 Alpha  occ. eigenvalues --   -0.33485  -0.32927  -0.32630  -0.32534  -0.32152
 Alpha  occ. eigenvalues --   -0.32065  -0.31922  -0.31827  -0.31341  -0.30803
 Alpha  occ. eigenvalues --   -0.30669  -0.30383  -0.29651  -0.29613  -0.29297
 Alpha  occ. eigenvalues --   -0.29231  -0.28654  -0.28408  -0.27217  -0.25795
 Alpha  occ. eigenvalues --   -0.25636  -0.25454  -0.25082  -0.25063  -0.21143
 Alpha  occ. eigenvalues --   -0.19426
 Alpha virt. eigenvalues --   -0.11828  -0.04649  -0.04097  -0.02412   0.00014
 Alpha virt. eigenvalues --    0.00552   0.01218   0.01334   0.01447   0.03134
 Alpha virt. eigenvalues --    0.03683   0.04210   0.05049   0.05352   0.05446

 Mulliken charges:
               1
     1  Mg   0.973610
     2  C    0.006577
     3  C   -0.087265
     4  C   -0.045239
     5  C   -0.072973
     6  N   -0.382448
     7  C    0.015577
     8  C   -0.075046
     9  C   -0.102714
    10  C    0.115123
    11  C   -0.002363
    12  C   -0.066729
    13  C    0.036787
    14  C    0.190356
    15  O   -0.274862
    16  O   -0.361331
    17  N   -0.483692
    18  C    0.142572
    19  C   -0.178540
    20  C   -0.075149
    21  C    0.111996
    22  C    0.054125
    23  C    0.074656
    24  O   -0.282844
    25  C   -0.037869
    26  N   -0.435209
    27  C    0.124695
    28  C   -0.127613
    29  C   -0.081441
    30  C    0.062387
    31  C    0.025024
    32  C   -0.032820
    33  C   -0.071524
    34  N   -0.444315
    35  C    0.136741
    36  C   -0.171539
    37  C   -0.060924
    38  C    0.176423
    39  C    0.084221
    40  C    0.146980
    41  O   -0.222565
    42  C   -0.095010
    43  C    0.242256
    44  O   -0.245855
    45  O   -0.374585
    46  C    0.119023
    47  C    0.236228
    48  C   -0.117318
    49  C   -0.259220
    50  C   -0.001818
    51  C    0.024673
    52  C   -0.071783
    53  C    0.034429
    54  C   -0.215595
    55  C   -0.012428
    56  C   -0.023221
    57  C   -0.053066
    58  C   -0.032267
    59  C   -0.185788
    60  C   -0.004017
    61  C   -0.026250
    62  C   -0.030358
    63  C   -0.035776
    64  C   -0.253925
    65  C    0.010999
    66  C   -0.018097
    67  H   -0.012349
    68  H    0.035710
    69  H    0.006294
    70  H    0.068629
    71  H    0.058113
    72  H    0.048622
    73  H    0.040552
    74  H    0.050899
    75  H    0.056471
    76  H    0.079490
    77  H    0.055323
    78  H    0.059852
    79  H    0.039693
    80  H    0.052287
    81  H    0.057731
    82  H    0.067562
    83  H    0.063914
    84  H    0.059556
    85  H    0.050210
    86  H    0.032430
    87  H    0.048538
    88  H    0.046214
    89  H    0.038896
    90  H    0.041202
    91  H    0.031935
    92  H    0.057242
    93  H    0.059926
    94  H    0.049516
    95  H    0.023321
    96  H    0.071553
    97  H    0.054850
    98  H    0.077415
    99  H    0.034776
   100  H    0.071998
   101  H    0.064984
   102  H    0.084767
   103  H    0.062652
   104  H    0.030789
   105  H    0.049242
   106  H    0.069782
   107  H    0.035135
   108  H    0.018691
   109  H    0.047421
   110  H    0.040806
   111  H    0.033700
   112  H    0.024313
   113  H    0.028931
   114  H    0.030929
   115  H    0.027830
   116  H    0.032557
   117  H    0.029124
   118  H    0.022257
   119  H    0.039046
   120  H    0.038382
   121  H    0.042415
   122  H    0.014923
   123  H    0.008893
   124  H    0.026792
   125  H    0.037251
   126  H    0.027076
   127  H    0.028657
   128  H    0.026645
   129  H    0.040400
   130  H    0.035034
   131  H    0.018270
   132  H    0.020589
   133  H    0.028355
   134  H    0.051660
   135  H    0.018085
   136  H    0.041963
   137  H    0.038224
   138  H    0.031786
   139  H    0.029574
   140  H    0.031637
 Sum of Mulliken charges =  -0.00000

 Dipole moment (field-independent basis, Debye):
    X=             -2.1000    Y=              3.5971    Z=             -1.8647  Tot=              4.5636
 Quadrupole moment (field-independent basis, Debye-Ang):
   XX=           -378.6916   YY=           -408.7522   ZZ=           -405.6093
   XY=              4.8539   XZ=             18.7459   YZ=             -1.2946

 Normal termination of Gaussian 16 at Wed Apr 27 02:23:02 2022.
