 Gaussian 16, Revision A.03,
 Gaussian 16:  ES64L-G16RevA.03 25-Dec-2016

 --------------------------------
 #p wB97XD/Def2SVP td=(nstates=5)
 --------------------------------

 -----------------------------------------------------
 step_1051_chromophore_16 TDDFT with wB97XD functional
 -----------------------------------------------------
 Symbolic Z-matrix:
 Charge =  0 Multiplicity = 1

                         Standard orientation:
 ---------------------------------------------------------------------
 Center     Atomic      Atomic             Coordinates (Angstroms)
 Number     Number       Type             X           Y           Z
 ---------------------------------------------------------------------
      1         12           0        6.011690    0.670962    0.245207
      2          6           0        3.659282   -1.978484    0.151139
      3          6           0        3.618798    2.631863   -1.026096
      4          6           0        8.359297    2.783475   -0.202279
      5          6           0        8.462156   -1.809385    1.258256
      6          7           0        3.879823    0.355016   -0.332189
      7          6           0        3.117035   -0.796731   -0.288925
      8          6           0        1.672063   -0.609342   -0.787571
      9          6           0        1.665563    0.914994   -1.158580
     10          6           0        3.120119    1.369466   -0.803866
     11          6           0        1.010419    1.394472   -2.519301
     12          6           0        0.638092   -1.007635    0.305198
     13          6           0       -0.758948   -0.238970    0.462791
     14          6           0       -1.883569   -1.217911    0.638366
     15          8           0       -2.495774   -1.419496    1.685374
     16          8           0       -2.065987   -1.941706   -0.476251
     17          7           0        5.995951    2.566162   -0.483002
     18          6           0        4.884413    3.230953   -0.832403
     19          6           0        5.331784    4.505015   -1.262876
     20          6           0        6.742160    4.545017   -1.007033
     21          6           0        7.095296    3.223307   -0.582009
     22          6           0        4.428048    5.561590   -1.760266
     23          6           0        7.718852    5.729484   -1.015249
     24          8           0        8.929683    5.604681   -0.658896
     25          6           0        7.312804    7.119509   -1.582858
     26          7           0        8.013026    0.536779    0.759016
     27          6           0        8.806778    1.598499    0.371866
     28          6           0       10.345370    1.318664    0.696404
     29          6           0       10.286220   -0.018886    1.497714
     30          6           0        8.886649   -0.493841    1.189186
     31          6           0       11.267835    1.211286   -0.509572
     32          6           0       10.555354    0.130439    3.035991
     33          6           0        9.670068    1.166599    3.789363
     34          7           0        6.093941   -1.422501    0.729267
     35          6           0        7.133517   -2.264409    1.032223
     36          6           0        6.636341   -3.590346    1.177281
     37          6           0        5.272782   -3.496646    0.844325
     38          6           0        4.997513   -2.188126    0.489070
     39          6           0        7.435145   -4.844573    1.361265
     40          6           0        4.180753   -4.365002    0.681205
     41          8           0        3.990841   -5.580845    0.764346
     42          6           0        3.079728   -3.378388    0.278625
     43          6           0        2.361497   -3.971256   -0.880220
     44          8           0        2.667453   -3.777018   -2.034869
     45          8           0        1.356395   -4.862636   -0.516061
     46          6           0        0.625155   -5.464404   -1.642019
     47          6           0       -3.096285   -3.017777   -0.367922
     48          6           0       -4.366284   -2.360985   -0.890990
     49          6           0       -5.436459   -3.068646   -1.309603
     50          6           0       -5.527460   -4.636617   -1.241040
     51          6           0       -6.775628   -2.400115   -1.803489
     52          6           0       -7.527971   -1.596164   -0.736301
     53          6           0       -7.809204   -0.085771   -1.108945
     54          6           0       -9.206062    0.008059   -1.702639
     55          6           0       -9.208282    0.716963   -3.030091
     56          6           0      -10.279937    0.529087   -0.718417
     57          6           0      -11.792459    0.461608   -1.263924
     58          6           0      -12.720546    0.061237   -0.186454
     59          6           0      -14.103236    0.676921   -0.135313
     60          6           0      -14.841666    0.347294   -1.462118
     61          6           0      -13.949436    2.179760    0.107496
     62          6           0      -15.007997    2.756213    1.111405
     63          6           0      -14.307938    3.388840    2.343728
     64          6           0      -13.598625    2.336015    3.202422
     65          6           0      -12.456375    3.035559    4.038407
     66          6           0      -14.618802    1.618218    4.089998
     67          1           0        2.955020    3.378349   -1.466793
     68          1           0        9.098425    3.514882   -0.535135
     69          1           0        9.254155   -2.545929    1.408549
     70          1           0        1.469660   -1.220995   -1.666837
     71          1           0        1.073570    1.507594   -0.461938
     72          1           0        1.707635    1.905911   -3.182283
     73          1           0        0.192009    2.100767   -2.374337
     74          1           0        0.627025    0.514207   -3.035084
     75          1           0        1.082235   -0.883872    1.292472
     76          1           0        0.366122   -2.033626    0.054786
     77          1           0       -0.911606    0.341984   -0.445767
     78          1           0       -0.648128    0.363098    1.364386
     79          1           0        4.770532    6.541136   -1.427244
     80          1           0        3.355028    5.466715   -1.597350
     81          1           0        4.556104    5.518163   -2.842042
     82          1           0        6.498624    7.506977   -0.969680
     83          1           0        6.958979    7.043891   -2.610837
     84          1           0        8.173237    7.787410   -1.559083
     85          1           0       10.814271    2.060874    1.342892
     86          1           0       10.976886   -0.751641    1.079723
     87          1           0       12.246609    1.576064   -0.198042
     88          1           0       10.924864    1.812264   -1.351519
     89          1           0       11.252175    0.169401   -0.829110
     90          1           0       11.622018    0.261534    3.214899
     91          1           0       10.345892   -0.858895    3.445175
     92          1           0        8.844137    0.629231    4.255277
     93          1           0        9.252483    1.901252    3.100337
     94          1           0       10.348943    1.697603    4.457425
     95          1           0        8.493217   -4.589862    1.406853
     96          1           0        7.236263   -5.602792    0.603211
     97          1           0        7.184597   -5.270209    2.332690
     98          1           0        2.297767   -3.316757    1.035446
     99          1           0       -0.420865   -5.159759   -1.600637
    100          1           0        0.696077   -6.550824   -1.598261
    101          1           0        0.903361   -5.036126   -2.605012
    102          1           0       -3.258783   -3.374660    0.648817
    103          1           0       -2.822721   -3.840849   -1.028148
    104          1           0       -4.543771   -1.292884   -0.765298
    105          1           0       -6.139370   -4.981968   -2.074289
    106          1           0       -5.980923   -4.814934   -0.266127
    107          1           0       -4.555769   -5.121251   -1.334077
    108          1           0       -7.412637   -3.212808   -2.151840
    109          1           0       -6.533616   -1.775245   -2.663011
    110          1           0       -6.985078   -1.629747    0.208954
    111          1           0       -8.424332   -2.197178   -0.581590
    112          1           0       -7.067597    0.228988   -1.844146
    113          1           0       -7.645255    0.566718   -0.250836
    114          1           0       -9.632187   -0.973713   -1.912174
    115          1           0      -10.028452    1.432697   -2.990484
    116          1           0       -9.330461    0.053908   -3.886580
    117          1           0       -8.327292    1.283653   -3.329521
    118          1           0      -10.116559    1.605821   -0.746226
    119          1           0      -10.200098    0.122786    0.289335
    120          1           0      -11.721595   -0.300791   -2.038986
    121          1           0      -12.120766    1.447364   -1.593565
    122          1           0      -12.270489    0.185259    0.798182
    123          1           0      -12.769813   -1.026912   -0.142021
    124          1           0      -14.646619    0.226366    0.695787
    125          1           0      -14.190898    0.027471   -2.276121
    126          1           0      -15.417691    1.211339   -1.792719
    127          1           0      -15.541847   -0.480899   -1.345996
    128          1           0      -14.047836    2.723198   -0.831716
    129          1           0      -12.912152    2.346400    0.399157
    130          1           0      -15.847820    2.126508    1.406325
    131          1           0      -15.488705    3.575281    0.576883
    132          1           0      -15.100208    3.891382    2.899838
    133          1           0      -13.724137    4.252655    2.027473
    134          1           0      -13.310368    1.466929    2.610781
    135          1           0      -12.482534    4.055342    3.653673
    136          1           0      -11.469429    2.632777    3.810606
    137          1           0      -12.611614    3.149860    5.111706
    138          1           0      -14.335726    1.540981    5.139178
    139          1           0      -14.680825    0.622967    3.649135
    140          1           0      -15.603992    2.085630    4.107113
 ---------------------------------------------------------------------

 SCF Done:  E(RwB97XD) =  -3007.87988911     A.U. after   17 cycles

 Excitation energies and oscillator strengths:

 Excited State   1:      Singlet-A      1.6502 eV  751.34 nm  f=0.3933  <S**2>=0.000
     245 -> 248        0.16906
     246 -> 247        0.68773
     245 <- 248        0.11293
 This state for optimization and/or second-order correction.
 Total Energy, E(TD-HF/TD-DFT) =  -3007.81924662
 Copying the excited state density for this state as the 1-particle RhoCI density.

 Excited State   2:      Singlet-A      2.1340 eV  580.98 nm  f=0.1848  <S**2>=0.000
     245 -> 247        0.66494
     246 -> 248       -0.22236

 Excited State   3:      Singlet-A      3.1932 eV  388.27 nm  f=0.0043  <S**2>=0.000
     242 -> 247       -0.17938
     244 -> 247        0.66076

 Excited State   4:      Singlet-A      3.3862 eV  366.15 nm  f=0.0177  <S**2>=0.000
     240 -> 247       -0.14692
     240 -> 249       -0.12582
     242 -> 247        0.63410
     244 -> 247        0.14769

 Excited State   5:      Singlet-A      3.4513 eV  359.24 nm  f=0.0006  <S**2>=0.000
     239 -> 247        0.12607
     239 -> 249        0.12193
     240 -> 247        0.50278
     240 -> 248       -0.10503
     240 -> 249        0.31438
     240 -> 250       -0.16287
     242 -> 247        0.17717
     246 -> 248        0.10858

 The electronic state is 1-A.
 Alpha  occ. eigenvalues --  -46.94826 -19.30711 -19.29432 -19.24219 -19.24198
 Alpha  occ. eigenvalues --  -19.24161 -19.23350 -14.47515 -14.46731 -14.43682
 Alpha  occ. eigenvalues --  -14.43388 -10.42962 -10.42559 -10.40167 -10.37995
 Alpha  occ. eigenvalues --  -10.36604 -10.35613 -10.35544 -10.35277 -10.34686
 Alpha  occ. eigenvalues --  -10.34546 -10.33954 -10.33519 -10.33129 -10.33009
 Alpha  occ. eigenvalues --  -10.32947 -10.32883 -10.32135 -10.31925 -10.31865
 Alpha  occ. eigenvalues --  -10.31833 -10.31608 -10.31557 -10.31489 -10.31450
 Alpha  occ. eigenvalues --  -10.31346 -10.31344 -10.31294 -10.31070 -10.30993
 Alpha  occ. eigenvalues --  -10.30712 -10.30678 -10.30401 -10.30369 -10.29849
 Alpha  occ. eigenvalues --  -10.29534 -10.29532 -10.29513 -10.29429 -10.29372
 Alpha  occ. eigenvalues --  -10.29171 -10.29147 -10.29116 -10.29109 -10.29101
 Alpha  occ. eigenvalues --  -10.28888 -10.28831 -10.28815 -10.28492 -10.28436
 Alpha  occ. eigenvalues --  -10.28149 -10.27962 -10.27941 -10.27824 -10.27718
 Alpha  occ. eigenvalues --  -10.27679  -3.20859  -1.94467  -1.94014  -1.93809
 Alpha  occ. eigenvalues --   -1.19215  -1.17615  -1.10888  -1.10272  -1.09416
 Alpha  occ. eigenvalues --   -1.09288  -1.08409  -1.06266  -1.05334  -1.03884
 Alpha  occ. eigenvalues --   -0.95457  -0.92513  -0.91927  -0.91671  -0.91423
 Alpha  occ. eigenvalues --   -0.90533  -0.90448  -0.89624  -0.89590  -0.89087
 Alpha  occ. eigenvalues --   -0.88235  -0.87496  -0.86114  -0.85475  -0.85281
 Alpha  occ. eigenvalues --   -0.84308  -0.83905  -0.83084  -0.82744  -0.82328
 Alpha  occ. eigenvalues --   -0.81558  -0.80757  -0.80426  -0.79277  -0.78131
 Alpha  occ. eigenvalues --   -0.77475  -0.77294  -0.77274  -0.76507  -0.76018
 Alpha  occ. eigenvalues --   -0.75582  -0.75086  -0.74147  -0.72950  -0.71432
 Alpha  occ. eigenvalues --   -0.71096  -0.70887  -0.69620  -0.68941  -0.68319
 Alpha  occ. eigenvalues --   -0.67779  -0.67534  -0.66796  -0.65943  -0.65348
 Alpha  occ. eigenvalues --   -0.65079  -0.64779  -0.63597  -0.63371  -0.63089
 Alpha  occ. eigenvalues --   -0.61998  -0.61664  -0.61451  -0.60918  -0.59929
 Alpha  occ. eigenvalues --   -0.59740  -0.59420  -0.58365  -0.57848  -0.57441
 Alpha  occ. eigenvalues --   -0.56989  -0.56773  -0.56699  -0.56425  -0.55778
 Alpha  occ. eigenvalues --   -0.55613  -0.55376  -0.55176  -0.55014  -0.54693
 Alpha  occ. eigenvalues --   -0.54524  -0.54207  -0.54072  -0.53886  -0.53579
 Alpha  occ. eigenvalues --   -0.53196  -0.53111  -0.52976  -0.52718  -0.52635
 Alpha  occ. eigenvalues --   -0.52056  -0.52039  -0.51826  -0.51730  -0.51640
 Alpha  occ. eigenvalues --   -0.51317  -0.51235  -0.51064  -0.50827  -0.50582
 Alpha  occ. eigenvalues --   -0.50433  -0.50333  -0.50261  -0.50046  -0.49892
 Alpha  occ. eigenvalues --   -0.49678  -0.49420  -0.49339  -0.48529  -0.48477
 Alpha  occ. eigenvalues --   -0.48318  -0.48314  -0.48114  -0.48093  -0.47887
 Alpha  occ. eigenvalues --   -0.47839  -0.47492  -0.47191  -0.47091  -0.46900
 Alpha  occ. eigenvalues --   -0.46652  -0.46546  -0.46099  -0.45975  -0.45715
 Alpha  occ. eigenvalues --   -0.45658  -0.45466  -0.45292  -0.45184  -0.44943
 Alpha  occ. eigenvalues --   -0.44809  -0.44695  -0.44595  -0.44558  -0.43737
 Alpha  occ. eigenvalues --   -0.43646  -0.43426  -0.43295  -0.43273  -0.43139
 Alpha  occ. eigenvalues --   -0.43008  -0.42727  -0.42444  -0.42282  -0.42064
 Alpha  occ. eigenvalues --   -0.41906  -0.41846  -0.41570  -0.41269  -0.40635
 Alpha  occ. eigenvalues --   -0.40420  -0.40010  -0.39642  -0.39515  -0.39096
 Alpha  occ. eigenvalues --   -0.39063  -0.38881  -0.38808  -0.38339  -0.37876
 Alpha  occ. eigenvalues --   -0.37633  -0.37319  -0.36548  -0.36392  -0.36273
 Alpha  occ. eigenvalues --   -0.36098  -0.35749  -0.35307  -0.33856  -0.32880
 Alpha  occ. eigenvalues --   -0.32484  -0.32432  -0.31870  -0.31462  -0.26105
 Alpha  occ. eigenvalues --   -0.23687
 Alpha virt. eigenvalues --   -0.07791   0.00922   0.02153   0.04062   0.06163
 Alpha virt. eigenvalues --    0.07206   0.07659   0.08106   0.08200   0.09398
 Alpha virt. eigenvalues --    0.10320   0.11088   0.11832   0.12057   0.12332

 Mulliken charges:
               1
     1  Mg   0.963136
     2  C    0.008256
     3  C   -0.095498
     4  C   -0.064384
     5  C   -0.092228
     6  N   -0.346091
     7  C   -0.015080
     8  C   -0.053212
     9  C   -0.081125
    10  C    0.101242
    11  C    0.008648
    12  C   -0.053159
    13  C    0.053880
    14  C    0.181515
    15  O   -0.272390
    16  O   -0.361975
    17  N   -0.445234
    18  C    0.126205
    19  C   -0.159112
    20  C   -0.069110
    21  C    0.099718
    22  C    0.064384
    23  C    0.069510
    24  O   -0.276906
    25  C   -0.026308
    26  N   -0.409766
    27  C    0.119774
    28  C   -0.107240
    29  C   -0.051313
    30  C    0.047400
    31  C    0.034740
    32  C   -0.019953
    33  C   -0.052725
    34  N   -0.406931
    35  C    0.130711
    36  C   -0.173399
    37  C   -0.057393
    38  C    0.157390
    39  C    0.096011
    40  C    0.133853
    41  O   -0.211803
    42  C   -0.061493
    43  C    0.219970
    44  O   -0.240210
    45  O   -0.373841
    46  C    0.136065
    47  C    0.257374
    48  C   -0.131502
    49  C   -0.245896
    50  C    0.015743
    51  C    0.038421
    52  C   -0.052540
    53  C    0.047258
    54  C   -0.182729
    55  C   -0.001853
    56  C   -0.004847
    57  C   -0.037266
    58  C   -0.008960
    59  C   -0.156692
    60  C    0.005380
    61  C   -0.010818
    62  C   -0.015873
    63  C   -0.015947
    64  C   -0.217272
    65  C    0.024519
    66  C   -0.010134
    67  H   -0.021818
    68  H    0.029610
    69  H    0.000778
    70  H    0.059900
    71  H    0.044593
    72  H    0.042685
    73  H    0.035966
    74  H    0.045831
    75  H    0.049186
    76  H    0.065096
    77  H    0.045769
    78  H    0.055647
    79  H    0.033010
    80  H    0.050251
    81  H    0.053231
    82  H    0.061961
    83  H    0.059574
    84  H    0.059131
    85  H    0.040929
    86  H    0.022780
    87  H    0.043768
    88  H    0.039791
    89  H    0.032216
    90  H    0.034014
    91  H    0.022395
    92  H    0.052214
    93  H    0.047436
    94  H    0.044571
    95  H    0.016388
    96  H    0.067183
    97  H    0.049243
    98  H    0.069114
    99  H    0.029556
   100  H    0.068490
   101  H    0.060942
   102  H    0.080454
   103  H    0.055473
   104  H    0.026995
   105  H    0.043615
   106  H    0.063386
   107  H    0.029116
   108  H    0.011418
   109  H    0.038624
   110  H    0.032394
   111  H    0.024710
   112  H    0.013552
   113  H    0.023264
   114  H    0.013869
   115  H    0.019869
   116  H    0.027845
   117  H    0.023807
   118  H    0.009936
   119  H    0.030968
   120  H    0.028004
   121  H    0.031209
   122  H    0.000180
   123  H    0.000941
   124  H    0.015326
   125  H    0.030527
   126  H    0.020741
   127  H    0.023683
   128  H    0.018536
   129  H    0.025406
   130  H    0.027101
   131  H    0.011098
   132  H    0.011180
   133  H    0.019383
   134  H    0.029198
   135  H    0.010060
   136  H    0.037026
   137  H    0.033012
   138  H    0.026395
   139  H    0.024374
   140  H    0.024993
 Sum of Mulliken charges =  -0.00000

 Dipole moment (field-independent basis, Debye):
    X=             -2.2271    Y=              4.0218    Z=             -2.0382  Tot=              5.0289
 Quadrupole moment (field-independent basis, Debye-Ang):
   XX=           -380.5070   YY=           -406.4891   ZZ=           -405.2981
   XY=              7.9310   XZ=             17.4942   YZ=             -1.5492

 Normal termination of Gaussian 16 at Wed Apr 27 02:49:28 2022.
