 Gaussian 16, Revision A.03,
 Gaussian 16:  ES64L-G16RevA.03 25-Dec-2016

 --------------------
 #p ZINDO=(nstates=5)
 --------------------

 ------------------------------
 step_1051_chromophore_16 ZINDO
 ------------------------------
 Symbolic Z-matrix:
 Charge =  0 Multiplicity = 1

                         Standard orientation:
 ---------------------------------------------------------------------
 Center     Atomic      Atomic             Coordinates (Angstroms)
 Number     Number       Type             X           Y           Z
 ---------------------------------------------------------------------
      1         12           0        6.011690    0.670962    0.245207
      2          6           0        3.659282   -1.978484    0.151139
      3          6           0        3.618798    2.631863   -1.026096
      4          6           0        8.359297    2.783475   -0.202279
      5          6           0        8.462156   -1.809385    1.258256
      6          7           0        3.879823    0.355016   -0.332189
      7          6           0        3.117035   -0.796731   -0.288925
      8          6           0        1.672063   -0.609342   -0.787571
      9          6           0        1.665563    0.914994   -1.158580
     10          6           0        3.120119    1.369466   -0.803866
     11          6           0        1.010419    1.394472   -2.519301
     12          6           0        0.638092   -1.007635    0.305198
     13          6           0       -0.758948   -0.238970    0.462791
     14          6           0       -1.883569   -1.217911    0.638366
     15          8           0       -2.495774   -1.419496    1.685374
     16          8           0       -2.065987   -1.941706   -0.476251
     17          7           0        5.995951    2.566162   -0.483002
     18          6           0        4.884413    3.230953   -0.832403
     19          6           0        5.331784    4.505015   -1.262876
     20          6           0        6.742160    4.545017   -1.007033
     21          6           0        7.095296    3.223307   -0.582009
     22          6           0        4.428048    5.561590   -1.760266
     23          6           0        7.718852    5.729484   -1.015249
     24          8           0        8.929683    5.604681   -0.658896
     25          6           0        7.312804    7.119509   -1.582858
     26          7           0        8.013026    0.536779    0.759016
     27          6           0        8.806778    1.598499    0.371866
     28          6           0       10.345370    1.318664    0.696404
     29          6           0       10.286220   -0.018886    1.497714
     30          6           0        8.886649   -0.493841    1.189186
     31          6           0       11.267835    1.211286   -0.509572
     32          6           0       10.555354    0.130439    3.035991
     33          6           0        9.670068    1.166599    3.789363
     34          7           0        6.093941   -1.422501    0.729267
     35          6           0        7.133517   -2.264409    1.032223
     36          6           0        6.636341   -3.590346    1.177281
     37          6           0        5.272782   -3.496646    0.844325
     38          6           0        4.997513   -2.188126    0.489070
     39          6           0        7.435145   -4.844573    1.361265
     40          6           0        4.180753   -4.365002    0.681205
     41          8           0        3.990841   -5.580845    0.764346
     42          6           0        3.079728   -3.378388    0.278625
     43          6           0        2.361497   -3.971256   -0.880220
     44          8           0        2.667453   -3.777018   -2.034869
     45          8           0        1.356395   -4.862636   -0.516061
     46          6           0        0.625155   -5.464404   -1.642019
     47          6           0       -3.096285   -3.017777   -0.367922
     48          6           0       -4.366284   -2.360985   -0.890990
     49          6           0       -5.436459   -3.068646   -1.309603
     50          6           0       -5.527460   -4.636617   -1.241040
     51          6           0       -6.775628   -2.400115   -1.803489
     52          6           0       -7.527971   -1.596164   -0.736301
     53          6           0       -7.809204   -0.085771   -1.108945
     54          6           0       -9.206062    0.008059   -1.702639
     55          6           0       -9.208282    0.716963   -3.030091
     56          6           0      -10.279937    0.529087   -0.718417
     57          6           0      -11.792459    0.461608   -1.263924
     58          6           0      -12.720546    0.061237   -0.186454
     59          6           0      -14.103236    0.676921   -0.135313
     60          6           0      -14.841666    0.347294   -1.462118
     61          6           0      -13.949436    2.179760    0.107496
     62          6           0      -15.007997    2.756213    1.111405
     63          6           0      -14.307938    3.388840    2.343728
     64          6           0      -13.598625    2.336015    3.202422
     65          6           0      -12.456375    3.035559    4.038407
     66          6           0      -14.618802    1.618218    4.089998
     67          1           0        2.955020    3.378349   -1.466793
     68          1           0        9.098425    3.514882   -0.535135
     69          1           0        9.254155   -2.545929    1.408549
     70          1           0        1.469660   -1.220995   -1.666837
     71          1           0        1.073570    1.507594   -0.461938
     72          1           0        1.707635    1.905911   -3.182283
     73          1           0        0.192009    2.100767   -2.374337
     74          1           0        0.627025    0.514207   -3.035084
     75          1           0        1.082235   -0.883872    1.292472
     76          1           0        0.366122   -2.033626    0.054786
     77          1           0       -0.911606    0.341984   -0.445767
     78          1           0       -0.648128    0.363098    1.364386
     79          1           0        4.770532    6.541136   -1.427244
     80          1           0        3.355028    5.466715   -1.597350
     81          1           0        4.556104    5.518163   -2.842042
     82          1           0        6.498624    7.506977   -0.969680
     83          1           0        6.958979    7.043891   -2.610837
     84          1           0        8.173237    7.787410   -1.559083
     85          1           0       10.814271    2.060874    1.342892
     86          1           0       10.976886   -0.751641    1.079723
     87          1           0       12.246609    1.576064   -0.198042
     88          1           0       10.924864    1.812264   -1.351519
     89          1           0       11.252175    0.169401   -0.829110
     90          1           0       11.622018    0.261534    3.214899
     91          1           0       10.345892   -0.858895    3.445175
     92          1           0        8.844137    0.629231    4.255277
     93          1           0        9.252483    1.901252    3.100337
     94          1           0       10.348943    1.697603    4.457425
     95          1           0        8.493217   -4.589862    1.406853
     96          1           0        7.236263   -5.602792    0.603211
     97          1           0        7.184597   -5.270209    2.332690
     98          1           0        2.297767   -3.316757    1.035446
     99          1           0       -0.420865   -5.159759   -1.600637
    100          1           0        0.696077   -6.550824   -1.598261
    101          1           0        0.903361   -5.036126   -2.605012
    102          1           0       -3.258783   -3.374660    0.648817
    103          1           0       -2.822721   -3.840849   -1.028148
    104          1           0       -4.543771   -1.292884   -0.765298
    105          1           0       -6.139370   -4.981968   -2.074289
    106          1           0       -5.980923   -4.814934   -0.266127
    107          1           0       -4.555769   -5.121251   -1.334077
    108          1           0       -7.412637   -3.212808   -2.151840
    109          1           0       -6.533616   -1.775245   -2.663011
    110          1           0       -6.985078   -1.629747    0.208954
    111          1           0       -8.424332   -2.197178   -0.581590
    112          1           0       -7.067597    0.228988   -1.844146
    113          1           0       -7.645255    0.566718   -0.250836
    114          1           0       -9.632187   -0.973713   -1.912174
    115          1           0      -10.028452    1.432697   -2.990484
    116          1           0       -9.330461    0.053908   -3.886580
    117          1           0       -8.327292    1.283653   -3.329521
    118          1           0      -10.116559    1.605821   -0.746226
    119          1           0      -10.200098    0.122786    0.289335
    120          1           0      -11.721595   -0.300791   -2.038986
    121          1           0      -12.120766    1.447364   -1.593565
    122          1           0      -12.270489    0.185259    0.798182
    123          1           0      -12.769813   -1.026912   -0.142021
    124          1           0      -14.646619    0.226366    0.695787
    125          1           0      -14.190898    0.027471   -2.276121
    126          1           0      -15.417691    1.211339   -1.792719
    127          1           0      -15.541847   -0.480899   -1.345996
    128          1           0      -14.047836    2.723198   -0.831716
    129          1           0      -12.912152    2.346400    0.399157
    130          1           0      -15.847820    2.126508    1.406325
    131          1           0      -15.488705    3.575281    0.576883
    132          1           0      -15.100208    3.891382    2.899838
    133          1           0      -13.724137    4.252655    2.027473
    134          1           0      -13.310368    1.466929    2.610781
    135          1           0      -12.482534    4.055342    3.653673
    136          1           0      -11.469429    2.632777    3.810606
    137          1           0      -12.611614    3.149860    5.111706
    138          1           0      -14.335726    1.540981    5.139178
    139          1           0      -14.680825    0.622967    3.649135
    140          1           0      -15.603992    2.085630    4.107113
 ---------------------------------------------------------------------

 SCF Done:  E(RZINDO/S) =  -474.519774610     A.U. after   18 cycles

 Excitation energies and oscillator strengths:

 Excited State   1:      Singlet-A      1.2261 eV 1011.22 nm  f=0.6326  <S**2>=0.000
     175 ->178         0.16925
     176 ->177         0.66674
 This state for optimization and/or second-order correction.
 Total Energy, E(CIS/TDA) =  -474.474716799
 Copying the excited state density for this state as the 1-particle RhoCI density.

 Excited State   2:      Singlet-A      1.9282 eV  643.00 nm  f=0.1468  <S**2>=0.000
     175 ->177         0.60013
     176 ->178        -0.33213

 Excited State   3:      Singlet-A      2.8659 eV  432.61 nm  f=0.0040  <S**2>=0.000
     168 ->177         0.23562
     168 ->179         0.35680
     168 ->180        -0.22962
     168 ->185         0.17480
     169 ->177         0.17133
     169 ->179         0.24388
     169 ->180        -0.15011
     169 ->185         0.11688
     172 ->177         0.10438

 Excited State   4:      Singlet-A      2.9247 eV  423.93 nm  f=0.0027  <S**2>=0.000
     170 ->177         0.35011
     170 ->178        -0.26932
     170 ->179        -0.26250
     170 ->180        -0.32375
     170 ->185        -0.14284
     170 ->187         0.15166

 Excited State   5:      Singlet-A      3.0294 eV  409.27 nm  f=0.0001  <S**2>=0.000
     171 ->177         0.37677
     172 ->177        -0.16802
     173 ->177         0.53354
     176 ->179         0.11649

 The electronic state is 1-A.
 Alpha  occ. eigenvalues --   -1.86975  -1.85442  -1.79458  -1.74943  -1.72585
 Alpha  occ. eigenvalues --   -1.71478  -1.68065  -1.61859  -1.59104  -1.55659
 Alpha  occ. eigenvalues --   -1.55425  -1.50697  -1.48897  -1.47846  -1.45784
 Alpha  occ. eigenvalues --   -1.44746  -1.43605  -1.40882  -1.38629  -1.37532
 Alpha  occ. eigenvalues --   -1.36064  -1.33844  -1.33099  -1.31771  -1.30398
 Alpha  occ. eigenvalues --   -1.26261  -1.24858  -1.22520  -1.20874  -1.18888
 Alpha  occ. eigenvalues --   -1.17629  -1.16856  -1.15375  -1.13517  -1.13429
 Alpha  occ. eigenvalues --   -1.12843  -1.11146  -1.10333  -1.04269  -1.03728
 Alpha  occ. eigenvalues --   -1.02595  -1.01575  -0.99932  -0.98984  -0.98352
 Alpha  occ. eigenvalues --   -0.95925  -0.95737  -0.93952  -0.93557  -0.92242
 Alpha  occ. eigenvalues --   -0.90474  -0.90234  -0.89024  -0.87940  -0.86062
 Alpha  occ. eigenvalues --   -0.85237  -0.84517  -0.82874  -0.81962  -0.80941
 Alpha  occ. eigenvalues --   -0.79163  -0.78993  -0.77821  -0.77592  -0.76479
 Alpha  occ. eigenvalues --   -0.76033  -0.75464  -0.74949  -0.74400  -0.73816
 Alpha  occ. eigenvalues --   -0.72888  -0.72464  -0.71938  -0.71521  -0.70870
 Alpha  occ. eigenvalues --   -0.70278  -0.69423  -0.68586  -0.68469  -0.67859
 Alpha  occ. eigenvalues --   -0.67537  -0.66829  -0.66179  -0.66041  -0.65374
 Alpha  occ. eigenvalues --   -0.65166  -0.64633  -0.63899  -0.63479  -0.63186
 Alpha  occ. eigenvalues --   -0.62932  -0.62590  -0.62423  -0.62263  -0.61788
 Alpha  occ. eigenvalues --   -0.61361  -0.61008  -0.60714  -0.60283  -0.60160
 Alpha  occ. eigenvalues --   -0.59765  -0.59548  -0.59137  -0.58719  -0.58258
 Alpha  occ. eigenvalues --   -0.57932  -0.57533  -0.57322  -0.56778  -0.56413
 Alpha  occ. eigenvalues --   -0.55996  -0.55629  -0.55415  -0.55185  -0.54988
 Alpha  occ. eigenvalues --   -0.54377  -0.53970  -0.53910  -0.53288  -0.52944
 Alpha  occ. eigenvalues --   -0.52514  -0.52154  -0.51807  -0.51645  -0.50978
 Alpha  occ. eigenvalues --   -0.50786  -0.50737  -0.50654  -0.50277  -0.50074
 Alpha  occ. eigenvalues --   -0.49841  -0.49616  -0.49377  -0.49213  -0.48909
 Alpha  occ. eigenvalues --   -0.48735  -0.48574  -0.48483  -0.47977  -0.47768
 Alpha  occ. eigenvalues --   -0.47712  -0.47102  -0.46666  -0.46450  -0.46377
 Alpha  occ. eigenvalues --   -0.46249  -0.46058  -0.45770  -0.45470  -0.45186
 Alpha  occ. eigenvalues --   -0.44983  -0.44803  -0.44422  -0.44351  -0.44192
 Alpha  occ. eigenvalues --   -0.43604  -0.43210  -0.42994  -0.42306  -0.41677
 Alpha  occ. eigenvalues --   -0.41569  -0.41094  -0.40862  -0.39495  -0.38617
 Alpha  occ. eigenvalues --   -0.37837  -0.36753  -0.35317  -0.35010  -0.34761
 Alpha  occ. eigenvalues --   -0.33029  -0.32948  -0.32320  -0.31931  -0.26920
 Alpha  occ. eigenvalues --   -0.22466
 Alpha virt. eigenvalues --   -0.09391  -0.01705  -0.00586   0.00967   0.01929
 Alpha virt. eigenvalues --    0.02569   0.03083   0.03158   0.04832   0.05003
 Alpha virt. eigenvalues --    0.06123   0.06540   0.06986   0.07567   0.08176

 Mulliken charges:
               1
     1  Mg   0.429721
     2  C   -0.025246
     3  C   -0.064082
     4  C   -0.072274
     5  C   -0.068925
     6  N   -0.276264
     7  C    0.118320
     8  C    0.011841
     9  C   -0.006071
    10  C    0.131059
    11  C   -0.050729
    12  C   -0.029872
    13  C   -0.001278
    14  C    0.476773
    15  O   -0.533082
    16  O   -0.268864
    17  N   -0.297358
    18  C    0.095057
    19  C    0.025652
    20  C   -0.063492
    21  C    0.166220
    22  C   -0.043783
    23  C    0.313051
    24  O   -0.538813
    25  C   -0.028379
    26  N   -0.289766
    27  C    0.144804
    28  C    0.002344
    29  C    0.005842
    30  C    0.126424
    31  C   -0.049319
    32  C   -0.028634
    33  C   -0.055086
    34  N   -0.331154
    35  C    0.106213
    36  C    0.021289
    37  C   -0.049330
    38  C    0.112212
    39  C   -0.037088
    40  C    0.337455
    41  O   -0.528052
    42  C    0.057918
    43  C    0.487450
    44  O   -0.531073
    45  O   -0.269113
    46  C    0.072260
    47  C    0.106905
    48  C   -0.089494
    49  C   -0.025867
    50  C   -0.049041
    51  C   -0.023574
    52  C   -0.033744
    53  C   -0.027889
    54  C   -0.003213
    55  C   -0.056735
    56  C   -0.049262
    57  C   -0.036147
    58  C   -0.027117
    59  C   -0.005481
    60  C   -0.058842
    61  C   -0.030648
    62  C   -0.042600
    63  C   -0.028970
    64  C   -0.011482
    65  C   -0.063924
    66  C   -0.059803
    67  H    0.015960
    68  H    0.051116
    69  H    0.028469
    70  H    0.047473
    71  H    0.024401
    72  H    0.024463
    73  H    0.021067
    74  H    0.023824
    75  H    0.030214
    76  H    0.031913
    77  H    0.042989
    78  H    0.040163
    79  H    0.027124
    80  H    0.029884
    81  H    0.029748
    82  H    0.035326
    83  H    0.034894
    84  H    0.040054
    85  H    0.033700
    86  H    0.025419
    87  H    0.024202
    88  H    0.022966
    89  H    0.022304
    90  H    0.020608
    91  H    0.011297
    92  H    0.028953
    93  H    0.025198
    94  H    0.023134
    95  H    0.018146
    96  H    0.042260
    97  H    0.031878
    98  H    0.050112
    99  H    0.023940
   100  H    0.047373
   101  H    0.051114
   102  H    0.066613
   103  H    0.043008
   104  H    0.041943
   105  H    0.023785
   106  H    0.037693
   107  H    0.024134
   108  H    0.016698
   109  H    0.025354
   110  H    0.018155
   111  H    0.019327
   112  H    0.018424
   113  H    0.022232
   114  H    0.015266
   115  H    0.014254
   116  H    0.014815
   117  H    0.016263
   118  H    0.010565
   119  H    0.030466
   120  H    0.025383
   121  H    0.028742
   122  H    0.004325
   123  H    0.000866
   124  H    0.020613
   125  H    0.021741
   126  H    0.015622
   127  H    0.012523
   128  H    0.015089
   129  H    0.022020
   130  H    0.029743
   131  H    0.003334
   132  H    0.008087
   133  H    0.018720
   134  H    0.033378
   135  H    0.012767
   136  H    0.021580
   137  H    0.027661
   138  H    0.016799
   139  H    0.014367
   140  H    0.018107
 Sum of Mulliken charges =  -0.00000

 Dipole moment (field-independent basis, Debye):
    X=             -2.8695    Y=              5.5756    Z=             -2.6959  Tot=              6.8256
 N-N= 4.252365623965D+03 E-N= 0.000000000000D+00  KE=-9.179290470730D+03
 Leave Link  601 at Wed Apr 27 03:01:53 2022, MaxMem=  6710886400 cpu:               1.2 elap:               0.1
 (Enter /sw/apps/gaussian-16.0/g16/l9999.exe)
 1\1\GINC-BP1-COMPUTE162\SP\RZINDO CIS\STO-3G\C55H74Mg1N4O6\OF15641\27-
 Apr-2022\0\\#p ZINDO=(nstates=5)\\step_1051_chromophore_16 ZINDO\\0,1\
 Mg,0,41.107,41.411,27.213\C,0,40.237,43.635,29.832\C,0,42.036,39.237,2
 9.579\C,0,42.416,39.772,24.81\C,0,40.363,44.132,24.927\N,0,41.098,41.4
 36,29.444\C,0,40.702,42.436,30.312\C,0,40.858,42.071,31.8\C,0,41.437,4
 0.616,31.705\C,0,41.516,40.369,30.162\C,0,42.654,40.188,32.625\C,0,39.
 501,42.173,32.555\C,0,39.125,41.174,33.75\C,0,38.54,41.931,34.907\O,0,

 Normal termination of Gaussian 16 at Wed Apr 27 03:01:53 2022.
