 Gaussian 16, Revision A.03,
 Gaussian 16:  ES64L-G16RevA.03 25-Dec-2016

 ------------------------------
 #p blyp/Def2SVP td=(nstates=5)
 ------------------------------

 -------------------------------------------------
 step_201_chromophore_4 TDDFT with blyp functional
 -------------------------------------------------
 Symbolic Z-matrix:
 Charge =  0 Multiplicity = 1

                         Standard orientation:
 ---------------------------------------------------------------------
 Center     Atomic      Atomic             Coordinates (Angstroms)
 Number     Number       Type             X           Y           Z
 ---------------------------------------------------------------------
      1         12           0        5.962484    0.484115   -0.009716
      2          6           0        3.621435   -2.089440   -0.088063
      3          6           0        3.426117    2.677392   -0.809473
      4          6           0        8.252390    2.851941   -0.011450
      5          6           0        8.419310   -1.928705    0.596079
      6          7           0        3.701478    0.241549   -0.545239
      7          6           0        2.937228   -0.872322   -0.434027
      8          6           0        1.421302   -0.566272   -0.624861
      9          6           0        1.456869    0.974811   -0.959469
     10          6           0        2.943315    1.316649   -0.772253
     11          6           0        0.864458    1.459003   -2.231546
     12          6           0        0.674635   -0.987156    0.709069
     13          6           0       -0.815493   -0.686441    0.934981
     14          6           0       -1.829362   -1.797631    1.071076
     15          8           0       -2.014475   -2.551330    2.048092
     16          8           0       -2.595243   -1.823356   -0.071273
     17          7           0        5.882128    2.505763   -0.240686
     18          6           0        4.747318    3.224970   -0.641307
     19          6           0        5.139520    4.563225   -0.733308
     20          6           0        6.522321    4.605508   -0.440985
     21          6           0        6.964883    3.292830   -0.179211
     22          6           0        4.193610    5.685218   -0.873389
     23          6           0        7.357343    5.902641   -0.393842
     24          8           0        8.549577    5.941154   -0.131456
     25          6           0        6.802804    7.186106   -1.042667
     26          7           0        8.062817    0.449536    0.323264
     27          6           0        8.829401    1.598035    0.251096
     28          6           0       10.351832    1.347024    0.345653
     29          6           0       10.317700   -0.196330    0.638240
     30          6           0        8.851490   -0.615766    0.497531
     31          6           0       11.211812    1.638840   -0.944661
     32          6           0       10.749605   -0.453425    2.090101
     33          6           0       12.299962   -0.383885    2.469560
     34          7           0        6.079449   -1.621797    0.045722
     35          6           0        7.121318   -2.454079    0.387240
     36          6           0        6.647603   -3.782724    0.495285
     37          6           0        5.271389   -3.710144    0.170491
     38          6           0        4.953596   -2.332178   -0.012446
     39          6           0        7.413965   -5.065481    0.788419
     40          6           0        4.135382   -4.498903   -0.006011
     41          8           0        3.973689   -5.716680    0.149105
     42          6           0        2.939415   -3.479266   -0.071925
     43          6           0        2.129577   -3.847977   -1.241641
     44          8           0        2.340100   -3.735285   -2.386250
     45          8           0        1.077366   -4.497042   -0.728897
     46          6           0       -0.116121   -4.353673   -1.546454
     47          6           0       -3.661963   -2.762713   -0.306804
     48          6           0       -4.977140   -2.152159    0.278076
     49          6           0       -6.157334   -2.763616    0.459437
     50          6           0       -6.509908   -4.204432    0.126767
     51          6           0       -7.372662   -1.991619    0.959327
     52          6           0       -8.079547   -1.385324   -0.289778
     53          6           0       -8.069087    0.118500   -0.204869
     54          6           0       -9.429600    0.844119   -0.117082
     55          6           0      -10.143899    0.859219   -1.544518
     56          6           0       -9.195030    2.346612    0.380850
     57          6           0       -9.853206    2.691658    1.781703
     58          6           0      -11.300783    3.160752    1.522707
     59          6           0      -12.332816    2.379912    2.428569
     60          6           0      -12.647665    3.188765    3.673863
     61          6           0      -13.553055    2.125204    1.564936
     62          6           0      -13.407123    0.811685    0.618014
     63          6           0      -14.559225    0.652066   -0.296836
     64          6           0      -14.131434    0.105116   -1.688647
     65          6           0      -13.953803    1.305544   -2.669578
     66          6           0      -15.003074   -1.057243   -2.215232
     67          1           0        2.692686    3.454181   -1.036507
     68          1           0        8.895874    3.733119   -0.066304
     69          1           0        9.210591   -2.636361    0.852979
     70          1           0        1.173581   -1.181106   -1.489995
     71          1           0        0.934140    1.501232   -0.160565
     72          1           0        1.347837    2.394192   -2.514749
     73          1           0       -0.180317    1.693441   -2.028533
     74          1           0        0.767356    0.729181   -3.035201
     75          1           0        1.340084   -0.539477    1.446441
     76          1           0        0.808200   -2.069594    0.720671
     77          1           0       -1.156921   -0.187342    0.028776
     78          1           0       -0.923016    0.013237    1.763332
     79          1           0        3.204747    5.348804   -0.562217
     80          1           0        4.142388    5.903025   -1.939810
     81          1           0        4.417233    6.552206   -0.250809
     82          1           0        7.698432    7.779858   -1.221439
     83          1           0        6.318334    7.553496   -0.138122
     84          1           0        6.117786    7.045751   -1.879422
     85          1           0       10.688521    1.960655    1.181336
     86          1           0       10.970672   -0.788777   -0.003294
     87          1           0       11.952968    2.405603   -0.719344
     88          1           0       10.529462    1.907080   -1.750938
     89          1           0       11.704864    0.745376   -1.326010
     90          1           0       10.310653   -1.409596    2.377169
     91          1           0       10.226330    0.263070    2.724076
     92          1           0       12.541547    0.409420    3.176982
     93          1           0       12.989219   -0.063839    1.686843
     94          1           0       12.695485   -1.317147    2.870493
     95          1           0        6.824989   -5.850064    1.264485
     96          1           0        8.252669   -4.694048    1.377267
     97          1           0        7.690698   -5.432549   -0.198916
     98          1           0        2.371392   -3.592961    0.851418
     99          1           0       -0.421219   -3.314523   -1.419004
    100          1           0       -1.002919   -4.911861   -1.245080
    101          1           0        0.015662   -4.479144   -2.621479
    102          1           0       -3.665837   -3.754676    0.144700
    103          1           0       -3.776884   -2.941932   -1.375714
    104          1           0       -4.828713   -1.149508    0.678005
    105          1           0       -6.918385   -4.777910    0.960190
    106          1           0       -5.646467   -4.751374   -0.251881
    107          1           0       -7.249362   -4.151560   -0.673031
    108          1           0       -7.129398   -1.271044    1.741345
    109          1           0       -7.929902   -2.727347    1.538640
    110          1           0       -9.103141   -1.754353   -0.353554
    111          1           0       -7.571980   -1.555138   -1.238698
    112          1           0       -7.563801    0.410949   -1.125382
    113          1           0       -7.431049    0.547998    0.567246
    114          1           0       -9.973957    0.362494    0.695168
    115          1           0      -11.098892    0.367514   -1.353943
    116          1           0       -9.520129    0.316304   -2.254694
    117          1           0      -10.243257    1.874471   -1.927987
    118          1           0       -9.585561    3.066604   -0.339502
    119          1           0       -8.144149    2.594033    0.527951
    120          1           0       -9.278572    3.523359    2.188297
    121          1           0       -9.933247    1.757475    2.336499
    122          1           0      -11.575343    3.171521    0.468487
    123          1           0      -11.332652    4.214704    1.798833
    124          1           0      -11.915757    1.422429    2.738951
    125          1           0      -13.490758    3.878873    3.619183
    126          1           0      -11.802739    3.711305    4.122536
    127          1           0      -12.932610    2.437110    4.410335
    128          1           0      -13.753473    2.935654    0.864179
    129          1           0      -14.415408    1.863057    2.177692
    130          1           0      -13.433154    0.010711    1.357143
    131          1           0      -12.573149    0.918684   -0.075351
    132          1           0      -15.065569    1.604289   -0.455275
    133          1           0      -15.292666    0.000007    0.178411
    134          1           0      -13.174248   -0.404216   -1.573090
    135          1           0      -14.253482    2.303945   -2.352692
    136          1           0      -14.437988    1.109275   -3.626027
    137          1           0      -12.896110    1.347364   -2.931918
    138          1           0      -15.270648   -0.959771   -3.268189
    139          1           0      -15.958142   -1.224076   -1.716814
    140          1           0      -14.479917   -1.992846   -2.014424
 ---------------------------------------------------------------------

 SCF Done:  E(RB-LYP) =  -3007.34681137     A.U. after   22 cycles

 Excitation energies and oscillator strengths:

 Excited State   1:      Singlet-A      1.8020 eV  688.05 nm  f=0.0029  <S**2>=0.000
     244 -> 247        0.68918
     245 -> 247        0.13498
 This state for optimization and/or second-order correction.
 Total Energy, E(TD-HF/TD-DFT) =  -3007.28059062
 Copying the excited state density for this state as the 1-particle RhoCI density.

 Excited State   2:      Singlet-A      1.8716 eV  662.45 nm  f=0.1895  <S**2>=0.000
     243 -> 247        0.35534
     245 -> 247        0.12452
     245 -> 248       -0.18940
     246 -> 247        0.56715
     246 <- 247       -0.11080

 Excited State   3:      Singlet-A      1.8855 eV  657.56 nm  f=0.1069  <S**2>=0.000
     243 -> 247        0.57739
     245 -> 247        0.13473
     245 -> 248        0.11971
     246 -> 247       -0.36738

 Excited State   4:      Singlet-A      2.0266 eV  611.79 nm  f=0.0807  <S**2>=0.000
     243 -> 247       -0.19355
     244 -> 247       -0.11493
     245 -> 247        0.61276
     246 -> 248        0.24152

 Excited State   5:      Singlet-A      2.2926 eV  540.79 nm  f=0.0000  <S**2>=0.000
     242 -> 247        0.70702

 The electronic state is 1-A.
 Alpha  occ. eigenvalues --  -46.27478 -18.83326 -18.80974 -18.77173 -18.76515
 Alpha  occ. eigenvalues --  -18.75818 -18.75137 -14.03793 -14.03309 -14.00818
 Alpha  occ. eigenvalues --  -14.00738 -10.05161 -10.02845  -9.99954  -9.98984
 Alpha  occ. eigenvalues --   -9.98645  -9.97313  -9.97260  -9.97058  -9.96709
 Alpha  occ. eigenvalues --   -9.96323  -9.95710  -9.95678  -9.95360  -9.94955
 Alpha  occ. eigenvalues --   -9.94533  -9.94525  -9.94387  -9.94273  -9.94270
 Alpha  occ. eigenvalues --   -9.93898  -9.93761  -9.93740  -9.93576  -9.93114
 Alpha  occ. eigenvalues --   -9.93080  -9.93012  -9.92839  -9.92795  -9.92789
 Alpha  occ. eigenvalues --   -9.92710  -9.92659  -9.92525  -9.92461  -9.92394
 Alpha  occ. eigenvalues --   -9.92253  -9.92167  -9.92164  -9.92062  -9.91910
 Alpha  occ. eigenvalues --   -9.91863  -9.91750  -9.91693  -9.91666  -9.91469
 Alpha  occ. eigenvalues --   -9.91164  -9.91074  -9.91016  -9.90954  -9.90927
 Alpha  occ. eigenvalues --   -9.90774  -9.90759  -9.90672  -9.90510  -9.90498
 Alpha  occ. eigenvalues --   -9.90347  -2.92047  -1.72489  -1.71951  -1.71728
 Alpha  occ. eigenvalues --   -0.99644  -0.98198  -0.91916  -0.91413  -0.90081
 Alpha  occ. eigenvalues --   -0.89537  -0.87336  -0.86651  -0.86283  -0.85629
 Alpha  occ. eigenvalues --   -0.75855  -0.73921  -0.73477  -0.73058  -0.72609
 Alpha  occ. eigenvalues --   -0.71965  -0.71824  -0.71390  -0.70948  -0.70863
 Alpha  occ. eigenvalues --   -0.70064  -0.69815  -0.68227  -0.67620  -0.67258
 Alpha  occ. eigenvalues --   -0.66341  -0.65816  -0.65501  -0.65296  -0.64415
 Alpha  occ. eigenvalues --   -0.64163  -0.63270  -0.62777  -0.61973  -0.60736
 Alpha  occ. eigenvalues --   -0.60563  -0.60445  -0.60353  -0.59531  -0.59195
 Alpha  occ. eigenvalues --   -0.58474  -0.58179  -0.57516  -0.56438  -0.55102
 Alpha  occ. eigenvalues --   -0.54394  -0.54170  -0.52839  -0.52141  -0.52000
 Alpha  occ. eigenvalues --   -0.51594  -0.51201  -0.50650  -0.50512  -0.50330
 Alpha  occ. eigenvalues --   -0.49943  -0.49472  -0.48748  -0.48664  -0.46982
 Alpha  occ. eigenvalues --   -0.46777  -0.46179  -0.45762  -0.45676  -0.44752
 Alpha  occ. eigenvalues --   -0.44433  -0.44373  -0.43266  -0.42982  -0.42530
 Alpha  occ. eigenvalues --   -0.42435  -0.42294  -0.41952  -0.41752  -0.41349
 Alpha  occ. eigenvalues --   -0.41061  -0.40971  -0.40453  -0.40165  -0.39977
 Alpha  occ. eigenvalues --   -0.39905  -0.39749  -0.39577  -0.39190  -0.39091
 Alpha  occ. eigenvalues --   -0.39037  -0.38894  -0.38647  -0.38498  -0.38408
 Alpha  occ. eigenvalues --   -0.38004  -0.37874  -0.37736  -0.37645  -0.37412
 Alpha  occ. eigenvalues --   -0.37190  -0.37007  -0.36854  -0.36704  -0.36599
 Alpha  occ. eigenvalues --   -0.36395  -0.36330  -0.36296  -0.35821  -0.35699
 Alpha  occ. eigenvalues --   -0.35624  -0.35561  -0.35163  -0.35054  -0.34914
 Alpha  occ. eigenvalues --   -0.34698  -0.34551  -0.34482  -0.34445  -0.34399
 Alpha  occ. eigenvalues --   -0.34200  -0.34046  -0.33757  -0.33694  -0.33290
 Alpha  occ. eigenvalues --   -0.33207  -0.32973  -0.32689  -0.32647  -0.32637
 Alpha  occ. eigenvalues --   -0.32336  -0.32245  -0.32086  -0.31838  -0.31748
 Alpha  occ. eigenvalues --   -0.31501  -0.31413  -0.31060  -0.30918  -0.30843
 Alpha  occ. eigenvalues --   -0.30642  -0.30232  -0.30090  -0.29981  -0.29864
 Alpha  occ. eigenvalues --   -0.29802  -0.29737  -0.29497  -0.29299  -0.29143
 Alpha  occ. eigenvalues --   -0.29011  -0.28952  -0.28832  -0.28103  -0.27772
 Alpha  occ. eigenvalues --   -0.27444  -0.27314  -0.26919  -0.26841  -0.26516
 Alpha  occ. eigenvalues --   -0.26317  -0.26136  -0.26047  -0.25781  -0.25341
 Alpha  occ. eigenvalues --   -0.24835  -0.24519  -0.24377  -0.24124  -0.23625
 Alpha  occ. eigenvalues --   -0.23548  -0.22542  -0.22032  -0.21931  -0.20707
 Alpha  occ. eigenvalues --   -0.20421  -0.20151  -0.18597  -0.18221  -0.17372
 Alpha  occ. eigenvalues --   -0.16355
 Alpha virt. eigenvalues --   -0.11726  -0.07268  -0.06388  -0.04369  -0.04181
 Alpha virt. eigenvalues --   -0.02181  -0.01808  -0.01415  -0.01162  -0.00106
 Alpha virt. eigenvalues --    0.00940   0.01416   0.02247   0.02558   0.02725

 Mulliken charges:
               1
     1  Mg   0.683058
     2  C   -0.034929
     3  C   -0.073030
     4  C   -0.033106
     5  C   -0.098352
     6  N   -0.155659
     7  C   -0.130208
     8  C    0.063608
     9  C    0.023768
    10  C   -0.000122
    11  C    0.149824
    12  C    0.087500
    13  C    0.167591
    14  C    0.080100
    15  O   -0.196578
    16  O   -0.266414
    17  N   -0.323466
    18  C    0.121754
    19  C   -0.138643
    20  C    0.041947
    21  C    0.079400
    22  C    0.184594
    23  C   -0.089359
    24  O   -0.162585
    25  C    0.135301
    26  N   -0.215499
    27  C    0.007830
    28  C    0.050847
    29  C    0.036155
    30  C    0.034019
    31  C    0.134876
    32  C    0.068282
    33  C    0.072617
    34  N   -0.239778
    35  C    0.124950
    36  C   -0.178223
    37  C    0.113847
    38  C    0.114685
    39  C    0.178084
    40  C   -0.067358
    41  O   -0.153266
    42  C   -0.013338
    43  C    0.078670
    44  O   -0.116484
    45  O   -0.250789
    46  C    0.222066
    47  C    0.304698
    48  C   -0.124439
    49  C   -0.155313
    50  C    0.145652
    51  C    0.129588
    52  C    0.130987
    53  C    0.051449
    54  C   -0.070519
    55  C    0.105862
    56  C    0.064566
    57  C    0.076720
    58  C    0.082748
    59  C   -0.033889
    60  C    0.127245
    61  C    0.054211
    62  C    0.040199
    63  C    0.132517
    64  C   -0.104467
    65  C    0.102618
    66  C    0.094341
    67  H   -0.065807
    68  H   -0.057171
    69  H   -0.061492
    70  H   -0.018330
    71  H   -0.029253
    72  H   -0.008953
    73  H   -0.021603
    74  H   -0.002778
    75  H   -0.013365
    76  H    0.005202
    77  H   -0.015541
    78  H    0.007767
    79  H   -0.012676
    80  H    0.005064
    81  H   -0.002141
    82  H   -0.000714
    83  H    0.001115
    84  H    0.013564
    85  H   -0.012136
    86  H   -0.026307
    87  H    0.005811
    88  H   -0.006253
    89  H   -0.011530
    90  H   -0.031741
    91  H   -0.026078
    92  H   -0.013679
    93  H   -0.019871
    94  H   -0.000097
    95  H    0.014796
    96  H   -0.002864
    97  H    0.014371
    98  H    0.022730
    99  H   -0.020979
   100  H    0.013425
   101  H    0.013237
   102  H    0.015829
   103  H    0.003848
   104  H   -0.034511
   105  H    0.008292
   106  H   -0.028397
   107  H   -0.004880
   108  H   -0.021941
   109  H   -0.043898
   110  H   -0.026054
   111  H   -0.014874
   112  H   -0.047288
   113  H   -0.032003
   114  H   -0.029804
   115  H    0.020212
   116  H   -0.022000
   117  H   -0.002663
   118  H   -0.036837
   119  H   -0.043520
   120  H   -0.028029
   121  H   -0.019812
   122  H   -0.028230
   123  H   -0.046204
   124  H   -0.040438
   125  H   -0.015736
   126  H   -0.021123
   127  H   -0.031220
   128  H   -0.027869
   129  H   -0.040016
   130  H   -0.024710
   131  H   -0.020746
   132  H   -0.040898
   133  H   -0.048588
   134  H   -0.019042
   135  H   -0.006934
   136  H   -0.025592
   137  H   -0.019809
   138  H   -0.018965
   139  H   -0.024194
   140  H   -0.020037
 Sum of Mulliken charges =  -0.00000

 Dipole moment (field-independent basis, Debye):
    X=             -2.6921    Y=              4.0264    Z=             -0.5934  Tot=              4.8798
 Quadrupole moment (field-independent basis, Debye-Ang):
   XX=           -376.0184   YY=           -436.5441   ZZ=           -412.3483
   XY=              0.7300   XZ=             12.8362   YZ=             -0.5881

 Normal termination of Gaussian 16 at Wed May  4 17:19:26 2022.
