 Gaussian 16, Revision A.03,
 Gaussian 16:  ES64L-G16RevA.03 25-Dec-2016

 -----------------------------------
 #p cam-b3lyp/Def2SVP td=(nstates=5)
 -----------------------------------

 ------------------------------------------------------
 step_201_chromophore_4 TDDFT with cam-b3lyp functional
 ------------------------------------------------------
 Symbolic Z-matrix:
 Charge =  0 Multiplicity = 1

                         Standard orientation:
 ---------------------------------------------------------------------
 Center     Atomic      Atomic             Coordinates (Angstroms)
 Number     Number       Type             X           Y           Z
 ---------------------------------------------------------------------
      1         12           0        5.962484    0.484115   -0.009716
      2          6           0        3.621435   -2.089440   -0.088063
      3          6           0        3.426117    2.677392   -0.809473
      4          6           0        8.252390    2.851941   -0.011450
      5          6           0        8.419310   -1.928705    0.596079
      6          7           0        3.701478    0.241549   -0.545239
      7          6           0        2.937228   -0.872322   -0.434027
      8          6           0        1.421302   -0.566272   -0.624861
      9          6           0        1.456869    0.974811   -0.959469
     10          6           0        2.943315    1.316649   -0.772253
     11          6           0        0.864458    1.459003   -2.231546
     12          6           0        0.674635   -0.987156    0.709069
     13          6           0       -0.815493   -0.686441    0.934981
     14          6           0       -1.829362   -1.797631    1.071076
     15          8           0       -2.014475   -2.551330    2.048092
     16          8           0       -2.595243   -1.823356   -0.071273
     17          7           0        5.882128    2.505763   -0.240686
     18          6           0        4.747318    3.224970   -0.641307
     19          6           0        5.139520    4.563225   -0.733308
     20          6           0        6.522321    4.605508   -0.440985
     21          6           0        6.964883    3.292830   -0.179211
     22          6           0        4.193610    5.685218   -0.873389
     23          6           0        7.357343    5.902641   -0.393842
     24          8           0        8.549577    5.941154   -0.131456
     25          6           0        6.802804    7.186106   -1.042667
     26          7           0        8.062817    0.449536    0.323264
     27          6           0        8.829401    1.598035    0.251096
     28          6           0       10.351832    1.347024    0.345653
     29          6           0       10.317700   -0.196330    0.638240
     30          6           0        8.851490   -0.615766    0.497531
     31          6           0       11.211812    1.638840   -0.944661
     32          6           0       10.749605   -0.453425    2.090101
     33          6           0       12.299962   -0.383885    2.469560
     34          7           0        6.079449   -1.621797    0.045722
     35          6           0        7.121318   -2.454079    0.387240
     36          6           0        6.647603   -3.782724    0.495285
     37          6           0        5.271389   -3.710144    0.170491
     38          6           0        4.953596   -2.332178   -0.012446
     39          6           0        7.413965   -5.065481    0.788419
     40          6           0        4.135382   -4.498903   -0.006011
     41          8           0        3.973689   -5.716680    0.149105
     42          6           0        2.939415   -3.479266   -0.071925
     43          6           0        2.129577   -3.847977   -1.241641
     44          8           0        2.340100   -3.735285   -2.386250
     45          8           0        1.077366   -4.497042   -0.728897
     46          6           0       -0.116121   -4.353673   -1.546454
     47          6           0       -3.661963   -2.762713   -0.306804
     48          6           0       -4.977140   -2.152159    0.278076
     49          6           0       -6.157334   -2.763616    0.459437
     50          6           0       -6.509908   -4.204432    0.126767
     51          6           0       -7.372662   -1.991619    0.959327
     52          6           0       -8.079547   -1.385324   -0.289778
     53          6           0       -8.069087    0.118500   -0.204869
     54          6           0       -9.429600    0.844119   -0.117082
     55          6           0      -10.143899    0.859219   -1.544518
     56          6           0       -9.195030    2.346612    0.380850
     57          6           0       -9.853206    2.691658    1.781703
     58          6           0      -11.300783    3.160752    1.522707
     59          6           0      -12.332816    2.379912    2.428569
     60          6           0      -12.647665    3.188765    3.673863
     61          6           0      -13.553055    2.125204    1.564936
     62          6           0      -13.407123    0.811685    0.618014
     63          6           0      -14.559225    0.652066   -0.296836
     64          6           0      -14.131434    0.105116   -1.688647
     65          6           0      -13.953803    1.305544   -2.669578
     66          6           0      -15.003074   -1.057243   -2.215232
     67          1           0        2.692686    3.454181   -1.036507
     68          1           0        8.895874    3.733119   -0.066304
     69          1           0        9.210591   -2.636361    0.852979
     70          1           0        1.173581   -1.181106   -1.489995
     71          1           0        0.934140    1.501232   -0.160565
     72          1           0        1.347837    2.394192   -2.514749
     73          1           0       -0.180317    1.693441   -2.028533
     74          1           0        0.767356    0.729181   -3.035201
     75          1           0        1.340084   -0.539477    1.446441
     76          1           0        0.808200   -2.069594    0.720671
     77          1           0       -1.156921   -0.187342    0.028776
     78          1           0       -0.923016    0.013237    1.763332
     79          1           0        3.204747    5.348804   -0.562217
     80          1           0        4.142388    5.903025   -1.939810
     81          1           0        4.417233    6.552206   -0.250809
     82          1           0        7.698432    7.779858   -1.221439
     83          1           0        6.318334    7.553496   -0.138122
     84          1           0        6.117786    7.045751   -1.879422
     85          1           0       10.688521    1.960655    1.181336
     86          1           0       10.970672   -0.788777   -0.003294
     87          1           0       11.952968    2.405603   -0.719344
     88          1           0       10.529462    1.907080   -1.750938
     89          1           0       11.704864    0.745376   -1.326010
     90          1           0       10.310653   -1.409596    2.377169
     91          1           0       10.226330    0.263070    2.724076
     92          1           0       12.541547    0.409420    3.176982
     93          1           0       12.989219   -0.063839    1.686843
     94          1           0       12.695485   -1.317147    2.870493
     95          1           0        6.824989   -5.850064    1.264485
     96          1           0        8.252669   -4.694048    1.377267
     97          1           0        7.690698   -5.432549   -0.198916
     98          1           0        2.371392   -3.592961    0.851418
     99          1           0       -0.421219   -3.314523   -1.419004
    100          1           0       -1.002919   -4.911861   -1.245080
    101          1           0        0.015662   -4.479144   -2.621479
    102          1           0       -3.665837   -3.754676    0.144700
    103          1           0       -3.776884   -2.941932   -1.375714
    104          1           0       -4.828713   -1.149508    0.678005
    105          1           0       -6.918385   -4.777910    0.960190
    106          1           0       -5.646467   -4.751374   -0.251881
    107          1           0       -7.249362   -4.151560   -0.673031
    108          1           0       -7.129398   -1.271044    1.741345
    109          1           0       -7.929902   -2.727347    1.538640
    110          1           0       -9.103141   -1.754353   -0.353554
    111          1           0       -7.571980   -1.555138   -1.238698
    112          1           0       -7.563801    0.410949   -1.125382
    113          1           0       -7.431049    0.547998    0.567246
    114          1           0       -9.973957    0.362494    0.695168
    115          1           0      -11.098892    0.367514   -1.353943
    116          1           0       -9.520129    0.316304   -2.254694
    117          1           0      -10.243257    1.874471   -1.927987
    118          1           0       -9.585561    3.066604   -0.339502
    119          1           0       -8.144149    2.594033    0.527951
    120          1           0       -9.278572    3.523359    2.188297
    121          1           0       -9.933247    1.757475    2.336499
    122          1           0      -11.575343    3.171521    0.468487
    123          1           0      -11.332652    4.214704    1.798833
    124          1           0      -11.915757    1.422429    2.738951
    125          1           0      -13.490758    3.878873    3.619183
    126          1           0      -11.802739    3.711305    4.122536
    127          1           0      -12.932610    2.437110    4.410335
    128          1           0      -13.753473    2.935654    0.864179
    129          1           0      -14.415408    1.863057    2.177692
    130          1           0      -13.433154    0.010711    1.357143
    131          1           0      -12.573149    0.918684   -0.075351
    132          1           0      -15.065569    1.604289   -0.455275
    133          1           0      -15.292666    0.000007    0.178411
    134          1           0      -13.174248   -0.404216   -1.573090
    135          1           0      -14.253482    2.303945   -2.352692
    136          1           0      -14.437988    1.109275   -3.626027
    137          1           0      -12.896110    1.347364   -2.931918
    138          1           0      -15.270648   -0.959771   -3.268189
    139          1           0      -15.958142   -1.224076   -1.716814
    140          1           0      -14.479917   -1.992846   -2.014424
 ---------------------------------------------------------------------

 SCF Done:  E(RCAM-B3LYP) =  -3007.15038891     A.U. after   17 cycles

 Excitation energies and oscillator strengths:

 Excited State   1:      Singlet-A      1.7768 eV  697.79 nm  f=0.3676  <S**2>=0.000
     245 -> 248       -0.20457
     246 -> 247        0.67867
     245 <- 248       -0.11073
 This state for optimization and/or second-order correction.
 Total Energy, E(TD-HF/TD-DFT) =  -3007.08509225
 Copying the excited state density for this state as the 1-particle RhoCI density.

 Excited State   2:      Singlet-A      2.2238 eV  557.53 nm  f=0.1219  <S**2>=0.000
     245 -> 247        0.64221
     246 -> 248        0.28341

 Excited State   3:      Singlet-A      3.2385 eV  382.84 nm  f=0.0042  <S**2>=0.000
     240 -> 247        0.16181
     241 -> 247        0.42729
     241 -> 248       -0.10342
     241 -> 249       -0.24109
     241 -> 250        0.14058
     242 -> 247       -0.25936
     242 -> 249        0.11531
     244 -> 247       -0.26641

 Excited State   4:      Singlet-A      3.3794 eV  366.89 nm  f=0.0007  <S**2>=0.000
     241 -> 247        0.18420
     242 -> 247       -0.23584
     244 -> 247        0.62352

 Excited State   5:      Singlet-A      3.4780 eV  356.48 nm  f=0.1180  <S**2>=0.000
     241 -> 247        0.25929
     242 -> 247        0.47529
     244 -> 247        0.10396
     245 -> 247        0.10770
     246 -> 248       -0.39570

 The electronic state is 1-A.
 Alpha  occ. eigenvalues --  -46.89030 -19.26278 -19.24029 -19.20268 -19.19815
 Alpha  occ. eigenvalues --  -19.18942 -19.18337 -14.42804 -14.42118 -14.39240
 Alpha  occ. eigenvalues --  -14.39081 -10.40627 -10.38255 -10.35125 -10.34024
 Alpha  occ. eigenvalues --  -10.33088 -10.31940 -10.31512 -10.31473 -10.31149
 Alpha  occ. eigenvalues --  -10.30714 -10.30027 -10.29872 -10.29610 -10.29160
 Alpha  occ. eigenvalues --  -10.28646 -10.28618 -10.28569 -10.28461 -10.28192
 Alpha  occ. eigenvalues --  -10.28168 -10.28158 -10.28141 -10.27601 -10.27501
 Alpha  occ. eigenvalues --  -10.27229 -10.26984 -10.26942 -10.26812 -10.26730
 Alpha  occ. eigenvalues --  -10.26440 -10.26386 -10.26356 -10.26316 -10.26240
 Alpha  occ. eigenvalues --  -10.26009 -10.25912 -10.25907 -10.25884 -10.25778
 Alpha  occ. eigenvalues --  -10.25748 -10.25620 -10.25531 -10.25381 -10.25137
 Alpha  occ. eigenvalues --  -10.24837 -10.24798 -10.24749 -10.24638 -10.24626
 Alpha  occ. eigenvalues --  -10.24546 -10.24408 -10.24364 -10.24251 -10.24188
 Alpha  occ. eigenvalues --  -10.23977  -3.17503  -1.92422  -1.91971  -1.91783
 Alpha  occ. eigenvalues --   -1.18497  -1.16675  -1.10268  -1.09579  -1.08470
 Alpha  occ. eigenvalues --   -1.07506  -1.05175  -1.04354  -1.03895  -1.03146
 Alpha  occ. eigenvalues --   -0.93104  -0.90820  -0.90350  -0.89886  -0.89360
 Alpha  occ. eigenvalues --   -0.88543  -0.88494  -0.88013  -0.87523  -0.87452
 Alpha  occ. eigenvalues --   -0.86634  -0.86281  -0.84466  -0.83852  -0.83425
 Alpha  occ. eigenvalues --   -0.82355  -0.81769  -0.81384  -0.81331  -0.80362
 Alpha  occ. eigenvalues --   -0.79997  -0.79002  -0.78492  -0.77476  -0.76204
 Alpha  occ. eigenvalues --   -0.75934  -0.75771  -0.75712  -0.74832  -0.74363
 Alpha  occ. eigenvalues --   -0.73644  -0.73228  -0.72516  -0.71330  -0.69711
 Alpha  occ. eigenvalues --   -0.69051  -0.68755  -0.67259  -0.66463  -0.66279
 Alpha  occ. eigenvalues --   -0.65652  -0.65344  -0.64667  -0.64557  -0.64247
 Alpha  occ. eigenvalues --   -0.63972  -0.63433  -0.62646  -0.62544  -0.60558
 Alpha  occ. eigenvalues --   -0.60358  -0.59849  -0.59366  -0.59096  -0.58445
 Alpha  occ. eigenvalues --   -0.57930  -0.57756  -0.56527  -0.56373  -0.55907
 Alpha  occ. eigenvalues --   -0.55529  -0.55279  -0.55254  -0.55027  -0.54350
 Alpha  occ. eigenvalues --   -0.53750  -0.53700  -0.53368  -0.53043  -0.52783
 Alpha  occ. eigenvalues --   -0.52513  -0.52501  -0.52086  -0.51898  -0.51640
 Alpha  occ. eigenvalues --   -0.51484  -0.51427  -0.51246  -0.51007  -0.50708
 Alpha  occ. eigenvalues --   -0.50517  -0.50339  -0.50100  -0.49962  -0.49837
 Alpha  occ. eigenvalues --   -0.49758  -0.49538  -0.49322  -0.48868  -0.48739
 Alpha  occ. eigenvalues --   -0.48561  -0.48393  -0.48331  -0.48254  -0.48027
 Alpha  occ. eigenvalues --   -0.47813  -0.47630  -0.47289  -0.47231  -0.46894
 Alpha  occ. eigenvalues --   -0.46600  -0.46510  -0.46442  -0.46293  -0.46243
 Alpha  occ. eigenvalues --   -0.46149  -0.45789  -0.45493  -0.45286  -0.45198
 Alpha  occ. eigenvalues --   -0.45004  -0.44725  -0.44597  -0.44233  -0.44152
 Alpha  occ. eigenvalues --   -0.43887  -0.43806  -0.43646  -0.43375  -0.43188
 Alpha  occ. eigenvalues --   -0.43043  -0.42886  -0.42856  -0.42700  -0.42300
 Alpha  occ. eigenvalues --   -0.42125  -0.42104  -0.41598  -0.41383  -0.41188
 Alpha  occ. eigenvalues --   -0.41103  -0.40951  -0.40936  -0.40510  -0.40437
 Alpha  occ. eigenvalues --   -0.40089  -0.40033  -0.39980  -0.39056  -0.38760
 Alpha  occ. eigenvalues --   -0.38345  -0.38299  -0.37709  -0.37669  -0.37359
 Alpha  occ. eigenvalues --   -0.37287  -0.37053  -0.36917  -0.36704  -0.36034
 Alpha  occ. eigenvalues --   -0.35900  -0.35545  -0.34939  -0.34851  -0.34769
 Alpha  occ. eigenvalues --   -0.34301  -0.33932  -0.33578  -0.31473  -0.30579
 Alpha  occ. eigenvalues --   -0.30421  -0.29919  -0.29871  -0.29703  -0.24027
 Alpha  occ. eigenvalues --   -0.21746
 Alpha virt. eigenvalues --   -0.08822  -0.02254   0.00093   0.02627   0.03055
 Alpha virt. eigenvalues --    0.03527   0.05120   0.05768   0.06072   0.06429
 Alpha virt. eigenvalues --    0.07890   0.08436   0.08609   0.08858   0.09065

 Mulliken charges:
               1
     1  Mg   0.816128
     2  C   -0.048632
     3  C   -0.080232
     4  C   -0.054836
     5  C   -0.103943
     6  N   -0.222082
     7  C   -0.087773
     8  C    0.014950
     9  C   -0.031452
    10  C    0.017037
    11  C    0.090296
    12  C    0.038479
    13  C    0.094572
    14  C    0.163007
    15  O   -0.235379
    16  O   -0.334094
    17  N   -0.414913
    18  C    0.127035
    19  C   -0.142972
    20  C   -0.028918
    21  C    0.107131
    22  C    0.115031
    23  C   -0.004358
    24  O   -0.204789
    25  C    0.049402
    26  N   -0.289247
    27  C    0.029975
    28  C   -0.003728
    29  C   -0.018918
    30  C    0.050354
    31  C    0.076251
    32  C    0.013868
    33  C    0.011479
    34  N   -0.331323
    35  C    0.128038
    36  C   -0.172018
    37  C    0.031300
    38  C    0.151789
    39  C    0.132244
    40  C    0.032331
    41  O   -0.190465
    42  C   -0.096384
    43  C    0.162967
    44  O   -0.152053
    45  O   -0.311236
    46  C    0.183705
    47  C    0.274719
    48  C   -0.139212
    49  C   -0.182502
    50  C    0.086901
    51  C    0.069352
    52  C    0.071986
    53  C    0.003938
    54  C   -0.121962
    55  C    0.053106
    56  C    0.016454
    57  C    0.023101
    58  C    0.029879
    59  C   -0.092170
    60  C    0.067493
    61  C    0.005104
    62  C   -0.002910
    63  C    0.078138
    64  C   -0.169792
    65  C    0.045962
    66  C    0.039883
    67  H   -0.032083
    68  H   -0.015257
    69  H   -0.026471
    70  H    0.014793
    71  H    0.006272
    72  H    0.016485
    73  H    0.003083
    74  H    0.023256
    75  H    0.019264
    76  H    0.028625
    77  H    0.019368
    78  H    0.040892
    79  H    0.015239
    80  H    0.032979
    81  H    0.025212
    82  H    0.034579
    83  H    0.026766
    84  H    0.041652
    85  H    0.022493
    86  H    0.008437
    87  H    0.029200
    88  H    0.019754
    89  H    0.012276
    90  H   -0.001894
    91  H    0.002644
    92  H    0.010260
    93  H    0.003291
    94  H    0.023501
    95  H    0.042954
    96  H    0.018762
    97  H    0.041037
    98  H    0.066610
    99  H   -0.004020
   100  H    0.037258
   101  H    0.041472
   102  H    0.042550
   103  H    0.030332
   104  H   -0.002957
   105  H    0.033204
   106  H   -0.004557
   107  H    0.019096
   108  H    0.008890
   109  H   -0.012384
   110  H    0.002756
   111  H    0.013368
   112  H   -0.017861
   113  H   -0.005133
   114  H   -0.002818
   115  H    0.031729
   116  H    0.003220
   117  H    0.019391
   118  H   -0.009878
   119  H   -0.014038
   120  H    0.001733
   121  H    0.005113
   122  H   -0.002523
   123  H   -0.015274
   124  H   -0.009910
   125  H    0.009495
   126  H    0.003740
   127  H   -0.005982
   128  H   -0.001800
   129  H   -0.010779
   130  H    0.002597
   131  H   -0.004460
   132  H   -0.011308
   133  H   -0.018011
   134  H    0.012208
   135  H    0.015687
   136  H   -0.000416
   137  H    0.002294
   138  H    0.005045
   139  H    0.000240
   140  H    0.003614
 Sum of Mulliken charges =  -0.00000

 Dipole moment (field-independent basis, Debye):
    X=             -2.9822    Y=              4.3546    Z=             -0.7023  Tot=              5.3245
 Quadrupole moment (field-independent basis, Debye-Ang):
   XX=           -375.2918   YY=           -433.5804   ZZ=           -412.6354
   XY=              1.6849   XZ=             13.3698   YZ=             -0.7491

 Normal termination of Gaussian 16 at Wed May  4 16:22:07 2022.
