 Gaussian 16, Revision A.03,
 Gaussian 16:  ES64L-G16RevA.03 25-Dec-2016

 ---------------------------------
 #p PBE1PBE/Def2SVP td=(nstates=5)
 ---------------------------------

 ----------------------------------------------------
 step_201_chromophore_4 TDDFT with PBE1PBE functional
 ----------------------------------------------------
 Symbolic Z-matrix:
 Charge =  0 Multiplicity = 1

                         Standard orientation:
 ---------------------------------------------------------------------
 Center     Atomic      Atomic             Coordinates (Angstroms)
 Number     Number       Type             X           Y           Z
 ---------------------------------------------------------------------
      1         12           0        5.962484    0.484115   -0.009716
      2          6           0        3.621435   -2.089440   -0.088063
      3          6           0        3.426117    2.677392   -0.809473
      4          6           0        8.252390    2.851941   -0.011450
      5          6           0        8.419310   -1.928705    0.596079
      6          7           0        3.701478    0.241549   -0.545239
      7          6           0        2.937228   -0.872322   -0.434027
      8          6           0        1.421302   -0.566272   -0.624861
      9          6           0        1.456869    0.974811   -0.959469
     10          6           0        2.943315    1.316649   -0.772253
     11          6           0        0.864458    1.459003   -2.231546
     12          6           0        0.674635   -0.987156    0.709069
     13          6           0       -0.815493   -0.686441    0.934981
     14          6           0       -1.829362   -1.797631    1.071076
     15          8           0       -2.014475   -2.551330    2.048092
     16          8           0       -2.595243   -1.823356   -0.071273
     17          7           0        5.882128    2.505763   -0.240686
     18          6           0        4.747318    3.224970   -0.641307
     19          6           0        5.139520    4.563225   -0.733308
     20          6           0        6.522321    4.605508   -0.440985
     21          6           0        6.964883    3.292830   -0.179211
     22          6           0        4.193610    5.685218   -0.873389
     23          6           0        7.357343    5.902641   -0.393842
     24          8           0        8.549577    5.941154   -0.131456
     25          6           0        6.802804    7.186106   -1.042667
     26          7           0        8.062817    0.449536    0.323264
     27          6           0        8.829401    1.598035    0.251096
     28          6           0       10.351832    1.347024    0.345653
     29          6           0       10.317700   -0.196330    0.638240
     30          6           0        8.851490   -0.615766    0.497531
     31          6           0       11.211812    1.638840   -0.944661
     32          6           0       10.749605   -0.453425    2.090101
     33          6           0       12.299962   -0.383885    2.469560
     34          7           0        6.079449   -1.621797    0.045722
     35          6           0        7.121318   -2.454079    0.387240
     36          6           0        6.647603   -3.782724    0.495285
     37          6           0        5.271389   -3.710144    0.170491
     38          6           0        4.953596   -2.332178   -0.012446
     39          6           0        7.413965   -5.065481    0.788419
     40          6           0        4.135382   -4.498903   -0.006011
     41          8           0        3.973689   -5.716680    0.149105
     42          6           0        2.939415   -3.479266   -0.071925
     43          6           0        2.129577   -3.847977   -1.241641
     44          8           0        2.340100   -3.735285   -2.386250
     45          8           0        1.077366   -4.497042   -0.728897
     46          6           0       -0.116121   -4.353673   -1.546454
     47          6           0       -3.661963   -2.762713   -0.306804
     48          6           0       -4.977140   -2.152159    0.278076
     49          6           0       -6.157334   -2.763616    0.459437
     50          6           0       -6.509908   -4.204432    0.126767
     51          6           0       -7.372662   -1.991619    0.959327
     52          6           0       -8.079547   -1.385324   -0.289778
     53          6           0       -8.069087    0.118500   -0.204869
     54          6           0       -9.429600    0.844119   -0.117082
     55          6           0      -10.143899    0.859219   -1.544518
     56          6           0       -9.195030    2.346612    0.380850
     57          6           0       -9.853206    2.691658    1.781703
     58          6           0      -11.300783    3.160752    1.522707
     59          6           0      -12.332816    2.379912    2.428569
     60          6           0      -12.647665    3.188765    3.673863
     61          6           0      -13.553055    2.125204    1.564936
     62          6           0      -13.407123    0.811685    0.618014
     63          6           0      -14.559225    0.652066   -0.296836
     64          6           0      -14.131434    0.105116   -1.688647
     65          6           0      -13.953803    1.305544   -2.669578
     66          6           0      -15.003074   -1.057243   -2.215232
     67          1           0        2.692686    3.454181   -1.036507
     68          1           0        8.895874    3.733119   -0.066304
     69          1           0        9.210591   -2.636361    0.852979
     70          1           0        1.173581   -1.181106   -1.489995
     71          1           0        0.934140    1.501232   -0.160565
     72          1           0        1.347837    2.394192   -2.514749
     73          1           0       -0.180317    1.693441   -2.028533
     74          1           0        0.767356    0.729181   -3.035201
     75          1           0        1.340084   -0.539477    1.446441
     76          1           0        0.808200   -2.069594    0.720671
     77          1           0       -1.156921   -0.187342    0.028776
     78          1           0       -0.923016    0.013237    1.763332
     79          1           0        3.204747    5.348804   -0.562217
     80          1           0        4.142388    5.903025   -1.939810
     81          1           0        4.417233    6.552206   -0.250809
     82          1           0        7.698432    7.779858   -1.221439
     83          1           0        6.318334    7.553496   -0.138122
     84          1           0        6.117786    7.045751   -1.879422
     85          1           0       10.688521    1.960655    1.181336
     86          1           0       10.970672   -0.788777   -0.003294
     87          1           0       11.952968    2.405603   -0.719344
     88          1           0       10.529462    1.907080   -1.750938
     89          1           0       11.704864    0.745376   -1.326010
     90          1           0       10.310653   -1.409596    2.377169
     91          1           0       10.226330    0.263070    2.724076
     92          1           0       12.541547    0.409420    3.176982
     93          1           0       12.989219   -0.063839    1.686843
     94          1           0       12.695485   -1.317147    2.870493
     95          1           0        6.824989   -5.850064    1.264485
     96          1           0        8.252669   -4.694048    1.377267
     97          1           0        7.690698   -5.432549   -0.198916
     98          1           0        2.371392   -3.592961    0.851418
     99          1           0       -0.421219   -3.314523   -1.419004
    100          1           0       -1.002919   -4.911861   -1.245080
    101          1           0        0.015662   -4.479144   -2.621479
    102          1           0       -3.665837   -3.754676    0.144700
    103          1           0       -3.776884   -2.941932   -1.375714
    104          1           0       -4.828713   -1.149508    0.678005
    105          1           0       -6.918385   -4.777910    0.960190
    106          1           0       -5.646467   -4.751374   -0.251881
    107          1           0       -7.249362   -4.151560   -0.673031
    108          1           0       -7.129398   -1.271044    1.741345
    109          1           0       -7.929902   -2.727347    1.538640
    110          1           0       -9.103141   -1.754353   -0.353554
    111          1           0       -7.571980   -1.555138   -1.238698
    112          1           0       -7.563801    0.410949   -1.125382
    113          1           0       -7.431049    0.547998    0.567246
    114          1           0       -9.973957    0.362494    0.695168
    115          1           0      -11.098892    0.367514   -1.353943
    116          1           0       -9.520129    0.316304   -2.254694
    117          1           0      -10.243257    1.874471   -1.927987
    118          1           0       -9.585561    3.066604   -0.339502
    119          1           0       -8.144149    2.594033    0.527951
    120          1           0       -9.278572    3.523359    2.188297
    121          1           0       -9.933247    1.757475    2.336499
    122          1           0      -11.575343    3.171521    0.468487
    123          1           0      -11.332652    4.214704    1.798833
    124          1           0      -11.915757    1.422429    2.738951
    125          1           0      -13.490758    3.878873    3.619183
    126          1           0      -11.802739    3.711305    4.122536
    127          1           0      -12.932610    2.437110    4.410335
    128          1           0      -13.753473    2.935654    0.864179
    129          1           0      -14.415408    1.863057    2.177692
    130          1           0      -13.433154    0.010711    1.357143
    131          1           0      -12.573149    0.918684   -0.075351
    132          1           0      -15.065569    1.604289   -0.455275
    133          1           0      -15.292666    0.000007    0.178411
    134          1           0      -13.174248   -0.404216   -1.573090
    135          1           0      -14.253482    2.303945   -2.352692
    136          1           0      -14.437988    1.109275   -3.626027
    137          1           0      -12.896110    1.347364   -2.931918
    138          1           0      -15.270648   -0.959771   -3.268189
    139          1           0      -15.958142   -1.224076   -1.716814
    140          1           0      -14.479917   -1.992846   -2.014424
 ---------------------------------------------------------------------

 SCF Done:  E(RPBE1PBE) =  -3005.33911376     A.U. after   15 cycles

 Excitation energies and oscillator strengths:

 Excited State   1:      Singlet-A      1.9328 eV  641.47 nm  f=0.3538  <S**2>=0.000
     245 -> 248       -0.19920
     246 -> 247        0.68436
 This state for optimization and/or second-order correction.
 Total Energy, E(TD-HF/TD-DFT) =  -3005.26808399
 Copying the excited state density for this state as the 1-particle RhoCI density.

 Excited State   2:      Singlet-A      2.2330 eV  555.24 nm  f=0.1196  <S**2>=0.000
     245 -> 247        0.65286
     246 -> 248        0.25748

 Excited State   3:      Singlet-A      2.7777 eV  446.35 nm  f=0.0017  <S**2>=0.000
     240 -> 247        0.12970
     241 -> 247       -0.15100
     244 -> 247        0.63826
     244 -> 249       -0.14800

 Excited State   4:      Singlet-A      2.9972 eV  413.67 nm  f=0.0017  <S**2>=0.000
     242 -> 247        0.67848
     242 -> 249        0.10406

 Excited State   5:      Singlet-A      3.0580 eV  405.44 nm  f=0.0001  <S**2>=0.000
     241 -> 247        0.66844
     244 -> 247        0.15472

 The electronic state is 1-A.
 Alpha  occ. eigenvalues --  -46.92430 -19.26965 -19.24602 -19.20516 -19.19897
 Alpha  occ. eigenvalues --  -19.19226 -19.18547 -14.42231 -14.41684 -14.38879
 Alpha  occ. eigenvalues --  -14.38796 -10.37634 -10.35146 -10.32343 -10.31119
 Alpha  occ. eigenvalues --  -10.30483 -10.29672 -10.29279 -10.28939 -10.28630
 Alpha  occ. eigenvalues --  -10.28421 -10.27673 -10.27660 -10.27390 -10.26824
 Alpha  occ. eigenvalues --  -10.26325 -10.26223 -10.26221 -10.26032 -10.25929
 Alpha  occ. eigenvalues --  -10.25904 -10.25846 -10.25757 -10.25459 -10.25207
 Alpha  occ. eigenvalues --  -10.24819 -10.24629 -10.24493 -10.24405 -10.24404
 Alpha  occ. eigenvalues --  -10.24173 -10.24052 -10.23885 -10.23724 -10.23637
 Alpha  occ. eigenvalues --  -10.23612 -10.23535 -10.23348 -10.23347 -10.23340
 Alpha  occ. eigenvalues --  -10.23297 -10.23259 -10.23093 -10.23063 -10.22567
 Alpha  occ. eigenvalues --  -10.22401 -10.22374 -10.22368 -10.22299 -10.22171
 Alpha  occ. eigenvalues --  -10.21977 -10.21950 -10.21765 -10.21762 -10.21622
 Alpha  occ. eigenvalues --  -10.21511  -3.14487  -1.87348  -1.86874  -1.86690
 Alpha  occ. eigenvalues --   -1.13197  -1.11477  -1.05063  -1.04338  -1.03163
 Alpha  occ. eigenvalues --   -1.02323  -0.99779  -0.98989  -0.98595  -0.97856
 Alpha  occ. eigenvalues --   -0.87435  -0.84946  -0.84519  -0.83967  -0.83698
 Alpha  occ. eigenvalues --   -0.82853  -0.82633  -0.82265  -0.81805  -0.81655
 Alpha  occ. eigenvalues --   -0.80936  -0.80575  -0.78709  -0.78090  -0.77669
 Alpha  occ. eigenvalues --   -0.76569  -0.75986  -0.75684  -0.75535  -0.74607
 Alpha  occ. eigenvalues --   -0.74192  -0.73242  -0.72836  -0.71778  -0.70506
 Alpha  occ. eigenvalues --   -0.70149  -0.70031  -0.69827  -0.68961  -0.68606
 Alpha  occ. eigenvalues --   -0.67854  -0.67669  -0.66958  -0.65643  -0.64098
 Alpha  occ. eigenvalues --   -0.63522  -0.62994  -0.61696  -0.60845  -0.60628
 Alpha  occ. eigenvalues --   -0.60058  -0.59874  -0.59161  -0.58899  -0.58599
 Alpha  occ. eigenvalues --   -0.58098  -0.57596  -0.57069  -0.56854  -0.55168
 Alpha  occ. eigenvalues --   -0.54690  -0.54357  -0.53910  -0.53727  -0.52873
 Alpha  occ. eigenvalues --   -0.52454  -0.52168  -0.51083  -0.50840  -0.50460
 Alpha  occ. eigenvalues --   -0.50074  -0.49812  -0.49673  -0.49538  -0.48838
 Alpha  occ. eigenvalues --   -0.48282  -0.48129  -0.47900  -0.47567  -0.47303
 Alpha  occ. eigenvalues --   -0.47083  -0.46948  -0.46725  -0.46383  -0.46121
 Alpha  occ. eigenvalues --   -0.46021  -0.45981  -0.45774  -0.45619  -0.45220
 Alpha  occ. eigenvalues --   -0.45134  -0.44880  -0.44665  -0.44470  -0.44375
 Alpha  occ. eigenvalues --   -0.44354  -0.44155  -0.43962  -0.43429  -0.43297
 Alpha  occ. eigenvalues --   -0.43168  -0.43025  -0.42972  -0.42921  -0.42694
 Alpha  occ. eigenvalues --   -0.42432  -0.42202  -0.41949  -0.41938  -0.41524
 Alpha  occ. eigenvalues --   -0.41308  -0.41259  -0.41136  -0.40941  -0.40938
 Alpha  occ. eigenvalues --   -0.40851  -0.40375  -0.40283  -0.39985  -0.39875
 Alpha  occ. eigenvalues --   -0.39713  -0.39531  -0.39358  -0.39018  -0.38819
 Alpha  occ. eigenvalues --   -0.38673  -0.38548  -0.38385  -0.38142  -0.38031
 Alpha  occ. eigenvalues --   -0.37873  -0.37661  -0.37570  -0.37542  -0.37130
 Alpha  occ. eigenvalues --   -0.36879  -0.36834  -0.36455  -0.36195  -0.36075
 Alpha  occ. eigenvalues --   -0.35873  -0.35840  -0.35675  -0.35367  -0.35313
 Alpha  occ. eigenvalues --   -0.34930  -0.34869  -0.34853  -0.33822  -0.33540
 Alpha  occ. eigenvalues --   -0.33344  -0.33062  -0.32757  -0.32460  -0.32389
 Alpha  occ. eigenvalues --   -0.32065  -0.31983  -0.31844  -0.31599  -0.30865
 Alpha  occ. eigenvalues --   -0.30796  -0.30513  -0.30099  -0.29827  -0.29767
 Alpha  occ. eigenvalues --   -0.29054  -0.28959  -0.28886  -0.27155  -0.25770
 Alpha  occ. eigenvalues --   -0.25509  -0.25294  -0.25107  -0.25019  -0.21038
 Alpha  occ. eigenvalues --   -0.19361
 Alpha virt. eigenvalues --   -0.11318  -0.05715  -0.04123  -0.01774  -0.01074
 Alpha virt. eigenvalues --    0.00219   0.01161   0.01412   0.01619   0.02706
 Alpha virt. eigenvalues --    0.03702   0.04499   0.05113   0.05546   0.05636

 Mulliken charges:
               1
     1  Mg   0.964411
     2  C   -0.042226
     3  C   -0.072184
     4  C   -0.049873
     5  C   -0.090472
     6  N   -0.325111
     7  C   -0.013869
     8  C   -0.061385
     9  C   -0.106451
    10  C    0.058842
    11  C    0.032111
    12  C   -0.019056
    13  C    0.016700
    14  C    0.232484
    15  O   -0.269601
    16  O   -0.367694
    17  N   -0.538829
    18  C    0.157400
    19  C   -0.177401
    20  C   -0.080201
    21  C    0.144273
    22  C    0.048918
    23  C    0.055642
    24  O   -0.241423
    25  C   -0.032868
    26  N   -0.394154
    27  C    0.067471
    28  C   -0.074519
    29  C   -0.099492
    30  C    0.089663
    31  C    0.018965
    32  C   -0.045375
    33  C   -0.056200
    34  N   -0.461138
    35  C    0.146824
    36  C   -0.187142
    37  C   -0.022544
    38  C    0.197390
    39  C    0.078958
    40  C    0.127299
    41  O   -0.235299
    42  C   -0.206562
    43  C    0.257552
    44  O   -0.193160
    45  O   -0.344020
    46  C    0.120567
    47  C    0.234128
    48  C   -0.139559
    49  C   -0.238855
    50  C    0.025125
    51  C    0.009302
    52  C    0.009901
    53  C   -0.045963
    54  C   -0.206049
    55  C   -0.014164
    56  C   -0.034175
    57  C   -0.045164
    58  C   -0.017030
    59  C   -0.182334
    60  C    0.009118
    61  C   -0.050414
    62  C   -0.084158
    63  C    0.034774
    64  C   -0.275922
    65  C   -0.014228
    66  C   -0.015180
    67  H   -0.000819
    68  H    0.018723
    69  H    0.005061
    70  H    0.054230
    71  H    0.044916
    72  H    0.044413
    73  H    0.031107
    74  H    0.050374
    75  H    0.051830
    76  H    0.069864
    77  H    0.054009
    78  H    0.071842
    79  H    0.043390
    80  H    0.062368
    81  H    0.053656
    82  H    0.062824
    83  H    0.055690
    84  H    0.068407
    85  H    0.058047
    86  H    0.044142
    87  H    0.055722
    88  H    0.047863
    89  H    0.039276
    90  H    0.032177
    91  H    0.035946
    92  H    0.037453
    93  H    0.030590
    94  H    0.050734
    95  H    0.069377
    96  H    0.045661
    97  H    0.069277
    98  H    0.101982
    99  H    0.024605
   100  H    0.059325
   101  H    0.063312
   102  H    0.068338
   103  H    0.056821
   104  H    0.026778
   105  H    0.059666
   106  H    0.023185
   107  H    0.047551
   108  H    0.039619
   109  H    0.020375
   110  H    0.035172
   111  H    0.044782
   112  H    0.015999
   113  H    0.026330
   114  H    0.034709
   115  H    0.060308
   116  H    0.031708
   117  H    0.044894
   118  H    0.022611
   119  H    0.017691
   120  H    0.034501
   121  H    0.037749
   122  H    0.027780
   123  H    0.018539
   124  H    0.025966
   125  H    0.036489
   126  H    0.031710
   127  H    0.022833
   128  H    0.030826
   129  H    0.023043
   130  H    0.036222
   131  H    0.043256
   132  H    0.020941
   133  H    0.014916
   134  H    0.055041
   135  H    0.041115
   136  H    0.027020
   137  H    0.032269
   138  H    0.031805
   139  H    0.027135
   140  H    0.030560
 Sum of Mulliken charges =  -0.00000

 Dipole moment (field-independent basis, Debye):
    X=             -2.8678    Y=              4.4722    Z=             -0.6904  Tot=              5.3573
 Quadrupole moment (field-independent basis, Debye-Ang):
   XX=           -367.9863   YY=           -430.7529   ZZ=           -410.2425
   XY=              1.8800   XZ=             13.9828   YZ=             -0.9275

 Normal termination of Gaussian 16 at Wed May  4 16:38:32 2022.
