 Gaussian 16, Revision A.03,
 Gaussian 16:  ES64L-G16RevA.03 25-Dec-2016

 --------------------------------
 #p wB97XD/Def2SVP td=(nstates=5)
 --------------------------------

 ---------------------------------------------------
 step_201_chromophore_4 TDDFT with wB97XD functional
 ---------------------------------------------------
 Symbolic Z-matrix:
 Charge =  0 Multiplicity = 1

                         Standard orientation:
 ---------------------------------------------------------------------
 Center     Atomic      Atomic             Coordinates (Angstroms)
 Number     Number       Type             X           Y           Z
 ---------------------------------------------------------------------
      1         12           0        5.962484    0.484115   -0.009716
      2          6           0        3.621435   -2.089440   -0.088063
      3          6           0        3.426117    2.677392   -0.809473
      4          6           0        8.252390    2.851941   -0.011450
      5          6           0        8.419310   -1.928705    0.596079
      6          7           0        3.701478    0.241549   -0.545239
      7          6           0        2.937228   -0.872322   -0.434027
      8          6           0        1.421302   -0.566272   -0.624861
      9          6           0        1.456869    0.974811   -0.959469
     10          6           0        2.943315    1.316649   -0.772253
     11          6           0        0.864458    1.459003   -2.231546
     12          6           0        0.674635   -0.987156    0.709069
     13          6           0       -0.815493   -0.686441    0.934981
     14          6           0       -1.829362   -1.797631    1.071076
     15          8           0       -2.014475   -2.551330    2.048092
     16          8           0       -2.595243   -1.823356   -0.071273
     17          7           0        5.882128    2.505763   -0.240686
     18          6           0        4.747318    3.224970   -0.641307
     19          6           0        5.139520    4.563225   -0.733308
     20          6           0        6.522321    4.605508   -0.440985
     21          6           0        6.964883    3.292830   -0.179211
     22          6           0        4.193610    5.685218   -0.873389
     23          6           0        7.357343    5.902641   -0.393842
     24          8           0        8.549577    5.941154   -0.131456
     25          6           0        6.802804    7.186106   -1.042667
     26          7           0        8.062817    0.449536    0.323264
     27          6           0        8.829401    1.598035    0.251096
     28          6           0       10.351832    1.347024    0.345653
     29          6           0       10.317700   -0.196330    0.638240
     30          6           0        8.851490   -0.615766    0.497531
     31          6           0       11.211812    1.638840   -0.944661
     32          6           0       10.749605   -0.453425    2.090101
     33          6           0       12.299962   -0.383885    2.469560
     34          7           0        6.079449   -1.621797    0.045722
     35          6           0        7.121318   -2.454079    0.387240
     36          6           0        6.647603   -3.782724    0.495285
     37          6           0        5.271389   -3.710144    0.170491
     38          6           0        4.953596   -2.332178   -0.012446
     39          6           0        7.413965   -5.065481    0.788419
     40          6           0        4.135382   -4.498903   -0.006011
     41          8           0        3.973689   -5.716680    0.149105
     42          6           0        2.939415   -3.479266   -0.071925
     43          6           0        2.129577   -3.847977   -1.241641
     44          8           0        2.340100   -3.735285   -2.386250
     45          8           0        1.077366   -4.497042   -0.728897
     46          6           0       -0.116121   -4.353673   -1.546454
     47          6           0       -3.661963   -2.762713   -0.306804
     48          6           0       -4.977140   -2.152159    0.278076
     49          6           0       -6.157334   -2.763616    0.459437
     50          6           0       -6.509908   -4.204432    0.126767
     51          6           0       -7.372662   -1.991619    0.959327
     52          6           0       -8.079547   -1.385324   -0.289778
     53          6           0       -8.069087    0.118500   -0.204869
     54          6           0       -9.429600    0.844119   -0.117082
     55          6           0      -10.143899    0.859219   -1.544518
     56          6           0       -9.195030    2.346612    0.380850
     57          6           0       -9.853206    2.691658    1.781703
     58          6           0      -11.300783    3.160752    1.522707
     59          6           0      -12.332816    2.379912    2.428569
     60          6           0      -12.647665    3.188765    3.673863
     61          6           0      -13.553055    2.125204    1.564936
     62          6           0      -13.407123    0.811685    0.618014
     63          6           0      -14.559225    0.652066   -0.296836
     64          6           0      -14.131434    0.105116   -1.688647
     65          6           0      -13.953803    1.305544   -2.669578
     66          6           0      -15.003074   -1.057243   -2.215232
     67          1           0        2.692686    3.454181   -1.036507
     68          1           0        8.895874    3.733119   -0.066304
     69          1           0        9.210591   -2.636361    0.852979
     70          1           0        1.173581   -1.181106   -1.489995
     71          1           0        0.934140    1.501232   -0.160565
     72          1           0        1.347837    2.394192   -2.514749
     73          1           0       -0.180317    1.693441   -2.028533
     74          1           0        0.767356    0.729181   -3.035201
     75          1           0        1.340084   -0.539477    1.446441
     76          1           0        0.808200   -2.069594    0.720671
     77          1           0       -1.156921   -0.187342    0.028776
     78          1           0       -0.923016    0.013237    1.763332
     79          1           0        3.204747    5.348804   -0.562217
     80          1           0        4.142388    5.903025   -1.939810
     81          1           0        4.417233    6.552206   -0.250809
     82          1           0        7.698432    7.779858   -1.221439
     83          1           0        6.318334    7.553496   -0.138122
     84          1           0        6.117786    7.045751   -1.879422
     85          1           0       10.688521    1.960655    1.181336
     86          1           0       10.970672   -0.788777   -0.003294
     87          1           0       11.952968    2.405603   -0.719344
     88          1           0       10.529462    1.907080   -1.750938
     89          1           0       11.704864    0.745376   -1.326010
     90          1           0       10.310653   -1.409596    2.377169
     91          1           0       10.226330    0.263070    2.724076
     92          1           0       12.541547    0.409420    3.176982
     93          1           0       12.989219   -0.063839    1.686843
     94          1           0       12.695485   -1.317147    2.870493
     95          1           0        6.824989   -5.850064    1.264485
     96          1           0        8.252669   -4.694048    1.377267
     97          1           0        7.690698   -5.432549   -0.198916
     98          1           0        2.371392   -3.592961    0.851418
     99          1           0       -0.421219   -3.314523   -1.419004
    100          1           0       -1.002919   -4.911861   -1.245080
    101          1           0        0.015662   -4.479144   -2.621479
    102          1           0       -3.665837   -3.754676    0.144700
    103          1           0       -3.776884   -2.941932   -1.375714
    104          1           0       -4.828713   -1.149508    0.678005
    105          1           0       -6.918385   -4.777910    0.960190
    106          1           0       -5.646467   -4.751374   -0.251881
    107          1           0       -7.249362   -4.151560   -0.673031
    108          1           0       -7.129398   -1.271044    1.741345
    109          1           0       -7.929902   -2.727347    1.538640
    110          1           0       -9.103141   -1.754353   -0.353554
    111          1           0       -7.571980   -1.555138   -1.238698
    112          1           0       -7.563801    0.410949   -1.125382
    113          1           0       -7.431049    0.547998    0.567246
    114          1           0       -9.973957    0.362494    0.695168
    115          1           0      -11.098892    0.367514   -1.353943
    116          1           0       -9.520129    0.316304   -2.254694
    117          1           0      -10.243257    1.874471   -1.927987
    118          1           0       -9.585561    3.066604   -0.339502
    119          1           0       -8.144149    2.594033    0.527951
    120          1           0       -9.278572    3.523359    2.188297
    121          1           0       -9.933247    1.757475    2.336499
    122          1           0      -11.575343    3.171521    0.468487
    123          1           0      -11.332652    4.214704    1.798833
    124          1           0      -11.915757    1.422429    2.738951
    125          1           0      -13.490758    3.878873    3.619183
    126          1           0      -11.802739    3.711305    4.122536
    127          1           0      -12.932610    2.437110    4.410335
    128          1           0      -13.753473    2.935654    0.864179
    129          1           0      -14.415408    1.863057    2.177692
    130          1           0      -13.433154    0.010711    1.357143
    131          1           0      -12.573149    0.918684   -0.075351
    132          1           0      -15.065569    1.604289   -0.455275
    133          1           0      -15.292666    0.000007    0.178411
    134          1           0      -13.174248   -0.404216   -1.573090
    135          1           0      -14.253482    2.303945   -2.352692
    136          1           0      -14.437988    1.109275   -3.626027
    137          1           0      -12.896110    1.347364   -2.931918
    138          1           0      -15.270648   -0.959771   -3.268189
    139          1           0      -15.958142   -1.224076   -1.716814
    140          1           0      -14.479917   -1.992846   -2.014424
 ---------------------------------------------------------------------

 SCF Done:  E(RwB97XD) =  -3007.85164042     A.U. after   19 cycles

 Excitation energies and oscillator strengths:

 Excited State   1:      Singlet-A      1.7183 eV  721.55 nm  f=0.3660  <S**2>=0.000
     245 -> 248       -0.20995
     246 -> 247        0.67686
     245 <- 248       -0.12042
 This state for optimization and/or second-order correction.
 Total Energy, E(TD-HF/TD-DFT) =  -3007.78849428
 Copying the excited state density for this state as the 1-particle RhoCI density.

 Excited State   2:      Singlet-A      2.1680 eV  571.89 nm  f=0.1175  <S**2>=0.000
     245 -> 247        0.64001
     246 -> 248        0.28603

 Excited State   3:      Singlet-A      3.2592 eV  380.41 nm  f=0.0042  <S**2>=0.000
     240 -> 247       -0.25562
     240 -> 249       -0.16825
     241 -> 247        0.27686
     241 -> 249        0.17924
     241 -> 250        0.10494
     242 -> 247        0.30527
     242 -> 249        0.15997
     244 -> 247        0.31461
     244 -> 249        0.11872

 Excited State   4:      Singlet-A      3.3973 eV  364.95 nm  f=0.0012  <S**2>=0.000
     241 -> 247       -0.22678
     242 -> 247       -0.24059
     244 -> 247        0.59224

 Excited State   5:      Singlet-A      3.4901 eV  355.24 nm  f=0.1611  <S**2>=0.000
     240 -> 247       -0.25537
     241 -> 247        0.19143
     242 -> 247       -0.41792
     245 -> 247       -0.12202
     246 -> 248        0.43016

 The electronic state is 1-A.
 Alpha  occ. eigenvalues --  -46.95377 -19.31534 -19.29262 -19.25251 -19.24740
 Alpha  occ. eigenvalues --  -19.23943 -19.23436 -14.47395 -14.46714 -14.43858
 Alpha  occ. eigenvalues --  -14.43682 -10.44479 -10.42087 -10.39080 -10.38072
 Alpha  occ. eigenvalues --  -10.36989 -10.36000 -10.35536 -10.35239 -10.35186
 Alpha  occ. eigenvalues --  -10.34736 -10.34082 -10.33908 -10.33696 -10.33142
 Alpha  occ. eigenvalues --  -10.32655 -10.32634 -10.32602 -10.32396 -10.32310
 Alpha  occ. eigenvalues --  -10.32306 -10.32299 -10.32214 -10.31653 -10.31589
 Alpha  occ. eigenvalues --  -10.31305 -10.30971 -10.30872 -10.30856 -10.30695
 Alpha  occ. eigenvalues --  -10.30439 -10.30329 -10.30291 -10.30192 -10.30149
 Alpha  occ. eigenvalues --  -10.29883 -10.29863 -10.29778 -10.29724 -10.29717
 Alpha  occ. eigenvalues --  -10.29688 -10.29639 -10.29462 -10.29358 -10.29013
 Alpha  occ. eigenvalues --  -10.28751 -10.28738 -10.28701 -10.28698 -10.28556
 Alpha  occ. eigenvalues --  -10.28376 -10.28344 -10.28181 -10.28120 -10.28074
 Alpha  occ. eigenvalues --  -10.27885  -3.21295  -1.94903  -1.94431  -1.94243
 Alpha  occ. eigenvalues --   -1.20672  -1.18891  -1.12460  -1.11785  -1.10734
 Alpha  occ. eigenvalues --   -1.09721  -1.07193  -1.06378  -1.05942  -1.05191
 Alpha  occ. eigenvalues --   -0.95120  -0.92631  -0.92189  -0.91643  -0.91285
 Alpha  occ. eigenvalues --   -0.90406  -0.90292  -0.89900  -0.89405  -0.89322
 Alpha  occ. eigenvalues --   -0.88598  -0.88209  -0.86357  -0.85759  -0.85319
 Alpha  occ. eigenvalues --   -0.84216  -0.83632  -0.83324  -0.83214  -0.82279
 Alpha  occ. eigenvalues --   -0.81862  -0.80920  -0.80452  -0.79392  -0.78162
 Alpha  occ. eigenvalues --   -0.77801  -0.77663  -0.77520  -0.76649  -0.76251
 Alpha  occ. eigenvalues --   -0.75510  -0.75225  -0.74499  -0.73266  -0.71639
 Alpha  occ. eigenvalues --   -0.71060  -0.70633  -0.69231  -0.68374  -0.68222
 Alpha  occ. eigenvalues --   -0.67566  -0.67344  -0.66606  -0.66497  -0.66159
 Alpha  occ. eigenvalues --   -0.65795  -0.65252  -0.64546  -0.64485  -0.62550
 Alpha  occ. eigenvalues --   -0.62249  -0.61825  -0.61370  -0.61094  -0.60423
 Alpha  occ. eigenvalues --   -0.59907  -0.59681  -0.58498  -0.58326  -0.57898
 Alpha  occ. eigenvalues --   -0.57473  -0.57244  -0.57132  -0.56987  -0.56256
 Alpha  occ. eigenvalues --   -0.55673  -0.55562  -0.55310  -0.54983  -0.54718
 Alpha  occ. eigenvalues --   -0.54426  -0.54375  -0.54016  -0.53821  -0.53519
 Alpha  occ. eigenvalues --   -0.53434  -0.53349  -0.53123  -0.52936  -0.52576
 Alpha  occ. eigenvalues --   -0.52445  -0.52272  -0.52015  -0.51863  -0.51723
 Alpha  occ. eigenvalues --   -0.51687  -0.51470  -0.51263  -0.50749  -0.50637
 Alpha  occ. eigenvalues --   -0.50485  -0.50299  -0.50248  -0.50178  -0.49954
 Alpha  occ. eigenvalues --   -0.49725  -0.49508  -0.49245  -0.49186  -0.48785
 Alpha  occ. eigenvalues --   -0.48560  -0.48437  -0.48362  -0.48158  -0.48124
 Alpha  occ. eigenvalues --   -0.48082  -0.47638  -0.47418  -0.47192  -0.47102
 Alpha  occ. eigenvalues --   -0.46966  -0.46645  -0.46544  -0.46141  -0.46003
 Alpha  occ. eigenvalues --   -0.45791  -0.45678  -0.45551  -0.45291  -0.45121
 Alpha  occ. eigenvalues --   -0.44974  -0.44856  -0.44717  -0.44618  -0.44227
 Alpha  occ. eigenvalues --   -0.44152  -0.43961  -0.43583  -0.43303  -0.43132
 Alpha  occ. eigenvalues --   -0.42958  -0.42870  -0.42793  -0.42413  -0.42345
 Alpha  occ. eigenvalues --   -0.41952  -0.41928  -0.41879  -0.40911  -0.40624
 Alpha  occ. eigenvalues --   -0.40258  -0.40132  -0.39808  -0.39530  -0.39318
 Alpha  occ. eigenvalues --   -0.39121  -0.38891  -0.38889  -0.38621  -0.38011
 Alpha  occ. eigenvalues --   -0.37773  -0.37434  -0.36930  -0.36894  -0.36618
 Alpha  occ. eigenvalues --   -0.36230  -0.35786  -0.35770  -0.33712  -0.32567
 Alpha  occ. eigenvalues --   -0.32436  -0.32049  -0.31888  -0.31869  -0.25955
 Alpha  occ. eigenvalues --   -0.23562
 Alpha virt. eigenvalues --   -0.07186  -0.00364   0.02154   0.04750   0.05709
 Alpha virt. eigenvalues --    0.06149   0.07741   0.07938   0.08308   0.09073
 Alpha virt. eigenvalues --    0.10396   0.11301   0.11840   0.12199   0.12293

 Mulliken charges:
               1
     1  Mg   0.955323
     2  C   -0.052451
     3  C   -0.086844
     4  C   -0.064309
     5  C   -0.113101
     6  N   -0.289120
     7  C   -0.043918
     8  C   -0.034420
     9  C   -0.082943
    10  C    0.042974
    11  C    0.042579
    12  C    0.002335
    13  C    0.035554
    14  C    0.216638
    15  O   -0.264658
    16  O   -0.364168
    17  N   -0.504462
    18  C    0.144843
    19  C   -0.162574
    20  C   -0.073065
    21  C    0.134340
    22  C    0.061812
    23  C    0.046258
    24  O   -0.236680
    25  C   -0.015920
    26  N   -0.362025
    27  C    0.051324
    28  C   -0.053638
    29  C   -0.072005
    30  C    0.078159
    31  C    0.029660
    32  C   -0.028866
    33  C   -0.042453
    34  N   -0.422232
    35  C    0.141283
    36  C   -0.183687
    37  C   -0.016663
    38  C    0.182683
    39  C    0.091012
    40  C    0.107887
    41  O   -0.224911
    42  C   -0.164076
    43  C    0.229436
    44  O   -0.185035
    45  O   -0.342205
    46  C    0.145151
    47  C    0.248407
    48  C   -0.155258
    49  C   -0.216039
    50  C    0.037901
    51  C    0.025490
    52  C    0.022063
    53  C   -0.026802
    54  C   -0.177091
    55  C    0.009100
    56  C   -0.017642
    57  C   -0.024362
    58  C   -0.005107
    59  C   -0.150186
    60  C    0.017815
    61  C   -0.031152
    62  C   -0.044198
    63  C    0.041893
    64  C   -0.237634
    65  C    0.000399
    66  C   -0.004376
    67  H   -0.009482
    68  H    0.012538
    69  H   -0.001045
    70  H    0.040875
    71  H    0.033994
    72  H    0.037639
    73  H    0.025070
    74  H    0.045953
    75  H    0.044520
    76  H    0.048688
    77  H    0.045125
    78  H    0.068344
    79  H    0.038263
    80  H    0.057204
    81  H    0.047326
    82  H    0.061131
    83  H    0.048241
    84  H    0.062867
    85  H    0.048989
    86  H    0.034163
    87  H    0.051241
    88  H    0.041453
    89  H    0.032924
    90  H    0.021935
    91  H    0.026835
    92  H    0.031650
    93  H    0.023766
    94  H    0.045737
    95  H    0.066899
    96  H    0.039371
    97  H    0.064618
    98  H    0.096594
    99  H    0.010609
   100  H    0.056909
   101  H    0.060056
   102  H    0.061705
   103  H    0.052903
   104  H    0.022827
   105  H    0.055138
   106  H    0.017131
   107  H    0.040969
   108  H    0.032493
   109  H    0.013096
   110  H    0.027934
   111  H    0.035431
   112  H    0.006208
   113  H    0.014015
   114  H    0.018346
   115  H    0.045107
   116  H    0.025756
   117  H    0.038897
   118  H    0.011458
   119  H    0.009781
   120  H    0.028444
   121  H    0.025379
   122  H    0.014664
   123  H    0.010436
   124  H    0.012778
   125  H    0.031502
   126  H    0.025893
   127  H    0.016738
   128  H    0.019382
   129  H    0.014249
   130  H    0.028003
   131  H    0.008173
   132  H    0.010139
   133  H    0.007317
   134  H    0.039590
   135  H    0.035465
   136  H    0.020922
   137  H    0.022790
   138  H    0.025811
   139  H    0.020927
   140  H    0.025156
 Sum of Mulliken charges =  -0.00000

 Dipole moment (field-independent basis, Debye):
    X=             -3.0237    Y=              4.3772    Z=             -0.7205  Tot=              5.3686
 Quadrupole moment (field-independent basis, Debye-Ang):
   XX=           -369.7743   YY=           -429.2164   ZZ=           -409.9379
   XY=              1.5184   XZ=             13.8223   YZ=             -0.8676

 Normal termination of Gaussian 16 at Wed May  4 17:04:54 2022.
