 Gaussian 16, Revision A.03,
 Gaussian 16:  ES64L-G16RevA.03 25-Dec-2016

 --------------------
 #p ZINDO=(nstates=5)
 --------------------

 ----------------------------
 step_201_chromophore_4 ZINDO
 ----------------------------
 Symbolic Z-matrix:
 Charge =  0 Multiplicity = 1

                         Standard orientation:
 ---------------------------------------------------------------------
 Center     Atomic      Atomic             Coordinates (Angstroms)
 Number     Number       Type             X           Y           Z
 ---------------------------------------------------------------------
      1         12           0        5.962484    0.484115   -0.009716
      2          6           0        3.621435   -2.089440   -0.088063
      3          6           0        3.426117    2.677392   -0.809473
      4          6           0        8.252390    2.851941   -0.011450
      5          6           0        8.419310   -1.928705    0.596079
      6          7           0        3.701478    0.241549   -0.545239
      7          6           0        2.937228   -0.872322   -0.434027
      8          6           0        1.421302   -0.566272   -0.624861
      9          6           0        1.456869    0.974811   -0.959469
     10          6           0        2.943315    1.316649   -0.772253
     11          6           0        0.864458    1.459003   -2.231546
     12          6           0        0.674635   -0.987156    0.709069
     13          6           0       -0.815493   -0.686441    0.934981
     14          6           0       -1.829362   -1.797631    1.071076
     15          8           0       -2.014475   -2.551330    2.048092
     16          8           0       -2.595243   -1.823356   -0.071273
     17          7           0        5.882128    2.505763   -0.240686
     18          6           0        4.747318    3.224970   -0.641307
     19          6           0        5.139520    4.563225   -0.733308
     20          6           0        6.522321    4.605508   -0.440985
     21          6           0        6.964883    3.292830   -0.179211
     22          6           0        4.193610    5.685218   -0.873389
     23          6           0        7.357343    5.902641   -0.393842
     24          8           0        8.549577    5.941154   -0.131456
     25          6           0        6.802804    7.186106   -1.042667
     26          7           0        8.062817    0.449536    0.323264
     27          6           0        8.829401    1.598035    0.251096
     28          6           0       10.351832    1.347024    0.345653
     29          6           0       10.317700   -0.196330    0.638240
     30          6           0        8.851490   -0.615766    0.497531
     31          6           0       11.211812    1.638840   -0.944661
     32          6           0       10.749605   -0.453425    2.090101
     33          6           0       12.299962   -0.383885    2.469560
     34          7           0        6.079449   -1.621797    0.045722
     35          6           0        7.121318   -2.454079    0.387240
     36          6           0        6.647603   -3.782724    0.495285
     37          6           0        5.271389   -3.710144    0.170491
     38          6           0        4.953596   -2.332178   -0.012446
     39          6           0        7.413965   -5.065481    0.788419
     40          6           0        4.135382   -4.498903   -0.006011
     41          8           0        3.973689   -5.716680    0.149105
     42          6           0        2.939415   -3.479266   -0.071925
     43          6           0        2.129577   -3.847977   -1.241641
     44          8           0        2.340100   -3.735285   -2.386250
     45          8           0        1.077366   -4.497042   -0.728897
     46          6           0       -0.116121   -4.353673   -1.546454
     47          6           0       -3.661963   -2.762713   -0.306804
     48          6           0       -4.977140   -2.152159    0.278076
     49          6           0       -6.157334   -2.763616    0.459437
     50          6           0       -6.509908   -4.204432    0.126767
     51          6           0       -7.372662   -1.991619    0.959327
     52          6           0       -8.079547   -1.385324   -0.289778
     53          6           0       -8.069087    0.118500   -0.204869
     54          6           0       -9.429600    0.844119   -0.117082
     55          6           0      -10.143899    0.859219   -1.544518
     56          6           0       -9.195030    2.346612    0.380850
     57          6           0       -9.853206    2.691658    1.781703
     58          6           0      -11.300783    3.160752    1.522707
     59          6           0      -12.332816    2.379912    2.428569
     60          6           0      -12.647665    3.188765    3.673863
     61          6           0      -13.553055    2.125204    1.564936
     62          6           0      -13.407123    0.811685    0.618014
     63          6           0      -14.559225    0.652066   -0.296836
     64          6           0      -14.131434    0.105116   -1.688647
     65          6           0      -13.953803    1.305544   -2.669578
     66          6           0      -15.003074   -1.057243   -2.215232
     67          1           0        2.692686    3.454181   -1.036507
     68          1           0        8.895874    3.733119   -0.066304
     69          1           0        9.210591   -2.636361    0.852979
     70          1           0        1.173581   -1.181106   -1.489995
     71          1           0        0.934140    1.501232   -0.160565
     72          1           0        1.347837    2.394192   -2.514749
     73          1           0       -0.180317    1.693441   -2.028533
     74          1           0        0.767356    0.729181   -3.035201
     75          1           0        1.340084   -0.539477    1.446441
     76          1           0        0.808200   -2.069594    0.720671
     77          1           0       -1.156921   -0.187342    0.028776
     78          1           0       -0.923016    0.013237    1.763332
     79          1           0        3.204747    5.348804   -0.562217
     80          1           0        4.142388    5.903025   -1.939810
     81          1           0        4.417233    6.552206   -0.250809
     82          1           0        7.698432    7.779858   -1.221439
     83          1           0        6.318334    7.553496   -0.138122
     84          1           0        6.117786    7.045751   -1.879422
     85          1           0       10.688521    1.960655    1.181336
     86          1           0       10.970672   -0.788777   -0.003294
     87          1           0       11.952968    2.405603   -0.719344
     88          1           0       10.529462    1.907080   -1.750938
     89          1           0       11.704864    0.745376   -1.326010
     90          1           0       10.310653   -1.409596    2.377169
     91          1           0       10.226330    0.263070    2.724076
     92          1           0       12.541547    0.409420    3.176982
     93          1           0       12.989219   -0.063839    1.686843
     94          1           0       12.695485   -1.317147    2.870493
     95          1           0        6.824989   -5.850064    1.264485
     96          1           0        8.252669   -4.694048    1.377267
     97          1           0        7.690698   -5.432549   -0.198916
     98          1           0        2.371392   -3.592961    0.851418
     99          1           0       -0.421219   -3.314523   -1.419004
    100          1           0       -1.002919   -4.911861   -1.245080
    101          1           0        0.015662   -4.479144   -2.621479
    102          1           0       -3.665837   -3.754676    0.144700
    103          1           0       -3.776884   -2.941932   -1.375714
    104          1           0       -4.828713   -1.149508    0.678005
    105          1           0       -6.918385   -4.777910    0.960190
    106          1           0       -5.646467   -4.751374   -0.251881
    107          1           0       -7.249362   -4.151560   -0.673031
    108          1           0       -7.129398   -1.271044    1.741345
    109          1           0       -7.929902   -2.727347    1.538640
    110          1           0       -9.103141   -1.754353   -0.353554
    111          1           0       -7.571980   -1.555138   -1.238698
    112          1           0       -7.563801    0.410949   -1.125382
    113          1           0       -7.431049    0.547998    0.567246
    114          1           0       -9.973957    0.362494    0.695168
    115          1           0      -11.098892    0.367514   -1.353943
    116          1           0       -9.520129    0.316304   -2.254694
    117          1           0      -10.243257    1.874471   -1.927987
    118          1           0       -9.585561    3.066604   -0.339502
    119          1           0       -8.144149    2.594033    0.527951
    120          1           0       -9.278572    3.523359    2.188297
    121          1           0       -9.933247    1.757475    2.336499
    122          1           0      -11.575343    3.171521    0.468487
    123          1           0      -11.332652    4.214704    1.798833
    124          1           0      -11.915757    1.422429    2.738951
    125          1           0      -13.490758    3.878873    3.619183
    126          1           0      -11.802739    3.711305    4.122536
    127          1           0      -12.932610    2.437110    4.410335
    128          1           0      -13.753473    2.935654    0.864179
    129          1           0      -14.415408    1.863057    2.177692
    130          1           0      -13.433154    0.010711    1.357143
    131          1           0      -12.573149    0.918684   -0.075351
    132          1           0      -15.065569    1.604289   -0.455275
    133          1           0      -15.292666    0.000007    0.178411
    134          1           0      -13.174248   -0.404216   -1.573090
    135          1           0      -14.253482    2.303945   -2.352692
    136          1           0      -14.437988    1.109275   -3.626027
    137          1           0      -12.896110    1.347364   -2.931918
    138          1           0      -15.270648   -0.959771   -3.268189
    139          1           0      -15.958142   -1.224076   -1.716814
    140          1           0      -14.479917   -1.992846   -2.014424
 ---------------------------------------------------------------------

 SCF Done:  E(RZINDO/S) =  -474.548169479     A.U. after   20 cycles

 Excitation energies and oscillator strengths:

 Excited State   1:      Singlet-A      1.2697 eV  976.48 nm  f=0.5725  <S**2>=0.000
     175 ->178        -0.20094
     176 ->177         0.65921
 This state for optimization and/or second-order correction.
 Total Energy, E(CIS/TDA) =  -474.501508802
 Copying the excited state density for this state as the 1-particle RhoCI density.

 Excited State   2:      Singlet-A      1.9073 eV  650.05 nm  f=0.0480  <S**2>=0.000
     175 ->177         0.54790
     176 ->178         0.41680

 Excited State   3:      Singlet-A      2.7366 eV  453.06 nm  f=0.0101  <S**2>=0.000
     169 ->177         0.36815
     169 ->178        -0.19362
     169 ->179        -0.33930
     169 ->181         0.22994
     169 ->185        -0.16366
     171 ->177         0.17176
     171 ->179        -0.10649
     173 ->177         0.10990

 Excited State   4:      Singlet-A      2.9001 eV  427.51 nm  f=0.0039  <S**2>=0.000
     170 ->177         0.24327
     170 ->179         0.31778
     170 ->181         0.40332
     170 ->185         0.24411
     170 ->187        -0.10466

 Excited State   5:      Singlet-A      2.9532 eV  419.83 nm  f=0.7306  <S**2>=0.000
     171 ->177         0.13736
     175 ->177        -0.31573
     176 ->178         0.49007
     176 ->179         0.32208

 The electronic state is 1-A.
 Alpha  occ. eigenvalues --   -1.86284  -1.83001  -1.80898  -1.77035  -1.73311
 Alpha  occ. eigenvalues --   -1.71373  -1.66321  -1.60828  -1.59282  -1.59020
 Alpha  occ. eigenvalues --   -1.55934  -1.50763  -1.49123  -1.47750  -1.46340
 Alpha  occ. eigenvalues --   -1.45955  -1.44260  -1.41696  -1.39759  -1.38544
 Alpha  occ. eigenvalues --   -1.36926  -1.34154  -1.32940  -1.31601  -1.28259
 Alpha  occ. eigenvalues --   -1.27048  -1.25317  -1.22780  -1.20587  -1.18952
 Alpha  occ. eigenvalues --   -1.18121  -1.16615  -1.16188  -1.14419  -1.13568
 Alpha  occ. eigenvalues --   -1.12348  -1.11093  -1.10506  -1.05714  -1.03342
 Alpha  occ. eigenvalues --   -1.03220  -1.01988  -0.99080  -0.98216  -0.96831
 Alpha  occ. eigenvalues --   -0.95599  -0.95300  -0.93963  -0.92709  -0.91658
 Alpha  occ. eigenvalues --   -0.91508  -0.91322  -0.89417  -0.88687  -0.86945
 Alpha  occ. eigenvalues --   -0.86276  -0.84790  -0.84150  -0.81846  -0.81008
 Alpha  occ. eigenvalues --   -0.80530  -0.79237  -0.77981  -0.77054  -0.76218
 Alpha  occ. eigenvalues --   -0.75842  -0.75635  -0.74515  -0.74053  -0.73642
 Alpha  occ. eigenvalues --   -0.73224  -0.72572  -0.71725  -0.70958  -0.70494
 Alpha  occ. eigenvalues --   -0.69741  -0.69279  -0.68817  -0.68474  -0.68367
 Alpha  occ. eigenvalues --   -0.68070  -0.67112  -0.66842  -0.66282  -0.66066
 Alpha  occ. eigenvalues --   -0.65432  -0.64612  -0.64113  -0.63893  -0.63543
 Alpha  occ. eigenvalues --   -0.63231  -0.63142  -0.62528  -0.62203  -0.61378
 Alpha  occ. eigenvalues --   -0.60895  -0.60837  -0.60770  -0.60419  -0.59844
 Alpha  occ. eigenvalues --   -0.59729  -0.59640  -0.59210  -0.59173  -0.58691
 Alpha  occ. eigenvalues --   -0.58125  -0.58058  -0.57546  -0.57058  -0.56878
 Alpha  occ. eigenvalues --   -0.56335  -0.55747  -0.55284  -0.54977  -0.54798
 Alpha  occ. eigenvalues --   -0.54626  -0.54298  -0.53896  -0.53309  -0.53144
 Alpha  occ. eigenvalues --   -0.52846  -0.52696  -0.52480  -0.51628  -0.51261
 Alpha  occ. eigenvalues --   -0.50749  -0.50546  -0.50395  -0.50118  -0.50013
 Alpha  occ. eigenvalues --   -0.49848  -0.49743  -0.49454  -0.49426  -0.49358
 Alpha  occ. eigenvalues --   -0.48813  -0.48549  -0.48392  -0.47941  -0.47693
 Alpha  occ. eigenvalues --   -0.47608  -0.47287  -0.46869  -0.46614  -0.46576
 Alpha  occ. eigenvalues --   -0.46478  -0.46164  -0.45671  -0.45335  -0.44914
 Alpha  occ. eigenvalues --   -0.44855  -0.44780  -0.44726  -0.44312  -0.44091
 Alpha  occ. eigenvalues --   -0.43887  -0.43238  -0.43147  -0.43038  -0.41714
 Alpha  occ. eigenvalues --   -0.41635  -0.41327  -0.41242  -0.39541  -0.39359
 Alpha  occ. eigenvalues --   -0.38190  -0.37222  -0.35200  -0.34990  -0.34335
 Alpha  occ. eigenvalues --   -0.32989  -0.32569  -0.32100  -0.31924  -0.26553
 Alpha  occ. eigenvalues --   -0.22136
 Alpha virt. eigenvalues --   -0.08656  -0.02601  -0.00585   0.00925   0.01588
 Alpha virt. eigenvalues --    0.02695   0.03171   0.03629   0.04704   0.05178
 Alpha virt. eigenvalues --    0.06098   0.06321   0.07140   0.07822   0.08335

 Mulliken charges:
               1
     1  Mg   0.428007
     2  C   -0.052618
     3  C   -0.082715
     4  C   -0.058919
     5  C   -0.074918
     6  N   -0.266827
     7  C    0.126561
     8  C    0.004031
     9  C    0.014023
    10  C    0.112281
    11  C   -0.044145
    12  C   -0.019737
    13  C    0.011330
    14  C    0.476775
    15  O   -0.516970
    16  O   -0.270126
    17  N   -0.330491
    18  C    0.080354
    19  C    0.006141
    20  C   -0.054818
    21  C    0.148583
    22  C   -0.043279
    23  C    0.309281
    24  O   -0.527085
    25  C   -0.042110
    26  N   -0.267031
    27  C    0.115117
    28  C    0.002442
    29  C    0.009065
    30  C    0.148908
    31  C   -0.052055
    32  C   -0.029407
    33  C   -0.065713
    34  N   -0.331772
    35  C    0.117898
    36  C    0.043096
    37  C   -0.051229
    38  C    0.134496
    39  C   -0.040414
    40  C    0.330044
    41  O   -0.526443
    42  C    0.043447
    43  C    0.507331
    44  O   -0.514188
    45  O   -0.267789
    46  C    0.072790
    47  C    0.100523
    48  C   -0.102937
    49  C    0.001569
    50  C   -0.040809
    51  C   -0.023301
    52  C   -0.021523
    53  C   -0.034777
    54  C   -0.020420
    55  C   -0.062619
    56  C   -0.052494
    57  C   -0.048436
    58  C   -0.043566
    59  C   -0.005581
    60  C   -0.054426
    61  C   -0.044105
    62  C   -0.054172
    63  C   -0.030583
    64  C   -0.010608
    65  C   -0.059159
    66  C   -0.059278
    67  H    0.024607
    68  H    0.040922
    69  H    0.021858
    70  H    0.044852
    71  H    0.023733
    72  H    0.028924
    73  H    0.006767
    74  H    0.029909
    75  H    0.032196
    76  H    0.028630
    77  H    0.027519
    78  H    0.046900
    79  H    0.016847
    80  H    0.032851
    81  H    0.030295
    82  H    0.043123
    83  H    0.040301
    84  H    0.042521
    85  H    0.041640
    86  H    0.034143
    87  H    0.028874
    88  H    0.026371
    89  H    0.020278
    90  H    0.017290
    91  H    0.019529
    92  H    0.018197
    93  H    0.018012
    94  H    0.023047
    95  H    0.045617
    96  H    0.027519
    97  H    0.040712
    98  H    0.057978
    99  H    0.018055
   100  H    0.037679
   101  H    0.049992
   102  H    0.058020
   103  H    0.038532
   104  H    0.031579
   105  H    0.034039
   106  H    0.016029
   107  H    0.026130
   108  H    0.025758
   109  H    0.015646
   110  H    0.020039
   111  H    0.027420
   112  H    0.006514
   113  H    0.017672
   114  H    0.028881
   115  H    0.027293
   116  H    0.021777
   117  H    0.027505
   118  H    0.018701
   119  H    0.012013
   120  H    0.027350
   121  H    0.031810
   122  H    0.023572
   123  H    0.010449
   124  H    0.025427
   125  H    0.023097
   126  H    0.017712
   127  H    0.004716
   128  H    0.024559
   129  H    0.014193
   130  H    0.026465
   131  H    0.034267
   132  H    0.017287
   133  H    0.011725
   134  H    0.019170
   135  H    0.027270
   136  H    0.014989
   137  H    0.011159
   138  H    0.019718
   139  H    0.014901
   140  H    0.014429
 Sum of Mulliken charges =  -0.00000

 Dipole moment (field-independent basis, Debye):
    X=             -4.1509    Y=              5.2596    Z=             -0.8620  Tot=              6.7554
 N-N= 4.273451589137D+03 E-N= 0.000000000000D+00  KE=-9.221056992033D+03
 Leave Link  601 at Wed May  4 17:19:32 2022, MaxMem=  6710886400 cpu:               1.8 elap:               0.1
 (Enter /sw/apps/gaussian-16.0/g16/l9999.exe)
 1\1\GINC-BP1-COMPUTE128\SP\RZINDO CIS\STO-3G\C55H74Mg1N4O6\OF15641\04-
 May-2022\0\\#p ZINDO=(nstates=5)\\step_201_chromophore_4 ZINDO\\0,1\Mg
 ,0,8.963,3.187,27.205\C,0,10.177,1.653,30.083\C,0,7.298,5.429,29.226\C
 ,0,7.777,4.526,24.439\C,0,10.563,0.696,25.345\N,0,8.672,3.402,29.513\C
 ,0,9.318,2.73,30.497\C,0,9.05,3.346,31.903\C,0,8.027,4.493,31.548\C,0,
 7.987,4.433,30.013\C,0,6.695,4.511,32.203\C,0,10.446,3.799,32.503\C,0,
 10.547,4.588,33.818\C,0,11.221,4.002,35.036\O,0,12.443,3.851,35.238\O,

 Normal termination of Gaussian 16 at Wed May  4 17:19:32 2022.
