 Gaussian 16, Revision A.03,
 Gaussian 16:  ES64L-G16RevA.03 25-Dec-2016

 ------------------------------
 #p blyp/Def2SVP td=(nstates=5)
 ------------------------------

 ---------------------------------------------------
 step_1751_chromophore_17 TDDFT with blyp functional
 ---------------------------------------------------
 Symbolic Z-matrix:
 Charge =  0 Multiplicity = 1

                         Standard orientation:
 ---------------------------------------------------------------------
 Center     Atomic      Atomic             Coordinates (Angstroms)
 Number     Number       Type             X           Y           Z
 ---------------------------------------------------------------------
      1         12           0        4.529131    0.707934   -0.389441
      2          6           0        3.325261   -2.625269   -0.910640
      3          6           0        2.029502    1.833632   -2.515337
      4          6           0        5.059779    3.887534    0.737262
      5          6           0        6.501049   -0.573728    2.303934
      6          7           0        2.919329   -0.312825   -1.645086
      7          6           0        2.574338   -1.658208   -1.611957
      8          6           0        1.233928   -1.917779   -2.465642
      9          6           0        1.121855   -0.470598   -3.135723
     10          6           0        2.049418    0.435220   -2.368961
     11          6           0        1.384303   -0.393046   -4.668469
     12          6           0        0.004933   -2.361329   -1.588380
     13          6           0       -0.591962   -3.694254   -1.927723
     14          6           0       -2.127507   -3.655052   -2.106407
     15          8           0       -2.747392   -3.170538   -3.054266
     16          8           0       -2.809572   -4.200608   -1.020431
     17          7           0        3.698287    2.614219   -0.945375
     18          6           0        2.701887    2.849955   -1.803152
     19          6           0        2.419738    4.266991   -1.866999
     20          6           0        3.336737    4.873614   -0.958396
     21          6           0        4.076944    3.803376   -0.319342
     22          6           0        1.347780    4.912288   -2.840168
     23          6           0        3.544489    6.409322   -0.805129
     24          8           0        2.868426    7.180417   -1.408780
     25          6           0        4.659690    6.994879    0.029185
     26          7           0        5.586412    1.476435    1.138966
     27          6           0        5.744976    2.805270    1.380466
     28          6           0        6.829729    3.193246    2.437194
     29          6           0        7.097125    1.831986    3.054186
     30          6           0        6.356188    0.840941    2.093514
     31          6           0        8.085503    3.819245    1.811390
     32          6           0        6.547365    1.702872    4.493118
     33          6           0        7.208700    2.593113    5.535423
     34          7           0        5.140993   -1.222331    0.393351
     35          6           0        5.882955   -1.545354    1.534900
     36          6           0        5.792336   -2.993813    1.734665
     37          6           0        4.800484   -3.422477    0.800651
     38          6           0        4.444704   -2.334039    0.016128
     39          6           0        6.484284   -3.740384    2.867741
     40          6           0        4.051932   -4.545719    0.358431
     41          8           0        4.102072   -5.720540    0.782351
     42          6           0        3.136554   -4.089232   -0.832909
     43          6           0        3.630519   -4.733528   -2.017062
     44          8           0        4.735880   -4.570146   -2.487183
     45          8           0        2.562993   -5.425529   -2.590038
     46          6           0        2.858562   -5.840214   -3.995521
     47          6           0       -4.277070   -4.029267   -1.059222
     48          6           0       -4.960684   -3.995969    0.278462
     49          6           0       -6.230438   -3.919053    0.609450
     50          6           0       -7.383568   -3.898468   -0.395168
     51          6           0       -6.523254   -4.132378    2.058456
     52          6           0       -6.183747   -2.843296    2.876845
     53          6           0       -7.183003   -2.671025    4.032292
     54          6           0       -8.247890   -1.670586    3.652492
     55          6           0       -9.599509   -1.963471    4.456594
     56          6           0       -7.791665   -0.249233    3.885119
     57          6           0       -8.187534    0.911644    2.889933
     58          6           0       -7.076275    1.177864    1.841702
     59          6           0       -7.459192    1.469960    0.311967
     60          6           0       -7.091515    0.260199   -0.599335
     61          6           0       -6.868840    2.852312   -0.176161
     62          6           0       -7.814934    4.026184    0.090086
     63          6           0       -7.737382    5.053422   -1.029501
     64          6           0       -8.941209    5.211450   -1.967574
     65          6           0       -8.635714    6.218421   -3.090655
     66          6           0      -10.262966    5.615949   -1.151926
     67          1           0        1.235534    2.205560   -3.167342
     68          1           0        5.494031    4.847305    1.023376
     69          1           0        7.082646   -0.861921    3.181629
     70          1           0        1.404738   -2.690966   -3.215274
     71          1           0        0.136384   -0.005335   -3.161654
     72          1           0        2.022292   -1.235510   -4.936937
     73          1           0        1.943806    0.469345   -5.030412
     74          1           0        0.461464   -0.465326   -5.242289
     75          1           0       -0.726511   -1.553384   -1.593705
     76          1           0        0.374120   -2.371888   -0.562174
     77          1           0       -0.494517   -4.425449   -1.125036
     78          1           0       -0.256913   -4.158683   -2.855176
     79          1           0        1.815727    5.787889   -3.289753
     80          1           0        0.389855    5.228202   -2.429124
     81          1           0        1.195862    4.349775   -3.761322
     82          1           0        4.481894    6.646970    1.046495
     83          1           0        4.551283    8.077735    0.088381
     84          1           0        5.681199    6.854062   -0.326036
     85          1           0        6.404859    3.959674    3.084355
     86          1           0        8.155070    1.573095    3.008960
     87          1           0        8.021863    4.860416    2.128769
     88          1           0        8.067334    3.782403    0.722407
     89          1           0        9.044522    3.468415    2.192808
     90          1           0        6.753336    0.660630    4.738423
     91          1           0        5.477917    1.858146    4.636432
     92          1           0        6.514010    3.282266    6.015265
     93          1           0        7.959111    3.227666    5.064009
     94          1           0        7.712665    2.008314    6.304720
     95          1           0        6.535111   -3.084816    3.736860
     96          1           0        7.520005   -4.017949    2.673305
     97          1           0        5.928439   -4.665149    3.025571
     98          1           0        2.094528   -4.302079   -0.593376
     99          1           0        1.936792   -6.121894   -4.505145
    100          1           0        3.397979   -6.780800   -4.104113
    101          1           0        3.429628   -5.070776   -4.515043
    102          1           0       -4.692621   -4.888161   -1.586839
    103          1           0       -4.609608   -3.090198   -1.501510
    104          1           0       -4.195829   -4.141060    1.041473
    105          1           0       -8.236094   -4.488862   -0.059276
    106          1           0       -7.021491   -4.309908   -1.337541
    107          1           0       -7.649487   -2.845688   -0.487443
    108          1           0       -5.916875   -4.947121    2.454779
    109          1           0       -7.583502   -4.346530    2.190974
    110          1           0       -6.004924   -2.009701    2.197816
    111          1           0       -5.217646   -3.100410    3.310971
    112          1           0       -6.661747   -2.387703    4.946613
    113          1           0       -7.706933   -3.598922    4.260005
    114          1           0       -8.353613   -1.690646    2.567727
    115          1           0      -10.096023   -1.008458    4.631610
    116          1           0       -9.477305   -2.440717    5.428980
    117          1           0      -10.340125   -2.565768    3.931408
    118          1           0       -6.746438   -0.302213    4.189057
    119          1           0       -8.143527    0.078793    4.863821
    120          1           0       -8.284055    1.794855    3.521935
    121          1           0       -9.124785    0.819066    2.341905
    122          1           0       -6.259621    0.463337    1.944635
    123          1           0       -6.716587    2.145585    2.192361
    124          1           0       -8.542122    1.589500    0.364335
    125          1           0       -6.301862    0.634606   -1.251008
    126          1           0       -7.912383   -0.074999   -1.233537
    127          1           0       -6.809929   -0.530114    0.095059
    128          1           0       -6.690881    2.803585   -1.251128
    129          1           0       -5.950503    2.979144    0.396320
    130          1           0       -7.381527    4.586679    0.918343
    131          1           0       -8.732262    3.567442    0.460813
    132          1           0       -6.906997    4.824987   -1.697427
    133          1           0       -7.446279    5.967322   -0.510184
    134          1           0       -9.339916    4.346596   -2.497369
    135          1           0       -9.518636    6.814968   -3.318976
    136          1           0       -8.119493    5.672328   -3.880217
    137          1           0       -7.884848    6.872445   -2.647908
    138          1           0       -9.940436    5.950643   -0.165813
    139          1           0      -10.763777    4.682099   -0.897175
    140          1           0      -10.815505    6.404381   -1.663136
 ---------------------------------------------------------------------

 SCF Done:  E(RB-LYP) =  -3007.35728981     A.U. after   22 cycles

 Excitation energies and oscillator strengths:

 Excited State   1:      Singlet-A      1.7709 eV  700.13 nm  f=0.1076  <S**2>=0.000
     244 -> 247        0.43530
     245 -> 247       -0.31608
     245 -> 248        0.11596
     246 -> 247        0.44679
 This state for optimization and/or second-order correction.
 Total Energy, E(TD-HF/TD-DFT) =  -3007.29221130
 Copying the excited state density for this state as the 1-particle RhoCI density.

 Excited State   2:      Singlet-A      1.7971 eV  689.90 nm  f=0.2080  <S**2>=0.000
     244 -> 247       -0.34820
     245 -> 247        0.28553
     245 -> 248        0.14578
     246 -> 247        0.52893
     246 <- 247       -0.12182

 Excited State   3:      Singlet-A      1.8696 eV  663.16 nm  f=0.0002  <S**2>=0.000
     243 -> 247        0.70606

 Excited State   4:      Singlet-A      2.0255 eV  612.11 nm  f=0.0015  <S**2>=0.000
     242 -> 247        0.70092

 Excited State   5:      Singlet-A      2.0482 eV  605.34 nm  f=0.0666  <S**2>=0.000
     244 -> 247        0.41381
     245 -> 247        0.49124
     246 -> 248       -0.24807

 The electronic state is 1-A.
 Alpha  occ. eigenvalues --  -46.28188 -18.82713 -18.82166 -18.77318 -18.76631
 Alpha  occ. eigenvalues --  -18.75853 -18.75325 -14.04485 -14.03883 -14.01315
 Alpha  occ. eigenvalues --  -14.01017 -10.04125 -10.03964 -10.00145  -9.99258
 Alpha  occ. eigenvalues --   -9.97832  -9.97574  -9.97415  -9.97412  -9.97349
 Alpha  occ. eigenvalues --   -9.96897  -9.96596  -9.95589  -9.95555  -9.95439
 Alpha  occ. eigenvalues --   -9.95066  -9.94688  -9.94300  -9.94294  -9.94216
 Alpha  occ. eigenvalues --   -9.94125  -9.93991  -9.93970  -9.93901  -9.93579
 Alpha  occ. eigenvalues --   -9.93570  -9.93418  -9.93081  -9.93053  -9.92932
 Alpha  occ. eigenvalues --   -9.92875  -9.92456  -9.92382  -9.92368  -9.92266
 Alpha  occ. eigenvalues --   -9.92208  -9.92094  -9.91833  -9.91821  -9.91747
 Alpha  occ. eigenvalues --   -9.91736  -9.91674  -9.91287  -9.91286  -9.91157
 Alpha  occ. eigenvalues --   -9.90965  -9.90936  -9.90922  -9.90873  -9.90813
 Alpha  occ. eigenvalues --   -9.90780  -9.90774  -9.90746  -9.90730  -9.90541
 Alpha  occ. eigenvalues --   -9.90520  -2.92684  -1.73116  -1.72566  -1.72397
 Alpha  occ. eigenvalues --   -0.97563  -0.96965  -0.93596  -0.90516  -0.89603
 Alpha  occ. eigenvalues --   -0.88927  -0.86840  -0.85925  -0.85419  -0.84731
 Alpha  occ. eigenvalues --   -0.76181  -0.74011  -0.73521  -0.72929  -0.72701
 Alpha  occ. eigenvalues --   -0.72184  -0.71784  -0.71021  -0.70433  -0.69506
 Alpha  occ. eigenvalues --   -0.69173  -0.68651  -0.68388  -0.67987  -0.67404
 Alpha  occ. eigenvalues --   -0.66496  -0.65981  -0.65252  -0.64988  -0.64775
 Alpha  occ. eigenvalues --   -0.64011  -0.62569  -0.62440  -0.61747  -0.60959
 Alpha  occ. eigenvalues --   -0.60447  -0.59851  -0.59781  -0.59428  -0.58802
 Alpha  occ. eigenvalues --   -0.58017  -0.57445  -0.56823  -0.55701  -0.55035
 Alpha  occ. eigenvalues --   -0.53990  -0.53607  -0.52815  -0.52416  -0.51834
 Alpha  occ. eigenvalues --   -0.51573  -0.51553  -0.51075  -0.50350  -0.49439
 Alpha  occ. eigenvalues --   -0.49331  -0.49080  -0.48597  -0.48186  -0.46752
 Alpha  occ. eigenvalues --   -0.46159  -0.45890  -0.45783  -0.45703  -0.45422
 Alpha  occ. eigenvalues --   -0.44300  -0.43285  -0.43218  -0.42630  -0.42469
 Alpha  occ. eigenvalues --   -0.42300  -0.41985  -0.41695  -0.41445  -0.41293
 Alpha  occ. eigenvalues --   -0.40878  -0.40748  -0.40521  -0.40310  -0.40040
 Alpha  occ. eigenvalues --   -0.39879  -0.39650  -0.39461  -0.39374  -0.39206
 Alpha  occ. eigenvalues --   -0.38952  -0.38709  -0.38367  -0.38332  -0.38089
 Alpha  occ. eigenvalues --   -0.38003  -0.37913  -0.37794  -0.37641  -0.37308
 Alpha  occ. eigenvalues --   -0.37057  -0.37007  -0.36807  -0.36661  -0.36462
 Alpha  occ. eigenvalues --   -0.36452  -0.36146  -0.35922  -0.35885  -0.35846
 Alpha  occ. eigenvalues --   -0.35454  -0.35384  -0.35027  -0.34933  -0.34691
 Alpha  occ. eigenvalues --   -0.34406  -0.34182  -0.34108  -0.33863  -0.33795
 Alpha  occ. eigenvalues --   -0.33694  -0.33603  -0.33392  -0.33304  -0.33138
 Alpha  occ. eigenvalues --   -0.32980  -0.32906  -0.32683  -0.32555  -0.32288
 Alpha  occ. eigenvalues --   -0.32220  -0.31982  -0.31788  -0.31750  -0.31631
 Alpha  occ. eigenvalues --   -0.31512  -0.31318  -0.31209  -0.31074  -0.30972
 Alpha  occ. eigenvalues --   -0.30908  -0.30730  -0.30492  -0.30369  -0.30302
 Alpha  occ. eigenvalues --   -0.30219  -0.29927  -0.29363  -0.29273  -0.29195
 Alpha  occ. eigenvalues --   -0.28791  -0.28725  -0.28269  -0.27744  -0.27561
 Alpha  occ. eigenvalues --   -0.26931  -0.26795  -0.26736  -0.26590  -0.26431
 Alpha  occ. eigenvalues --   -0.26198  -0.25890  -0.25857  -0.25609  -0.25587
 Alpha  occ. eigenvalues --   -0.24972  -0.24898  -0.24646  -0.24176  -0.23824
 Alpha  occ. eigenvalues --   -0.23809  -0.23023  -0.22066  -0.21447  -0.20764
 Alpha  occ. eigenvalues --   -0.20184  -0.19457  -0.18816  -0.18645  -0.17598
 Alpha  occ. eigenvalues --   -0.16144
 Alpha virt. eigenvalues --   -0.12012  -0.07205  -0.06185  -0.04831  -0.03254
 Alpha virt. eigenvalues --   -0.02853  -0.02629  -0.01771  -0.00984  -0.00440
 Alpha virt. eigenvalues --    0.00779   0.01181   0.01969   0.02145   0.02922

 Mulliken charges:
               1
     1  Mg   0.704237
     2  C   -0.023922
     3  C   -0.059310
     4  C   -0.051958
     5  C   -0.089505
     6  N   -0.204719
     7  C   -0.091088
     8  C    0.033169
     9  C   -0.003209
    10  C    0.049087
    11  C    0.096104
    12  C    0.146716
    13  C    0.161940
    14  C    0.041746
    15  O   -0.207405
    16  O   -0.283306
    17  N   -0.263693
    18  C    0.107443
    19  C   -0.119970
    20  C    0.015239
    21  C    0.126562
    22  C    0.155186
    23  C   -0.084199
    24  O   -0.122713
    25  C    0.132626
    26  N   -0.259406
    27  C    0.001606
    28  C    0.000031
    29  C    0.051498
    30  C    0.034187
    31  C    0.121721
    32  C    0.085186
    33  C    0.076298
    34  N   -0.262429
    35  C    0.137098
    36  C   -0.165217
    37  C    0.130843
    38  C    0.083211
    39  C    0.165110
    40  C   -0.099083
    41  O   -0.162728
    42  C    0.138735
    43  C    0.129671
    44  O   -0.164455
    45  O   -0.287180
    46  C    0.213537
    47  C    0.311812
    48  C   -0.148710
    49  C   -0.166433
    50  C    0.154625
    51  C    0.151000
    52  C    0.050414
    53  C    0.123167
    54  C   -0.043909
    55  C    0.104210
    56  C    0.081626
    57  C    0.102582
    58  C    0.069393
    59  C   -0.120062
    60  C    0.118923
    61  C    0.087670
    62  C    0.102920
    63  C    0.097554
    64  C   -0.111951
    65  C    0.119161
    66  C    0.085768
    67  H   -0.062081
    68  H   -0.072817
    69  H   -0.053871
    70  H   -0.017069
    71  H   -0.025409
    72  H   -0.018690
    73  H   -0.006183
    74  H    0.002206
    75  H   -0.004902
    76  H   -0.013456
    77  H    0.000637
    78  H    0.009647
    79  H   -0.002585
    80  H    0.015251
    81  H   -0.019826
    82  H    0.009283
    83  H   -0.021355
    84  H    0.021636
    85  H   -0.020209
    86  H   -0.030684
    87  H   -0.013604
    88  H    0.003402
    89  H   -0.002998
    90  H   -0.032727
    91  H   -0.017431
    92  H   -0.006919
    93  H   -0.020532
    94  H   -0.005681
    95  H   -0.008179
    96  H   -0.000242
    97  H    0.011812
    98  H   -0.015314
    99  H    0.006978
   100  H    0.012096
   101  H    0.022680
   102  H    0.006412
   103  H    0.016886
   104  H   -0.036122
   105  H   -0.005321
   106  H   -0.009849
   107  H    0.003520
   108  H   -0.014242
   109  H   -0.041250
   110  H   -0.003755
   111  H   -0.039999
   112  H   -0.038521
   113  H   -0.037649
   114  H   -0.045244
   115  H   -0.023314
   116  H   -0.013202
   117  H   -0.020108
   118  H   -0.049747
   119  H   -0.060002
   120  H   -0.031915
   121  H   -0.029248
   122  H   -0.022545
   123  H   -0.043785
   124  H   -0.047286
   125  H   -0.014666
   126  H   -0.008990
   127  H    0.001850
   128  H   -0.027622
   129  H   -0.025696
   130  H   -0.045931
   131  H   -0.024995
   132  H   -0.032728
   133  H   -0.029073
   134  H   -0.033559
   135  H   -0.014226
   136  H   -0.007817
   137  H   -0.028535
   138  H   -0.027896
   139  H   -0.011396
   140  H   -0.008347
 Sum of Mulliken charges =  -0.00000

 Dipole moment (field-independent basis, Debye):
    X=              0.6747    Y=              2.4968    Z=              1.9426  Tot=              3.2347
 Quadrupole moment (field-independent basis, Debye-Ang):
   XX=           -378.4394   YY=           -444.3988   ZZ=           -389.1172
   XY=             34.4749   XZ=             12.6257   YZ=             19.6015

 Normal termination of Gaussian 16 at Thu Apr 28 22:13:51 2022.
