 Gaussian 16, Revision A.03,
 Gaussian 16:  ES64L-G16RevA.03 25-Dec-2016

 -----------------------------------
 #p cam-b3lyp/Def2SVP td=(nstates=5)
 -----------------------------------

 --------------------------------------------------------
 step_1751_chromophore_17 TDDFT with cam-b3lyp functional
 --------------------------------------------------------
 Symbolic Z-matrix:
 Charge =  0 Multiplicity = 1

                         Standard orientation:
 ---------------------------------------------------------------------
 Center     Atomic      Atomic             Coordinates (Angstroms)
 Number     Number       Type             X           Y           Z
 ---------------------------------------------------------------------
      1         12           0        4.529131    0.707934   -0.389441
      2          6           0        3.325261   -2.625269   -0.910640
      3          6           0        2.029502    1.833632   -2.515337
      4          6           0        5.059779    3.887534    0.737262
      5          6           0        6.501049   -0.573728    2.303934
      6          7           0        2.919329   -0.312825   -1.645086
      7          6           0        2.574338   -1.658208   -1.611957
      8          6           0        1.233928   -1.917779   -2.465642
      9          6           0        1.121855   -0.470598   -3.135723
     10          6           0        2.049418    0.435220   -2.368961
     11          6           0        1.384303   -0.393046   -4.668469
     12          6           0        0.004933   -2.361329   -1.588380
     13          6           0       -0.591962   -3.694254   -1.927723
     14          6           0       -2.127507   -3.655052   -2.106407
     15          8           0       -2.747392   -3.170538   -3.054266
     16          8           0       -2.809572   -4.200608   -1.020431
     17          7           0        3.698287    2.614219   -0.945375
     18          6           0        2.701887    2.849955   -1.803152
     19          6           0        2.419738    4.266991   -1.866999
     20          6           0        3.336737    4.873614   -0.958396
     21          6           0        4.076944    3.803376   -0.319342
     22          6           0        1.347780    4.912288   -2.840168
     23          6           0        3.544489    6.409322   -0.805129
     24          8           0        2.868426    7.180417   -1.408780
     25          6           0        4.659690    6.994879    0.029185
     26          7           0        5.586412    1.476435    1.138966
     27          6           0        5.744976    2.805270    1.380466
     28          6           0        6.829729    3.193246    2.437194
     29          6           0        7.097125    1.831986    3.054186
     30          6           0        6.356188    0.840941    2.093514
     31          6           0        8.085503    3.819245    1.811390
     32          6           0        6.547365    1.702872    4.493118
     33          6           0        7.208700    2.593113    5.535423
     34          7           0        5.140993   -1.222331    0.393351
     35          6           0        5.882955   -1.545354    1.534900
     36          6           0        5.792336   -2.993813    1.734665
     37          6           0        4.800484   -3.422477    0.800651
     38          6           0        4.444704   -2.334039    0.016128
     39          6           0        6.484284   -3.740384    2.867741
     40          6           0        4.051932   -4.545719    0.358431
     41          8           0        4.102072   -5.720540    0.782351
     42          6           0        3.136554   -4.089232   -0.832909
     43          6           0        3.630519   -4.733528   -2.017062
     44          8           0        4.735880   -4.570146   -2.487183
     45          8           0        2.562993   -5.425529   -2.590038
     46          6           0        2.858562   -5.840214   -3.995521
     47          6           0       -4.277070   -4.029267   -1.059222
     48          6           0       -4.960684   -3.995969    0.278462
     49          6           0       -6.230438   -3.919053    0.609450
     50          6           0       -7.383568   -3.898468   -0.395168
     51          6           0       -6.523254   -4.132378    2.058456
     52          6           0       -6.183747   -2.843296    2.876845
     53          6           0       -7.183003   -2.671025    4.032292
     54          6           0       -8.247890   -1.670586    3.652492
     55          6           0       -9.599509   -1.963471    4.456594
     56          6           0       -7.791665   -0.249233    3.885119
     57          6           0       -8.187534    0.911644    2.889933
     58          6           0       -7.076275    1.177864    1.841702
     59          6           0       -7.459192    1.469960    0.311967
     60          6           0       -7.091515    0.260199   -0.599335
     61          6           0       -6.868840    2.852312   -0.176161
     62          6           0       -7.814934    4.026184    0.090086
     63          6           0       -7.737382    5.053422   -1.029501
     64          6           0       -8.941209    5.211450   -1.967574
     65          6           0       -8.635714    6.218421   -3.090655
     66          6           0      -10.262966    5.615949   -1.151926
     67          1           0        1.235534    2.205560   -3.167342
     68          1           0        5.494031    4.847305    1.023376
     69          1           0        7.082646   -0.861921    3.181629
     70          1           0        1.404738   -2.690966   -3.215274
     71          1           0        0.136384   -0.005335   -3.161654
     72          1           0        2.022292   -1.235510   -4.936937
     73          1           0        1.943806    0.469345   -5.030412
     74          1           0        0.461464   -0.465326   -5.242289
     75          1           0       -0.726511   -1.553384   -1.593705
     76          1           0        0.374120   -2.371888   -0.562174
     77          1           0       -0.494517   -4.425449   -1.125036
     78          1           0       -0.256913   -4.158683   -2.855176
     79          1           0        1.815727    5.787889   -3.289753
     80          1           0        0.389855    5.228202   -2.429124
     81          1           0        1.195862    4.349775   -3.761322
     82          1           0        4.481894    6.646970    1.046495
     83          1           0        4.551283    8.077735    0.088381
     84          1           0        5.681199    6.854062   -0.326036
     85          1           0        6.404859    3.959674    3.084355
     86          1           0        8.155070    1.573095    3.008960
     87          1           0        8.021863    4.860416    2.128769
     88          1           0        8.067334    3.782403    0.722407
     89          1           0        9.044522    3.468415    2.192808
     90          1           0        6.753336    0.660630    4.738423
     91          1           0        5.477917    1.858146    4.636432
     92          1           0        6.514010    3.282266    6.015265
     93          1           0        7.959111    3.227666    5.064009
     94          1           0        7.712665    2.008314    6.304720
     95          1           0        6.535111   -3.084816    3.736860
     96          1           0        7.520005   -4.017949    2.673305
     97          1           0        5.928439   -4.665149    3.025571
     98          1           0        2.094528   -4.302079   -0.593376
     99          1           0        1.936792   -6.121894   -4.505145
    100          1           0        3.397979   -6.780800   -4.104113
    101          1           0        3.429628   -5.070776   -4.515043
    102          1           0       -4.692621   -4.888161   -1.586839
    103          1           0       -4.609608   -3.090198   -1.501510
    104          1           0       -4.195829   -4.141060    1.041473
    105          1           0       -8.236094   -4.488862   -0.059276
    106          1           0       -7.021491   -4.309908   -1.337541
    107          1           0       -7.649487   -2.845688   -0.487443
    108          1           0       -5.916875   -4.947121    2.454779
    109          1           0       -7.583502   -4.346530    2.190974
    110          1           0       -6.004924   -2.009701    2.197816
    111          1           0       -5.217646   -3.100410    3.310971
    112          1           0       -6.661747   -2.387703    4.946613
    113          1           0       -7.706933   -3.598922    4.260005
    114          1           0       -8.353613   -1.690646    2.567727
    115          1           0      -10.096023   -1.008458    4.631610
    116          1           0       -9.477305   -2.440717    5.428980
    117          1           0      -10.340125   -2.565768    3.931408
    118          1           0       -6.746438   -0.302213    4.189057
    119          1           0       -8.143527    0.078793    4.863821
    120          1           0       -8.284055    1.794855    3.521935
    121          1           0       -9.124785    0.819066    2.341905
    122          1           0       -6.259621    0.463337    1.944635
    123          1           0       -6.716587    2.145585    2.192361
    124          1           0       -8.542122    1.589500    0.364335
    125          1           0       -6.301862    0.634606   -1.251008
    126          1           0       -7.912383   -0.074999   -1.233537
    127          1           0       -6.809929   -0.530114    0.095059
    128          1           0       -6.690881    2.803585   -1.251128
    129          1           0       -5.950503    2.979144    0.396320
    130          1           0       -7.381527    4.586679    0.918343
    131          1           0       -8.732262    3.567442    0.460813
    132          1           0       -6.906997    4.824987   -1.697427
    133          1           0       -7.446279    5.967322   -0.510184
    134          1           0       -9.339916    4.346596   -2.497369
    135          1           0       -9.518636    6.814968   -3.318976
    136          1           0       -8.119493    5.672328   -3.880217
    137          1           0       -7.884848    6.872445   -2.647908
    138          1           0       -9.940436    5.950643   -0.165813
    139          1           0      -10.763777    4.682099   -0.897175
    140          1           0      -10.815505    6.404381   -1.663136
 ---------------------------------------------------------------------

 SCF Done:  E(RCAM-B3LYP) =  -3007.14321751     A.U. after   19 cycles

 Excitation energies and oscillator strengths:

 Excited State   1:      Singlet-A      1.6733 eV  740.94 nm  f=0.3723  <S**2>=0.000
     245 -> 248        0.17067
     246 -> 247        0.68798
     245 <- 248        0.10761
 This state for optimization and/or second-order correction.
 Total Energy, E(TD-HF/TD-DFT) =  -3007.08172383
 Copying the excited state density for this state as the 1-particle RhoCI density.

 Excited State   2:      Singlet-A      2.2055 eV  562.17 nm  f=0.1143  <S**2>=0.000
     245 -> 247        0.63637
     246 -> 248       -0.29398

 Excited State   3:      Singlet-A      3.2309 eV  383.75 nm  f=0.0062  <S**2>=0.000
     242 -> 247        0.29778
     243 -> 247        0.61936

 Excited State   4:      Singlet-A      3.3442 eV  370.74 nm  f=0.0029  <S**2>=0.000
     241 -> 247       -0.29874
     242 -> 247        0.51685
     243 -> 247       -0.28985
     246 -> 248        0.17632

 Excited State   5:      Singlet-A      3.4068 eV  363.93 nm  f=0.0526  <S**2>=0.000
     241 -> 247        0.46580
     241 -> 249        0.24351
     241 -> 250        0.10059
     242 -> 247        0.26448
     242 -> 249        0.17501
     246 -> 248       -0.21952

 The electronic state is 1-A.
 Alpha  occ. eigenvalues --  -46.89792 -19.25673 -19.24979 -19.20403 -19.19622
 Alpha  occ. eigenvalues --  -19.19279 -19.18231 -14.43418 -14.42772 -14.39934
 Alpha  occ. eigenvalues --  -14.39249 -10.39465 -10.39364 -10.35449 -10.34415
 Alpha  occ. eigenvalues --  -10.32126 -10.32034 -10.31886 -10.31730 -10.31590
 Alpha  occ. eigenvalues --  -10.31448 -10.31379 -10.30227 -10.29608 -10.29450
 Alpha  occ. eigenvalues --  -10.29187 -10.29071 -10.28935 -10.28334 -10.28239
 Alpha  occ. eigenvalues --  -10.28190 -10.28144 -10.27959 -10.27886 -10.27771
 Alpha  occ. eigenvalues --  -10.27768 -10.27668 -10.27458 -10.27302 -10.26714
 Alpha  occ. eigenvalues --  -10.26657 -10.26451 -10.26275 -10.26206 -10.25917
 Alpha  occ. eigenvalues --  -10.25888 -10.25811 -10.25776 -10.25645 -10.25503
 Alpha  occ. eigenvalues --  -10.25483 -10.25370 -10.24959 -10.24955 -10.24813
 Alpha  occ. eigenvalues --  -10.24715 -10.24669 -10.24551 -10.24536 -10.24495
 Alpha  occ. eigenvalues --  -10.24483 -10.24479 -10.24430 -10.24403 -10.24177
 Alpha  occ. eigenvalues --  -10.24122  -3.18185  -1.93095  -1.92649  -1.92473
 Alpha  occ. eigenvalues --   -1.16119  -1.15358  -1.12288  -1.08446  -1.07682
 Alpha  occ. eigenvalues --   -1.06725  -1.04582  -1.03712  -1.03062  -1.02084
 Alpha  occ. eigenvalues --   -0.93244  -0.90920  -0.90241  -0.89704  -0.89486
 Alpha  occ. eigenvalues --   -0.88901  -0.88565  -0.87600  -0.87009  -0.85965
 Alpha  occ. eigenvalues --   -0.85503  -0.85375  -0.84568  -0.84220  -0.83626
 Alpha  occ. eigenvalues --   -0.82534  -0.82115  -0.81330  -0.80833  -0.80621
 Alpha  occ. eigenvalues --   -0.79771  -0.78129  -0.77972  -0.77472  -0.76370
 Alpha  occ. eigenvalues --   -0.75808  -0.75198  -0.75143  -0.74720  -0.74021
 Alpha  occ. eigenvalues --   -0.72994  -0.72383  -0.71733  -0.70508  -0.69616
 Alpha  occ. eigenvalues --   -0.68541  -0.68154  -0.67424  -0.66826  -0.65943
 Alpha  occ. eigenvalues --   -0.65862  -0.65603  -0.65167  -0.64408  -0.63279
 Alpha  occ. eigenvalues --   -0.63096  -0.63056  -0.62327  -0.62059  -0.60445
 Alpha  occ. eigenvalues --   -0.59772  -0.59399  -0.59291  -0.59231  -0.58985
 Alpha  occ. eigenvalues --   -0.57657  -0.56653  -0.56513  -0.55858  -0.55601
 Alpha  occ. eigenvalues --   -0.55392  -0.55038  -0.54488  -0.54336  -0.54070
 Alpha  occ. eigenvalues --   -0.53705  -0.53579  -0.53136  -0.52993  -0.52769
 Alpha  occ. eigenvalues --   -0.52643  -0.52489  -0.52184  -0.51977  -0.51718
 Alpha  occ. eigenvalues --   -0.51466  -0.51335  -0.50832  -0.50688  -0.50670
 Alpha  occ. eigenvalues --   -0.50552  -0.50349  -0.50124  -0.49909  -0.49852
 Alpha  occ. eigenvalues --   -0.49663  -0.49262  -0.49192  -0.48949  -0.48782
 Alpha  occ. eigenvalues --   -0.48622  -0.48383  -0.48203  -0.47905  -0.47831
 Alpha  occ. eigenvalues --   -0.47813  -0.47417  -0.47033  -0.46940  -0.46668
 Alpha  occ. eigenvalues --   -0.46490  -0.45981  -0.45904  -0.45691  -0.45667
 Alpha  occ. eigenvalues --   -0.45496  -0.45361  -0.44973  -0.44926  -0.44879
 Alpha  occ. eigenvalues --   -0.44692  -0.44596  -0.44554  -0.44267  -0.43975
 Alpha  occ. eigenvalues --   -0.43743  -0.43664  -0.43482  -0.43414  -0.43329
 Alpha  occ. eigenvalues --   -0.43131  -0.43065  -0.42823  -0.42613  -0.42446
 Alpha  occ. eigenvalues --   -0.42312  -0.42068  -0.41925  -0.41707  -0.41660
 Alpha  occ. eigenvalues --   -0.41475  -0.41230  -0.40562  -0.40421  -0.40292
 Alpha  occ. eigenvalues --   -0.39893  -0.39791  -0.39316  -0.38693  -0.38459
 Alpha  occ. eigenvalues --   -0.37837  -0.37729  -0.37670  -0.37462  -0.37426
 Alpha  occ. eigenvalues --   -0.37085  -0.36939  -0.36737  -0.36712  -0.36239
 Alpha  occ. eigenvalues --   -0.35887  -0.35536  -0.35268  -0.35220  -0.34748
 Alpha  occ. eigenvalues --   -0.34230  -0.33593  -0.33548  -0.31475  -0.31238
 Alpha  occ. eigenvalues --   -0.30495  -0.30260  -0.29169  -0.29139  -0.24500
 Alpha  occ. eigenvalues --   -0.21420
 Alpha virt. eigenvalues --   -0.09235  -0.02069   0.00435   0.02212   0.02364
 Alpha virt. eigenvalues --    0.04530   0.05011   0.05263   0.06302   0.06349
 Alpha virt. eigenvalues --    0.07468   0.08048   0.08334   0.08579   0.09063

 Mulliken charges:
               1
     1  Mg   0.833749
     2  C   -0.054938
     3  C   -0.074658
     4  C   -0.070373
     5  C   -0.092378
     6  N   -0.274818
     7  C   -0.048795
     8  C   -0.010886
     9  C   -0.058545
    10  C    0.072277
    11  C    0.040063
    12  C    0.088407
    13  C    0.088806
    14  C    0.128321
    15  O   -0.248289
    16  O   -0.349771
    17  N   -0.352026
    18  C    0.118768
    19  C   -0.126051
    20  C   -0.053506
    21  C    0.154141
    22  C    0.106921
    23  C   -0.005655
    24  O   -0.161182
    25  C    0.046599
    26  N   -0.333353
    27  C    0.027281
    28  C   -0.058646
    29  C   -0.007688
    30  C    0.047859
    31  C    0.064631
    32  C    0.030950
    33  C    0.014002
    34  N   -0.347816
    35  C    0.133888
    36  C   -0.152406
    37  C    0.042126
    38  C    0.126136
    39  C    0.115031
    40  C   -0.002593
    41  O   -0.204455
    42  C    0.052973
    43  C    0.223306
    44  O   -0.201084
    45  O   -0.351595
    46  C    0.172783
    47  C    0.284081
    48  C   -0.167256
    49  C   -0.194857
    50  C    0.100489
    51  C    0.092931
    52  C   -0.000395
    53  C    0.064821
    54  C   -0.097792
    55  C    0.046097
    56  C    0.023744
    57  C    0.048947
    58  C    0.017277
    59  C   -0.171100
    60  C    0.069874
    61  C    0.037134
    62  C    0.042928
    63  C    0.038942
    64  C   -0.166377
    65  C    0.058828
    66  C    0.027888
    67  H   -0.026889
    68  H   -0.037341
    69  H   -0.018659
    70  H    0.014822
    71  H    0.009684
    72  H    0.005751
    73  H    0.020181
    74  H    0.027363
    75  H    0.027049
    76  H    0.019352
    77  H    0.035541
    78  H    0.040091
    79  H    0.026857
    80  H    0.042924
    81  H    0.007175
    82  H    0.035264
    83  H    0.016220
    84  H    0.049621
    85  H    0.015108
    86  H    0.006059
    87  H    0.009260
    88  H    0.029125
    89  H    0.022637
    90  H   -0.003870
    91  H    0.012330
    92  H    0.016566
    93  H    0.000924
    94  H    0.019260
    95  H    0.013096
    96  H    0.025476
    97  H    0.038203
    98  H    0.028952
    99  H    0.030156
   100  H    0.035441
   101  H    0.046423
   102  H    0.031496
   103  H    0.044336
   104  H   -0.000896
   105  H    0.019672
   106  H    0.013666
   107  H    0.023751
   108  H    0.016821
   109  H   -0.012455
   110  H    0.018724
   111  H   -0.009247
   112  H   -0.008734
   113  H   -0.006930
   114  H   -0.016507
   115  H    0.000860
   116  H    0.010532
   117  H    0.004602
   118  H   -0.017926
   119  H   -0.028268
   120  H   -0.001972
   121  H   -0.002192
   122  H    0.003725
   123  H   -0.014510
   124  H   -0.016440
   125  H    0.008772
   126  H    0.014111
   127  H    0.014689
   128  H   -0.000294
   129  H    0.002672
   130  H   -0.014821
   131  H    0.001349
   132  H   -0.004217
   133  H    0.000365
   134  H   -0.002371
   135  H    0.010121
   136  H    0.016054
   137  H   -0.004756
   138  H   -0.004264
   139  H    0.011565
   140  H    0.015046
 Sum of Mulliken charges =  -0.00000

 Dipole moment (field-independent basis, Debye):
    X=              0.6204    Y=              3.4093    Z=              1.7781  Tot=              3.8948
 Quadrupole moment (field-independent basis, Debye-Ang):
   XX=           -378.5224   YY=           -441.2943   ZZ=           -386.9823
   XY=             39.3349   XZ=             12.5861   YZ=             20.6440

 Normal termination of Gaussian 16 at Thu Apr 28 21:17:52 2022.
