 Gaussian 16, Revision A.03,
 Gaussian 16:  ES64L-G16RevA.03 25-Dec-2016

 ---------------------------------
 #p PBE1PBE/Def2SVP td=(nstates=5)
 ---------------------------------

 ------------------------------------------------------
 step_1751_chromophore_17 TDDFT with PBE1PBE functional
 ------------------------------------------------------
 Symbolic Z-matrix:
 Charge =  0 Multiplicity = 1

                         Standard orientation:
 ---------------------------------------------------------------------
 Center     Atomic      Atomic             Coordinates (Angstroms)
 Number     Number       Type             X           Y           Z
 ---------------------------------------------------------------------
      1         12           0        4.529131    0.707934   -0.389441
      2          6           0        3.325261   -2.625269   -0.910640
      3          6           0        2.029502    1.833632   -2.515337
      4          6           0        5.059779    3.887534    0.737262
      5          6           0        6.501049   -0.573728    2.303934
      6          7           0        2.919329   -0.312825   -1.645086
      7          6           0        2.574338   -1.658208   -1.611957
      8          6           0        1.233928   -1.917779   -2.465642
      9          6           0        1.121855   -0.470598   -3.135723
     10          6           0        2.049418    0.435220   -2.368961
     11          6           0        1.384303   -0.393046   -4.668469
     12          6           0        0.004933   -2.361329   -1.588380
     13          6           0       -0.591962   -3.694254   -1.927723
     14          6           0       -2.127507   -3.655052   -2.106407
     15          8           0       -2.747392   -3.170538   -3.054266
     16          8           0       -2.809572   -4.200608   -1.020431
     17          7           0        3.698287    2.614219   -0.945375
     18          6           0        2.701887    2.849955   -1.803152
     19          6           0        2.419738    4.266991   -1.866999
     20          6           0        3.336737    4.873614   -0.958396
     21          6           0        4.076944    3.803376   -0.319342
     22          6           0        1.347780    4.912288   -2.840168
     23          6           0        3.544489    6.409322   -0.805129
     24          8           0        2.868426    7.180417   -1.408780
     25          6           0        4.659690    6.994879    0.029185
     26          7           0        5.586412    1.476435    1.138966
     27          6           0        5.744976    2.805270    1.380466
     28          6           0        6.829729    3.193246    2.437194
     29          6           0        7.097125    1.831986    3.054186
     30          6           0        6.356188    0.840941    2.093514
     31          6           0        8.085503    3.819245    1.811390
     32          6           0        6.547365    1.702872    4.493118
     33          6           0        7.208700    2.593113    5.535423
     34          7           0        5.140993   -1.222331    0.393351
     35          6           0        5.882955   -1.545354    1.534900
     36          6           0        5.792336   -2.993813    1.734665
     37          6           0        4.800484   -3.422477    0.800651
     38          6           0        4.444704   -2.334039    0.016128
     39          6           0        6.484284   -3.740384    2.867741
     40          6           0        4.051932   -4.545719    0.358431
     41          8           0        4.102072   -5.720540    0.782351
     42          6           0        3.136554   -4.089232   -0.832909
     43          6           0        3.630519   -4.733528   -2.017062
     44          8           0        4.735880   -4.570146   -2.487183
     45          8           0        2.562993   -5.425529   -2.590038
     46          6           0        2.858562   -5.840214   -3.995521
     47          6           0       -4.277070   -4.029267   -1.059222
     48          6           0       -4.960684   -3.995969    0.278462
     49          6           0       -6.230438   -3.919053    0.609450
     50          6           0       -7.383568   -3.898468   -0.395168
     51          6           0       -6.523254   -4.132378    2.058456
     52          6           0       -6.183747   -2.843296    2.876845
     53          6           0       -7.183003   -2.671025    4.032292
     54          6           0       -8.247890   -1.670586    3.652492
     55          6           0       -9.599509   -1.963471    4.456594
     56          6           0       -7.791665   -0.249233    3.885119
     57          6           0       -8.187534    0.911644    2.889933
     58          6           0       -7.076275    1.177864    1.841702
     59          6           0       -7.459192    1.469960    0.311967
     60          6           0       -7.091515    0.260199   -0.599335
     61          6           0       -6.868840    2.852312   -0.176161
     62          6           0       -7.814934    4.026184    0.090086
     63          6           0       -7.737382    5.053422   -1.029501
     64          6           0       -8.941209    5.211450   -1.967574
     65          6           0       -8.635714    6.218421   -3.090655
     66          6           0      -10.262966    5.615949   -1.151926
     67          1           0        1.235534    2.205560   -3.167342
     68          1           0        5.494031    4.847305    1.023376
     69          1           0        7.082646   -0.861921    3.181629
     70          1           0        1.404738   -2.690966   -3.215274
     71          1           0        0.136384   -0.005335   -3.161654
     72          1           0        2.022292   -1.235510   -4.936937
     73          1           0        1.943806    0.469345   -5.030412
     74          1           0        0.461464   -0.465326   -5.242289
     75          1           0       -0.726511   -1.553384   -1.593705
     76          1           0        0.374120   -2.371888   -0.562174
     77          1           0       -0.494517   -4.425449   -1.125036
     78          1           0       -0.256913   -4.158683   -2.855176
     79          1           0        1.815727    5.787889   -3.289753
     80          1           0        0.389855    5.228202   -2.429124
     81          1           0        1.195862    4.349775   -3.761322
     82          1           0        4.481894    6.646970    1.046495
     83          1           0        4.551283    8.077735    0.088381
     84          1           0        5.681199    6.854062   -0.326036
     85          1           0        6.404859    3.959674    3.084355
     86          1           0        8.155070    1.573095    3.008960
     87          1           0        8.021863    4.860416    2.128769
     88          1           0        8.067334    3.782403    0.722407
     89          1           0        9.044522    3.468415    2.192808
     90          1           0        6.753336    0.660630    4.738423
     91          1           0        5.477917    1.858146    4.636432
     92          1           0        6.514010    3.282266    6.015265
     93          1           0        7.959111    3.227666    5.064009
     94          1           0        7.712665    2.008314    6.304720
     95          1           0        6.535111   -3.084816    3.736860
     96          1           0        7.520005   -4.017949    2.673305
     97          1           0        5.928439   -4.665149    3.025571
     98          1           0        2.094528   -4.302079   -0.593376
     99          1           0        1.936792   -6.121894   -4.505145
    100          1           0        3.397979   -6.780800   -4.104113
    101          1           0        3.429628   -5.070776   -4.515043
    102          1           0       -4.692621   -4.888161   -1.586839
    103          1           0       -4.609608   -3.090198   -1.501510
    104          1           0       -4.195829   -4.141060    1.041473
    105          1           0       -8.236094   -4.488862   -0.059276
    106          1           0       -7.021491   -4.309908   -1.337541
    107          1           0       -7.649487   -2.845688   -0.487443
    108          1           0       -5.916875   -4.947121    2.454779
    109          1           0       -7.583502   -4.346530    2.190974
    110          1           0       -6.004924   -2.009701    2.197816
    111          1           0       -5.217646   -3.100410    3.310971
    112          1           0       -6.661747   -2.387703    4.946613
    113          1           0       -7.706933   -3.598922    4.260005
    114          1           0       -8.353613   -1.690646    2.567727
    115          1           0      -10.096023   -1.008458    4.631610
    116          1           0       -9.477305   -2.440717    5.428980
    117          1           0      -10.340125   -2.565768    3.931408
    118          1           0       -6.746438   -0.302213    4.189057
    119          1           0       -8.143527    0.078793    4.863821
    120          1           0       -8.284055    1.794855    3.521935
    121          1           0       -9.124785    0.819066    2.341905
    122          1           0       -6.259621    0.463337    1.944635
    123          1           0       -6.716587    2.145585    2.192361
    124          1           0       -8.542122    1.589500    0.364335
    125          1           0       -6.301862    0.634606   -1.251008
    126          1           0       -7.912383   -0.074999   -1.233537
    127          1           0       -6.809929   -0.530114    0.095059
    128          1           0       -6.690881    2.803585   -1.251128
    129          1           0       -5.950503    2.979144    0.396320
    130          1           0       -7.381527    4.586679    0.918343
    131          1           0       -8.732262    3.567442    0.460813
    132          1           0       -6.906997    4.824987   -1.697427
    133          1           0       -7.446279    5.967322   -0.510184
    134          1           0       -9.339916    4.346596   -2.497369
    135          1           0       -9.518636    6.814968   -3.318976
    136          1           0       -8.119493    5.672328   -3.880217
    137          1           0       -7.884848    6.872445   -2.647908
    138          1           0       -9.940436    5.950643   -0.165813
    139          1           0      -10.763777    4.682099   -0.897175
    140          1           0      -10.815505    6.404381   -1.663136
 ---------------------------------------------------------------------

 SCF Done:  E(RPBE1PBE) =  -3005.33203812     A.U. after   15 cycles

 Excitation energies and oscillator strengths:

 Excited State   1:      Singlet-A      1.8268 eV  678.70 nm  f=0.3575  <S**2>=0.000
     245 -> 248        0.16700
     246 -> 247        0.69525
     246 <- 247       -0.11478
 This state for optimization and/or second-order correction.
 Total Energy, E(TD-HF/TD-DFT) =  -3005.26490442
 Copying the excited state density for this state as the 1-particle RhoCI density.

 Excited State   2:      Singlet-A      2.2163 eV  559.42 nm  f=0.1116  <S**2>=0.000
     245 -> 247        0.64745
     246 -> 248       -0.26764

 Excited State   3:      Singlet-A      2.8713 eV  431.81 nm  f=0.0028  <S**2>=0.000
     241 -> 247       -0.15709
     242 -> 247        0.50303
     242 -> 249        0.14183
     243 -> 247       -0.41923

 Excited State   4:      Singlet-A      2.8847 eV  429.79 nm  f=0.0045  <S**2>=0.000
     242 -> 247        0.44014
     243 -> 247        0.53759

 Excited State   5:      Singlet-A      2.9805 eV  415.99 nm  f=0.0028  <S**2>=0.000
     241 -> 247        0.66609
     242 -> 247        0.11424
     243 -> 247       -0.13288

 The electronic state is 1-A.
 Alpha  occ. eigenvalues --  -46.93184 -19.26347 -19.25718 -19.20639 -19.19939
 Alpha  occ. eigenvalues --  -19.19312 -19.18659 -14.42935 -14.42271 -14.39465
 Alpha  occ. eigenvalues --  -14.39047 -10.36571 -10.36378 -10.32454 -10.31718
 Alpha  occ. eigenvalues --  -10.29901 -10.29738 -10.29696 -10.29129 -10.29114
 Alpha  occ. eigenvalues --  -10.28894 -10.28813 -10.27630 -10.27451 -10.27423
 Alpha  occ. eigenvalues --  -10.27084 -10.26820 -10.26540 -10.26105 -10.26101
 Alpha  occ. eigenvalues --  -10.26066 -10.26004 -10.25490 -10.25458 -10.25431
 Alpha  occ. eigenvalues --  -10.25378 -10.25162 -10.25161 -10.24871 -10.24386
 Alpha  occ. eigenvalues --  -10.24113 -10.23754 -10.23648 -10.23491 -10.23479
 Alpha  occ. eigenvalues --  -10.23439 -10.23364 -10.23292 -10.23260 -10.23167
 Alpha  occ. eigenvalues --  -10.23131 -10.22899 -10.22644 -10.22518 -10.22496
 Alpha  occ. eigenvalues --  -10.22398 -10.22201 -10.22099 -10.22050 -10.22046
 Alpha  occ. eigenvalues --  -10.21970 -10.21951 -10.21947 -10.21852 -10.21570
 Alpha  occ. eigenvalues --  -10.21493  -3.15161  -1.88010  -1.87545  -1.87370
 Alpha  occ. eigenvalues --   -1.10871  -1.10197  -1.06905  -1.03287  -1.02564
 Alpha  occ. eigenvalues --   -1.01626  -0.99168  -0.98237  -0.97672  -0.96867
 Alpha  occ. eigenvalues --   -0.87695  -0.85059  -0.84541  -0.83874  -0.83589
 Alpha  occ. eigenvalues --   -0.83020  -0.82820  -0.81916  -0.81091  -0.80248
 Alpha  occ. eigenvalues --   -0.79874  -0.79572  -0.78897  -0.78402  -0.77843
 Alpha  occ. eigenvalues --   -0.76722  -0.76300  -0.75494  -0.75138  -0.74883
 Alpha  occ. eigenvalues --   -0.73927  -0.72413  -0.72325  -0.71656  -0.70688
 Alpha  occ. eigenvalues --   -0.69963  -0.69515  -0.69201  -0.68836  -0.68186
 Alpha  occ. eigenvalues --   -0.67443  -0.66766  -0.66141  -0.64805  -0.63987
 Alpha  occ. eigenvalues --   -0.63072  -0.62408  -0.61791  -0.61025  -0.60383
 Alpha  occ. eigenvalues --   -0.60085  -0.60018  -0.59679  -0.58964  -0.57666
 Alpha  occ. eigenvalues --   -0.57385  -0.57173  -0.56926  -0.56241  -0.54957
 Alpha  occ. eigenvalues --   -0.54253  -0.53922  -0.53784  -0.53752  -0.53492
 Alpha  occ. eigenvalues --   -0.52356  -0.51130  -0.51040  -0.50446  -0.50076
 Alpha  occ. eigenvalues --   -0.49952  -0.49562  -0.49056  -0.48864  -0.48415
 Alpha  occ. eigenvalues --   -0.48350  -0.48145  -0.47625  -0.47475  -0.47224
 Alpha  occ. eigenvalues --   -0.47122  -0.47007  -0.46779  -0.46543  -0.46236
 Alpha  occ. eigenvalues --   -0.46065  -0.45768  -0.45402  -0.45276  -0.45140
 Alpha  occ. eigenvalues --   -0.45072  -0.44877  -0.44690  -0.44498  -0.44402
 Alpha  occ. eigenvalues --   -0.44138  -0.43839  -0.43830  -0.43576  -0.43474
 Alpha  occ. eigenvalues --   -0.43275  -0.43027  -0.42915  -0.42580  -0.42407
 Alpha  occ. eigenvalues --   -0.42397  -0.42051  -0.41706  -0.41610  -0.41375
 Alpha  occ. eigenvalues --   -0.41166  -0.40683  -0.40522  -0.40450  -0.40353
 Alpha  occ. eigenvalues --   -0.40203  -0.39984  -0.39761  -0.39698  -0.39557
 Alpha  occ. eigenvalues --   -0.39481  -0.39316  -0.39187  -0.39058  -0.38762
 Alpha  occ. eigenvalues --   -0.38505  -0.38413  -0.38202  -0.38193  -0.38062
 Alpha  occ. eigenvalues --   -0.37928  -0.37781  -0.37682  -0.37259  -0.37238
 Alpha  occ. eigenvalues --   -0.37067  -0.36795  -0.36765  -0.36528  -0.36451
 Alpha  occ. eigenvalues --   -0.36347  -0.36088  -0.35384  -0.35244  -0.35181
 Alpha  occ. eigenvalues --   -0.34786  -0.34744  -0.34072  -0.33650  -0.33220
 Alpha  occ. eigenvalues --   -0.32830  -0.32621  -0.32422  -0.32413  -0.32343
 Alpha  occ. eigenvalues --   -0.32090  -0.31811  -0.31786  -0.31573  -0.31084
 Alpha  occ. eigenvalues --   -0.30806  -0.30378  -0.30114  -0.30005  -0.29958
 Alpha  occ. eigenvalues --   -0.29245  -0.29155  -0.28409  -0.27049  -0.26060
 Alpha  occ. eigenvalues --   -0.25625  -0.25428  -0.24988  -0.24396  -0.21402
 Alpha  occ. eigenvalues --   -0.19069
 Alpha virt. eigenvalues --   -0.11658  -0.05567  -0.03851  -0.02200  -0.00568
 Alpha virt. eigenvalues --    0.00135   0.00383   0.00990   0.02030   0.02455
 Alpha virt. eigenvalues --    0.03671   0.04062   0.04762   0.05034   0.05796

 Mulliken charges:
               1
     1  Mg   0.976440
     2  C   -0.071588
     3  C   -0.061229
     4  C   -0.058473
     5  C   -0.084553
     6  N   -0.376552
     7  C    0.025777
     8  C   -0.080858
     9  C   -0.131056
    10  C    0.107683
    11  C   -0.014231
    12  C    0.041988
    13  C    0.007492
    14  C    0.196714
    15  O   -0.279519
    16  O   -0.381664
    17  N   -0.466277
    18  C    0.139136
    19  C   -0.145468
    20  C   -0.107049
    21  C    0.179991
    22  C    0.052283
    23  C    0.047897
    24  O   -0.197552
    25  C   -0.031203
    26  N   -0.441743
    27  C    0.058609
    28  C   -0.132513
    29  C   -0.091041
    30  C    0.086692
    31  C    0.011985
    32  C   -0.029512
    33  C   -0.055413
    34  N   -0.468098
    35  C    0.152806
    36  C   -0.153212
    37  C   -0.018944
    38  C    0.191251
    39  C    0.061246
    40  C    0.088025
    41  O   -0.247969
    42  C   -0.076737
    43  C    0.322932
    44  O   -0.235614
    45  O   -0.382709
    46  C    0.116150
    47  C    0.248009
    48  C   -0.170207
    49  C   -0.248148
    50  C    0.033105
    51  C    0.031551
    52  C   -0.068407
    53  C    0.006520
    54  C   -0.186028
    55  C   -0.015374
    56  C   -0.024719
    57  C   -0.016820
    58  C   -0.037745
    59  C   -0.248599
    60  C    0.000043
    61  C   -0.020855
    62  C   -0.017487
    63  C   -0.023165
    64  C   -0.252473
    65  C   -0.005044
    66  C   -0.032099
    67  H    0.004180
    68  H   -0.005153
    69  H    0.011495
    70  H    0.053667
    71  H    0.045981
    72  H    0.033751
    73  H    0.047362
    74  H    0.053933
    75  H    0.058637
    76  H    0.052351
    77  H    0.066949
    78  H    0.071087
    79  H    0.053650
    80  H    0.068539
    81  H    0.032000
    82  H    0.060723
    83  H    0.044686
    84  H    0.075066
    85  H    0.050695
    86  H    0.042573
    87  H    0.036160
    88  H    0.056584
    89  H    0.048563
    90  H    0.030860
    91  H    0.044912
    92  H    0.044251
    93  H    0.030072
    94  H    0.046887
    95  H    0.040552
    96  H    0.054409
    97  H    0.066501
    98  H    0.070789
    99  H    0.051894
   100  H    0.057656
   101  H    0.067545
   102  H    0.058260
   103  H    0.070455
   104  H    0.029325
   105  H    0.046184
   106  H    0.040790
   107  H    0.055311
   108  H    0.049543
   109  H    0.020692
   110  H    0.055707
   111  H    0.024974
   112  H    0.023490
   113  H    0.026198
   114  H    0.024833
   115  H    0.028999
   116  H    0.037131
   117  H    0.032610
   118  H    0.014338
   119  H    0.005031
   120  H    0.030684
   121  H    0.028653
   122  H    0.037185
   123  H    0.020430
   124  H    0.022118
   125  H    0.036382
   126  H    0.041205
   127  H    0.048021
   128  H    0.032511
   129  H    0.036069
   130  H    0.019445
   131  H    0.031393
   132  H    0.028450
   133  H    0.031691
   134  H    0.035210
   135  H    0.037046
   136  H    0.044179
   137  H    0.024170
   138  H    0.024697
   139  H    0.038798
   140  H    0.041603
 Sum of Mulliken charges =  -0.00000

 Dipole moment (field-independent basis, Debye):
    X=              0.7854    Y=              3.0792    Z=              2.0146  Tot=              3.7626
 Quadrupole moment (field-independent basis, Debye-Ang):
   XX=           -373.2731   YY=           -439.1570   ZZ=           -382.8229
   XY=             38.3536   XZ=             14.4616   YZ=             20.7485

 Normal termination of Gaussian 16 at Thu Apr 28 21:34:53 2022.
