 Gaussian 16, Revision A.03,
 Gaussian 16:  ES64L-G16RevA.03 25-Dec-2016

 --------------------------------
 #p wB97XD/Def2SVP td=(nstates=5)
 --------------------------------

 -----------------------------------------------------
 step_1751_chromophore_17 TDDFT with wB97XD functional
 -----------------------------------------------------
 Symbolic Z-matrix:
 Charge =  0 Multiplicity = 1

                         Standard orientation:
 ---------------------------------------------------------------------
 Center     Atomic      Atomic             Coordinates (Angstroms)
 Number     Number       Type             X           Y           Z
 ---------------------------------------------------------------------
      1         12           0        4.529131    0.707934   -0.389441
      2          6           0        3.325261   -2.625269   -0.910640
      3          6           0        2.029502    1.833632   -2.515337
      4          6           0        5.059779    3.887534    0.737262
      5          6           0        6.501049   -0.573728    2.303934
      6          7           0        2.919329   -0.312825   -1.645086
      7          6           0        2.574338   -1.658208   -1.611957
      8          6           0        1.233928   -1.917779   -2.465642
      9          6           0        1.121855   -0.470598   -3.135723
     10          6           0        2.049418    0.435220   -2.368961
     11          6           0        1.384303   -0.393046   -4.668469
     12          6           0        0.004933   -2.361329   -1.588380
     13          6           0       -0.591962   -3.694254   -1.927723
     14          6           0       -2.127507   -3.655052   -2.106407
     15          8           0       -2.747392   -3.170538   -3.054266
     16          8           0       -2.809572   -4.200608   -1.020431
     17          7           0        3.698287    2.614219   -0.945375
     18          6           0        2.701887    2.849955   -1.803152
     19          6           0        2.419738    4.266991   -1.866999
     20          6           0        3.336737    4.873614   -0.958396
     21          6           0        4.076944    3.803376   -0.319342
     22          6           0        1.347780    4.912288   -2.840168
     23          6           0        3.544489    6.409322   -0.805129
     24          8           0        2.868426    7.180417   -1.408780
     25          6           0        4.659690    6.994879    0.029185
     26          7           0        5.586412    1.476435    1.138966
     27          6           0        5.744976    2.805270    1.380466
     28          6           0        6.829729    3.193246    2.437194
     29          6           0        7.097125    1.831986    3.054186
     30          6           0        6.356188    0.840941    2.093514
     31          6           0        8.085503    3.819245    1.811390
     32          6           0        6.547365    1.702872    4.493118
     33          6           0        7.208700    2.593113    5.535423
     34          7           0        5.140993   -1.222331    0.393351
     35          6           0        5.882955   -1.545354    1.534900
     36          6           0        5.792336   -2.993813    1.734665
     37          6           0        4.800484   -3.422477    0.800651
     38          6           0        4.444704   -2.334039    0.016128
     39          6           0        6.484284   -3.740384    2.867741
     40          6           0        4.051932   -4.545719    0.358431
     41          8           0        4.102072   -5.720540    0.782351
     42          6           0        3.136554   -4.089232   -0.832909
     43          6           0        3.630519   -4.733528   -2.017062
     44          8           0        4.735880   -4.570146   -2.487183
     45          8           0        2.562993   -5.425529   -2.590038
     46          6           0        2.858562   -5.840214   -3.995521
     47          6           0       -4.277070   -4.029267   -1.059222
     48          6           0       -4.960684   -3.995969    0.278462
     49          6           0       -6.230438   -3.919053    0.609450
     50          6           0       -7.383568   -3.898468   -0.395168
     51          6           0       -6.523254   -4.132378    2.058456
     52          6           0       -6.183747   -2.843296    2.876845
     53          6           0       -7.183003   -2.671025    4.032292
     54          6           0       -8.247890   -1.670586    3.652492
     55          6           0       -9.599509   -1.963471    4.456594
     56          6           0       -7.791665   -0.249233    3.885119
     57          6           0       -8.187534    0.911644    2.889933
     58          6           0       -7.076275    1.177864    1.841702
     59          6           0       -7.459192    1.469960    0.311967
     60          6           0       -7.091515    0.260199   -0.599335
     61          6           0       -6.868840    2.852312   -0.176161
     62          6           0       -7.814934    4.026184    0.090086
     63          6           0       -7.737382    5.053422   -1.029501
     64          6           0       -8.941209    5.211450   -1.967574
     65          6           0       -8.635714    6.218421   -3.090655
     66          6           0      -10.262966    5.615949   -1.151926
     67          1           0        1.235534    2.205560   -3.167342
     68          1           0        5.494031    4.847305    1.023376
     69          1           0        7.082646   -0.861921    3.181629
     70          1           0        1.404738   -2.690966   -3.215274
     71          1           0        0.136384   -0.005335   -3.161654
     72          1           0        2.022292   -1.235510   -4.936937
     73          1           0        1.943806    0.469345   -5.030412
     74          1           0        0.461464   -0.465326   -5.242289
     75          1           0       -0.726511   -1.553384   -1.593705
     76          1           0        0.374120   -2.371888   -0.562174
     77          1           0       -0.494517   -4.425449   -1.125036
     78          1           0       -0.256913   -4.158683   -2.855176
     79          1           0        1.815727    5.787889   -3.289753
     80          1           0        0.389855    5.228202   -2.429124
     81          1           0        1.195862    4.349775   -3.761322
     82          1           0        4.481894    6.646970    1.046495
     83          1           0        4.551283    8.077735    0.088381
     84          1           0        5.681199    6.854062   -0.326036
     85          1           0        6.404859    3.959674    3.084355
     86          1           0        8.155070    1.573095    3.008960
     87          1           0        8.021863    4.860416    2.128769
     88          1           0        8.067334    3.782403    0.722407
     89          1           0        9.044522    3.468415    2.192808
     90          1           0        6.753336    0.660630    4.738423
     91          1           0        5.477917    1.858146    4.636432
     92          1           0        6.514010    3.282266    6.015265
     93          1           0        7.959111    3.227666    5.064009
     94          1           0        7.712665    2.008314    6.304720
     95          1           0        6.535111   -3.084816    3.736860
     96          1           0        7.520005   -4.017949    2.673305
     97          1           0        5.928439   -4.665149    3.025571
     98          1           0        2.094528   -4.302079   -0.593376
     99          1           0        1.936792   -6.121894   -4.505145
    100          1           0        3.397979   -6.780800   -4.104113
    101          1           0        3.429628   -5.070776   -4.515043
    102          1           0       -4.692621   -4.888161   -1.586839
    103          1           0       -4.609608   -3.090198   -1.501510
    104          1           0       -4.195829   -4.141060    1.041473
    105          1           0       -8.236094   -4.488862   -0.059276
    106          1           0       -7.021491   -4.309908   -1.337541
    107          1           0       -7.649487   -2.845688   -0.487443
    108          1           0       -5.916875   -4.947121    2.454779
    109          1           0       -7.583502   -4.346530    2.190974
    110          1           0       -6.004924   -2.009701    2.197816
    111          1           0       -5.217646   -3.100410    3.310971
    112          1           0       -6.661747   -2.387703    4.946613
    113          1           0       -7.706933   -3.598922    4.260005
    114          1           0       -8.353613   -1.690646    2.567727
    115          1           0      -10.096023   -1.008458    4.631610
    116          1           0       -9.477305   -2.440717    5.428980
    117          1           0      -10.340125   -2.565768    3.931408
    118          1           0       -6.746438   -0.302213    4.189057
    119          1           0       -8.143527    0.078793    4.863821
    120          1           0       -8.284055    1.794855    3.521935
    121          1           0       -9.124785    0.819066    2.341905
    122          1           0       -6.259621    0.463337    1.944635
    123          1           0       -6.716587    2.145585    2.192361
    124          1           0       -8.542122    1.589500    0.364335
    125          1           0       -6.301862    0.634606   -1.251008
    126          1           0       -7.912383   -0.074999   -1.233537
    127          1           0       -6.809929   -0.530114    0.095059
    128          1           0       -6.690881    2.803585   -1.251128
    129          1           0       -5.950503    2.979144    0.396320
    130          1           0       -7.381527    4.586679    0.918343
    131          1           0       -8.732262    3.567442    0.460813
    132          1           0       -6.906997    4.824987   -1.697427
    133          1           0       -7.446279    5.967322   -0.510184
    134          1           0       -9.339916    4.346596   -2.497369
    135          1           0       -9.518636    6.814968   -3.318976
    136          1           0       -8.119493    5.672328   -3.880217
    137          1           0       -7.884848    6.872445   -2.647908
    138          1           0       -9.940436    5.950643   -0.165813
    139          1           0      -10.763777    4.682099   -0.897175
    140          1           0      -10.815505    6.404381   -1.663136
 ---------------------------------------------------------------------

 SCF Done:  E(RwB97XD) =  -3007.84119475     A.U. after   20 cycles

 Excitation energies and oscillator strengths:

 Excited State   1:      Singlet-A      1.6203 eV  765.21 nm  f=0.3722  <S**2>=0.000
     245 -> 248        0.17537
     246 -> 247        0.68590
     245 <- 248        0.11644
 This state for optimization and/or second-order correction.
 Total Energy, E(TD-HF/TD-DFT) =  -3007.78165086
 Copying the excited state density for this state as the 1-particle RhoCI density.

 Excited State   2:      Singlet-A      2.1492 eV  576.88 nm  f=0.1111  <S**2>=0.000
     245 -> 247        0.63415
     246 -> 248       -0.29646

 Excited State   3:      Singlet-A      3.2627 eV  380.01 nm  f=0.0057  <S**2>=0.000
     241 -> 247       -0.29259
     242 -> 247        0.26139
     243 -> 247        0.56302

 Excited State   4:      Singlet-A      3.3686 eV  368.06 nm  f=0.0128  <S**2>=0.000
     241 -> 247        0.49017
     242 -> 247       -0.19613
     243 -> 247        0.36090
     246 -> 248       -0.23401

 Excited State   5:      Singlet-A      3.4502 eV  359.36 nm  f=0.0637  <S**2>=0.000
     241 -> 247        0.19283
     241 -> 249        0.13891
     242 -> 247        0.47441
     242 -> 249        0.29848
     242 -> 250        0.14411
     243 -> 247       -0.11411
     246 -> 248       -0.20719

 The electronic state is 1-A.
 Alpha  occ. eigenvalues --  -46.96121 -19.30881 -19.30245 -19.25316 -19.24588
 Alpha  occ. eigenvalues --  -19.24311 -19.23266 -14.48019 -14.47375 -14.44566
 Alpha  occ. eigenvalues --  -14.43822 -10.43307 -10.43176 -10.39441 -10.38412
 Alpha  occ. eigenvalues --  -10.36217 -10.36068 -10.35715 -10.35655 -10.35630
 Alpha  occ. eigenvalues --  -10.35593 -10.35274 -10.34321 -10.33693 -10.33398
 Alpha  occ. eigenvalues --  -10.33319 -10.33148 -10.33073 -10.32380 -10.32297
 Alpha  occ. eigenvalues --  -10.32218 -10.32215 -10.31993 -10.31875 -10.31833
 Alpha  occ. eigenvalues --  -10.31772 -10.31719 -10.31462 -10.31398 -10.30628
 Alpha  occ. eigenvalues --  -10.30538 -10.30437 -10.30180 -10.30084 -10.29757
 Alpha  occ. eigenvalues --  -10.29742 -10.29722 -10.29635 -10.29611 -10.29464
 Alpha  occ. eigenvalues --  -10.29419 -10.29283 -10.28890 -10.28883 -10.28759
 Alpha  occ. eigenvalues --  -10.28697 -10.28584 -10.28466 -10.28418 -10.28411
 Alpha  occ. eigenvalues --  -10.28386 -10.28336 -10.28334 -10.28291 -10.27996
 Alpha  occ. eigenvalues --  -10.27930  -3.21980  -1.95576  -1.95106  -1.94932
 Alpha  occ. eigenvalues --   -1.18250  -1.17549  -1.14536  -1.10626  -1.09881
 Alpha  occ. eigenvalues --   -1.08947  -1.06588  -1.05767  -1.05093  -1.04088
 Alpha  occ. eigenvalues --   -0.95208  -0.92718  -0.92088  -0.91523  -0.91260
 Alpha  occ. eigenvalues --   -0.90683  -0.90523  -0.89524  -0.88770  -0.87889
 Alpha  occ. eigenvalues --   -0.87500  -0.87296  -0.86445  -0.86066  -0.85515
 Alpha  occ. eigenvalues --   -0.84375  -0.84026  -0.83238  -0.82769  -0.82518
 Alpha  occ. eigenvalues --   -0.81598  -0.80026  -0.79881  -0.79434  -0.78298
 Alpha  occ. eigenvalues --   -0.77643  -0.77168  -0.76923  -0.76527  -0.75852
 Alpha  occ. eigenvalues --   -0.74945  -0.74331  -0.73709  -0.72427  -0.71524
 Alpha  occ. eigenvalues --   -0.70536  -0.70033  -0.69453  -0.68680  -0.67881
 Alpha  occ. eigenvalues --   -0.67694  -0.67548  -0.67177  -0.66416  -0.65127
 Alpha  occ. eigenvalues --   -0.65028  -0.64864  -0.64309  -0.63889  -0.62439
 Alpha  occ. eigenvalues --   -0.61735  -0.61323  -0.61293  -0.61193  -0.60934
 Alpha  occ. eigenvalues --   -0.59672  -0.58670  -0.58456  -0.57806  -0.57483
 Alpha  occ. eigenvalues --   -0.57320  -0.56940  -0.56408  -0.56263  -0.55902
 Alpha  occ. eigenvalues --   -0.55625  -0.55508  -0.55018  -0.54878  -0.54730
 Alpha  occ. eigenvalues --   -0.54547  -0.54414  -0.54127  -0.53906  -0.53590
 Alpha  occ. eigenvalues --   -0.53384  -0.53172  -0.52734  -0.52588  -0.52547
 Alpha  occ. eigenvalues --   -0.52488  -0.52247  -0.52032  -0.51857  -0.51785
 Alpha  occ. eigenvalues --   -0.51609  -0.51162  -0.51085  -0.50843  -0.50671
 Alpha  occ. eigenvalues --   -0.50540  -0.50304  -0.50129  -0.49828  -0.49693
 Alpha  occ. eigenvalues --   -0.49685  -0.49324  -0.49000  -0.48853  -0.48595
 Alpha  occ. eigenvalues --   -0.48424  -0.47897  -0.47769  -0.47666  -0.47581
 Alpha  occ. eigenvalues --   -0.47411  -0.47218  -0.46910  -0.46819  -0.46756
 Alpha  occ. eigenvalues --   -0.46580  -0.46496  -0.46434  -0.46178  -0.45917
 Alpha  occ. eigenvalues --   -0.45629  -0.45609  -0.45450  -0.45386  -0.45264
 Alpha  occ. eigenvalues --   -0.45052  -0.44935  -0.44750  -0.44448  -0.44371
 Alpha  occ. eigenvalues --   -0.44177  -0.43929  -0.43909  -0.43579  -0.43538
 Alpha  occ. eigenvalues --   -0.43367  -0.43112  -0.42454  -0.42275  -0.42235
 Alpha  occ. eigenvalues --   -0.41776  -0.41670  -0.41167  -0.40592  -0.40297
 Alpha  occ. eigenvalues --   -0.39765  -0.39623  -0.39488  -0.39462  -0.39317
 Alpha  occ. eigenvalues --   -0.39006  -0.38886  -0.38795  -0.38600  -0.38081
 Alpha  occ. eigenvalues --   -0.37789  -0.37369  -0.37125  -0.37106  -0.36736
 Alpha  occ. eigenvalues --   -0.36051  -0.35859  -0.35476  -0.33669  -0.33246
 Alpha  occ. eigenvalues --   -0.32599  -0.32334  -0.31296  -0.31154  -0.26422
 Alpha  occ. eigenvalues --   -0.23221
 Alpha virt. eigenvalues --   -0.07595  -0.00160   0.02498   0.04331   0.05520
 Alpha virt. eigenvalues --    0.06861   0.07227   0.07686   0.08734   0.08892
 Alpha virt. eigenvalues --    0.10160   0.10928   0.11457   0.11561   0.12593

 Mulliken charges:
               1
     1  Mg   0.968528
     2  C   -0.070185
     3  C   -0.082823
     4  C   -0.075026
     5  C   -0.100027
     6  N   -0.343559
     7  C   -0.007805
     8  C   -0.053264
     9  C   -0.107442
    10  C    0.097581
    11  C   -0.005555
    12  C    0.048895
    13  C    0.024043
    14  C    0.187189
    15  O   -0.277794
    16  O   -0.381105
    17  N   -0.434232
    18  C    0.136792
    19  C   -0.142399
    20  C   -0.098481
    21  C    0.178768
    22  C    0.065084
    23  C    0.043814
    24  O   -0.192636
    25  C   -0.018524
    26  N   -0.410160
    27  C    0.050213
    28  C   -0.110254
    29  C   -0.059398
    30  C    0.070554
    31  C    0.018874
    32  C   -0.015587
    33  C   -0.041043
    34  N   -0.431884
    35  C    0.144068
    36  C   -0.158179
    37  C   -0.009752
    38  C    0.165638
    39  C    0.072778
    40  C    0.070155
    41  O   -0.239739
    42  C   -0.024707
    43  C    0.295181
    44  O   -0.231076
    45  O   -0.381710
    46  C    0.131769
    47  C    0.261036
    48  C   -0.182941
    49  C   -0.229785
    50  C    0.053355
    51  C    0.047859
    52  C   -0.043735
    53  C    0.024548
    54  C   -0.154836
    55  C   -0.001996
    56  C   -0.012574
    57  C    0.001090
    58  C   -0.021367
    59  C   -0.220440
    60  C    0.025306
    61  C   -0.001549
    62  C   -0.005044
    63  C   -0.002278
    64  C   -0.228455
    65  C    0.009259
    66  C   -0.019398
    67  H   -0.003040
    68  H   -0.016645
    69  H    0.005713
    70  H    0.038052
    71  H    0.036395
    72  H    0.027199
    73  H    0.041397
    74  H    0.050021
    75  H    0.052074
    76  H    0.044699
    77  H    0.062302
    78  H    0.065848
    79  H    0.049403
    80  H    0.066771
    81  H    0.028187
    82  H    0.055241
    83  H    0.043768
    84  H    0.071767
    85  H    0.041151
    86  H    0.032443
    87  H    0.030473
    88  H    0.050736
    89  H    0.044272
    90  H    0.020613
    91  H    0.038003
    92  H    0.038507
    93  H    0.021071
    94  H    0.042133
    95  H    0.033207
    96  H    0.048743
    97  H    0.062178
    98  H    0.059611
    99  H    0.048392
   100  H    0.053644
   101  H    0.063241
   102  H    0.052472
   103  H    0.064652
   104  H    0.025771
   105  H    0.041756
   106  H    0.034914
   107  H    0.045301
   108  H    0.042797
   109  H    0.009425
   110  H    0.035201
   111  H    0.017426
   112  H    0.015745
   113  H    0.016490
   114  H    0.006996
   115  H    0.021638
   116  H    0.031634
   117  H    0.027322
   118  H    0.004579
   119  H   -0.004249
   120  H    0.024055
   121  H    0.020189
   122  H    0.025531
   123  H    0.009226
   124  H    0.005933
   125  H    0.030044
   126  H    0.035963
   127  H    0.029495
   128  H    0.020808
   129  H    0.026643
   130  H    0.011629
   131  H    0.021321
   132  H    0.017653
   133  H    0.023703
   134  H    0.025185
   135  H    0.031570
   136  H    0.038531
   137  H    0.015858
   138  H    0.016433
   139  H    0.032803
   140  H    0.036354
 Sum of Mulliken charges =  -0.00000

 Dipole moment (field-independent basis, Debye):
    X=              0.5903    Y=              3.6022    Z=              1.7474  Tot=              4.0469
 Quadrupole moment (field-independent basis, Debye-Ang):
   XX=           -374.5593   YY=           -437.0478   ZZ=           -382.7543
   XY=             40.4836   XZ=             13.0066   YZ=             20.5294

 Normal termination of Gaussian 16 at Thu Apr 28 21:59:45 2022.
