 Gaussian 16, Revision A.03,
 Gaussian 16:  ES64L-G16RevA.03 25-Dec-2016

 --------------------
 #p ZINDO=(nstates=5)
 --------------------

 ------------------------------
 step_1751_chromophore_17 ZINDO
 ------------------------------
 Symbolic Z-matrix:
 Charge =  0 Multiplicity = 1

                         Standard orientation:
 ---------------------------------------------------------------------
 Center     Atomic      Atomic             Coordinates (Angstroms)
 Number     Number       Type             X           Y           Z
 ---------------------------------------------------------------------
      1         12           0        4.529131    0.707934   -0.389441
      2          6           0        3.325261   -2.625269   -0.910640
      3          6           0        2.029502    1.833632   -2.515337
      4          6           0        5.059779    3.887534    0.737262
      5          6           0        6.501049   -0.573728    2.303934
      6          7           0        2.919329   -0.312825   -1.645086
      7          6           0        2.574338   -1.658208   -1.611957
      8          6           0        1.233928   -1.917779   -2.465642
      9          6           0        1.121855   -0.470598   -3.135723
     10          6           0        2.049418    0.435220   -2.368961
     11          6           0        1.384303   -0.393046   -4.668469
     12          6           0        0.004933   -2.361329   -1.588380
     13          6           0       -0.591962   -3.694254   -1.927723
     14          6           0       -2.127507   -3.655052   -2.106407
     15          8           0       -2.747392   -3.170538   -3.054266
     16          8           0       -2.809572   -4.200608   -1.020431
     17          7           0        3.698287    2.614219   -0.945375
     18          6           0        2.701887    2.849955   -1.803152
     19          6           0        2.419738    4.266991   -1.866999
     20          6           0        3.336737    4.873614   -0.958396
     21          6           0        4.076944    3.803376   -0.319342
     22          6           0        1.347780    4.912288   -2.840168
     23          6           0        3.544489    6.409322   -0.805129
     24          8           0        2.868426    7.180417   -1.408780
     25          6           0        4.659690    6.994879    0.029185
     26          7           0        5.586412    1.476435    1.138966
     27          6           0        5.744976    2.805270    1.380466
     28          6           0        6.829729    3.193246    2.437194
     29          6           0        7.097125    1.831986    3.054186
     30          6           0        6.356188    0.840941    2.093514
     31          6           0        8.085503    3.819245    1.811390
     32          6           0        6.547365    1.702872    4.493118
     33          6           0        7.208700    2.593113    5.535423
     34          7           0        5.140993   -1.222331    0.393351
     35          6           0        5.882955   -1.545354    1.534900
     36          6           0        5.792336   -2.993813    1.734665
     37          6           0        4.800484   -3.422477    0.800651
     38          6           0        4.444704   -2.334039    0.016128
     39          6           0        6.484284   -3.740384    2.867741
     40          6           0        4.051932   -4.545719    0.358431
     41          8           0        4.102072   -5.720540    0.782351
     42          6           0        3.136554   -4.089232   -0.832909
     43          6           0        3.630519   -4.733528   -2.017062
     44          8           0        4.735880   -4.570146   -2.487183
     45          8           0        2.562993   -5.425529   -2.590038
     46          6           0        2.858562   -5.840214   -3.995521
     47          6           0       -4.277070   -4.029267   -1.059222
     48          6           0       -4.960684   -3.995969    0.278462
     49          6           0       -6.230438   -3.919053    0.609450
     50          6           0       -7.383568   -3.898468   -0.395168
     51          6           0       -6.523254   -4.132378    2.058456
     52          6           0       -6.183747   -2.843296    2.876845
     53          6           0       -7.183003   -2.671025    4.032292
     54          6           0       -8.247890   -1.670586    3.652492
     55          6           0       -9.599509   -1.963471    4.456594
     56          6           0       -7.791665   -0.249233    3.885119
     57          6           0       -8.187534    0.911644    2.889933
     58          6           0       -7.076275    1.177864    1.841702
     59          6           0       -7.459192    1.469960    0.311967
     60          6           0       -7.091515    0.260199   -0.599335
     61          6           0       -6.868840    2.852312   -0.176161
     62          6           0       -7.814934    4.026184    0.090086
     63          6           0       -7.737382    5.053422   -1.029501
     64          6           0       -8.941209    5.211450   -1.967574
     65          6           0       -8.635714    6.218421   -3.090655
     66          6           0      -10.262966    5.615949   -1.151926
     67          1           0        1.235534    2.205560   -3.167342
     68          1           0        5.494031    4.847305    1.023376
     69          1           0        7.082646   -0.861921    3.181629
     70          1           0        1.404738   -2.690966   -3.215274
     71          1           0        0.136384   -0.005335   -3.161654
     72          1           0        2.022292   -1.235510   -4.936937
     73          1           0        1.943806    0.469345   -5.030412
     74          1           0        0.461464   -0.465326   -5.242289
     75          1           0       -0.726511   -1.553384   -1.593705
     76          1           0        0.374120   -2.371888   -0.562174
     77          1           0       -0.494517   -4.425449   -1.125036
     78          1           0       -0.256913   -4.158683   -2.855176
     79          1           0        1.815727    5.787889   -3.289753
     80          1           0        0.389855    5.228202   -2.429124
     81          1           0        1.195862    4.349775   -3.761322
     82          1           0        4.481894    6.646970    1.046495
     83          1           0        4.551283    8.077735    0.088381
     84          1           0        5.681199    6.854062   -0.326036
     85          1           0        6.404859    3.959674    3.084355
     86          1           0        8.155070    1.573095    3.008960
     87          1           0        8.021863    4.860416    2.128769
     88          1           0        8.067334    3.782403    0.722407
     89          1           0        9.044522    3.468415    2.192808
     90          1           0        6.753336    0.660630    4.738423
     91          1           0        5.477917    1.858146    4.636432
     92          1           0        6.514010    3.282266    6.015265
     93          1           0        7.959111    3.227666    5.064009
     94          1           0        7.712665    2.008314    6.304720
     95          1           0        6.535111   -3.084816    3.736860
     96          1           0        7.520005   -4.017949    2.673305
     97          1           0        5.928439   -4.665149    3.025571
     98          1           0        2.094528   -4.302079   -0.593376
     99          1           0        1.936792   -6.121894   -4.505145
    100          1           0        3.397979   -6.780800   -4.104113
    101          1           0        3.429628   -5.070776   -4.515043
    102          1           0       -4.692621   -4.888161   -1.586839
    103          1           0       -4.609608   -3.090198   -1.501510
    104          1           0       -4.195829   -4.141060    1.041473
    105          1           0       -8.236094   -4.488862   -0.059276
    106          1           0       -7.021491   -4.309908   -1.337541
    107          1           0       -7.649487   -2.845688   -0.487443
    108          1           0       -5.916875   -4.947121    2.454779
    109          1           0       -7.583502   -4.346530    2.190974
    110          1           0       -6.004924   -2.009701    2.197816
    111          1           0       -5.217646   -3.100410    3.310971
    112          1           0       -6.661747   -2.387703    4.946613
    113          1           0       -7.706933   -3.598922    4.260005
    114          1           0       -8.353613   -1.690646    2.567727
    115          1           0      -10.096023   -1.008458    4.631610
    116          1           0       -9.477305   -2.440717    5.428980
    117          1           0      -10.340125   -2.565768    3.931408
    118          1           0       -6.746438   -0.302213    4.189057
    119          1           0       -8.143527    0.078793    4.863821
    120          1           0       -8.284055    1.794855    3.521935
    121          1           0       -9.124785    0.819066    2.341905
    122          1           0       -6.259621    0.463337    1.944635
    123          1           0       -6.716587    2.145585    2.192361
    124          1           0       -8.542122    1.589500    0.364335
    125          1           0       -6.301862    0.634606   -1.251008
    126          1           0       -7.912383   -0.074999   -1.233537
    127          1           0       -6.809929   -0.530114    0.095059
    128          1           0       -6.690881    2.803585   -1.251128
    129          1           0       -5.950503    2.979144    0.396320
    130          1           0       -7.381527    4.586679    0.918343
    131          1           0       -8.732262    3.567442    0.460813
    132          1           0       -6.906997    4.824987   -1.697427
    133          1           0       -7.446279    5.967322   -0.510184
    134          1           0       -9.339916    4.346596   -2.497369
    135          1           0       -9.518636    6.814968   -3.318976
    136          1           0       -8.119493    5.672328   -3.880217
    137          1           0       -7.884848    6.872445   -2.647908
    138          1           0       -9.940436    5.950643   -0.165813
    139          1           0      -10.763777    4.682099   -0.897175
    140          1           0      -10.815505    6.404381   -1.663136
 ---------------------------------------------------------------------

 SCF Done:  E(RZINDO/S) =  -474.083125414     A.U. after   20 cycles

 Excitation energies and oscillator strengths:

 Excited State   1:      Singlet-A      1.2408 eV  999.26 nm  f=0.5837  <S**2>=0.000
     175 ->178         0.17482
     176 ->177         0.66794
 This state for optimization and/or second-order correction.
 Total Energy, E(CIS/TDA) =  -474.037528398
 Copying the excited state density for this state as the 1-particle RhoCI density.

 Excited State   2:      Singlet-A      1.9115 eV  648.63 nm  f=0.0385  <S**2>=0.000
     175 ->177         0.54072
     176 ->178        -0.42767

 Excited State   3:      Singlet-A      2.9739 eV  416.90 nm  f=0.7215  <S**2>=0.000
     170 ->177        -0.15216
     170 ->179         0.20389
     170 ->180         0.12369
     171 ->177        -0.10483
     175 ->177         0.32480
     176 ->178         0.43487
     176 ->179         0.20000

 Excited State   4:      Singlet-A      2.9877 eV  414.98 nm  f=0.0870  <S**2>=0.000
     170 ->177         0.23837
     170 ->179        -0.32576
     170 ->180        -0.20202
     170 ->184        -0.12519
     170 ->185         0.13161
     170 ->187        -0.13041
     175 ->177         0.10764
     176 ->178         0.14461
     176 ->179         0.36289

 Excited State   5:      Singlet-A      3.0078 eV  412.20 nm  f=0.0022  <S**2>=0.000
     168 ->177         0.27455
     168 ->178        -0.14713
     168 ->179         0.29077
     168 ->180        -0.37386
     168 ->181        -0.12225
     168 ->185        -0.27048
     168 ->192         0.10547
     171 ->177        -0.10529

 The electronic state is 1-A.
 Alpha  occ. eigenvalues --   -1.82545  -1.80858  -1.79241  -1.72282  -1.71751
 Alpha  occ. eigenvalues --   -1.69931  -1.65564  -1.61913  -1.61847  -1.57959
 Alpha  occ. eigenvalues --   -1.54901  -1.51780  -1.48906  -1.47580  -1.47505
 Alpha  occ. eigenvalues --   -1.43825  -1.42561  -1.40319  -1.38492  -1.37796
 Alpha  occ. eigenvalues --   -1.35322  -1.33223  -1.32020  -1.31126  -1.28366
 Alpha  occ. eigenvalues --   -1.28055  -1.27042  -1.22929  -1.21307  -1.18218
 Alpha  occ. eigenvalues --   -1.16569  -1.16165  -1.15948  -1.14975  -1.14124
 Alpha  occ. eigenvalues --   -1.13300  -1.10487  -1.09321  -1.05228  -1.04160
 Alpha  occ. eigenvalues --   -1.01526  -1.00945  -0.98687  -0.98491  -0.95949
 Alpha  occ. eigenvalues --   -0.94438  -0.94078  -0.93809  -0.93473  -0.91761
 Alpha  occ. eigenvalues --   -0.91654  -0.91291  -0.89766  -0.88554  -0.86136
 Alpha  occ. eigenvalues --   -0.85861  -0.84630  -0.83449  -0.82437  -0.80415
 Alpha  occ. eigenvalues --   -0.79471  -0.78909  -0.77286  -0.76853  -0.76485
 Alpha  occ. eigenvalues --   -0.76405  -0.75520  -0.73963  -0.73779  -0.73500
 Alpha  occ. eigenvalues --   -0.73260  -0.72121  -0.71933  -0.71387  -0.71034
 Alpha  occ. eigenvalues --   -0.69889  -0.69608  -0.69224  -0.69001  -0.68698
 Alpha  occ. eigenvalues --   -0.67977  -0.67537  -0.67368  -0.66350  -0.65699
 Alpha  occ. eigenvalues --   -0.65601  -0.64744  -0.64524  -0.64426  -0.63825
 Alpha  occ. eigenvalues --   -0.63123  -0.62704  -0.62520  -0.62079  -0.61908
 Alpha  occ. eigenvalues --   -0.61434  -0.61304  -0.61082  -0.60923  -0.60433
 Alpha  occ. eigenvalues --   -0.59302  -0.58997  -0.58754  -0.58504  -0.57839
 Alpha  occ. eigenvalues --   -0.57596  -0.57209  -0.57146  -0.56508  -0.56154
 Alpha  occ. eigenvalues --   -0.55936  -0.55744  -0.55418  -0.55304  -0.54823
 Alpha  occ. eigenvalues --   -0.54504  -0.53987  -0.53728  -0.53231  -0.53059
 Alpha  occ. eigenvalues --   -0.52488  -0.52427  -0.52303  -0.51899  -0.51761
 Alpha  occ. eigenvalues --   -0.51530  -0.51368  -0.51167  -0.50842  -0.50470
 Alpha  occ. eigenvalues --   -0.50284  -0.50127  -0.49811  -0.49388  -0.49208
 Alpha  occ. eigenvalues --   -0.49140  -0.48851  -0.48379  -0.48071  -0.47984
 Alpha  occ. eigenvalues --   -0.47514  -0.47433  -0.47055  -0.47008  -0.46759
 Alpha  occ. eigenvalues --   -0.46379  -0.46309  -0.45996  -0.45594  -0.45332
 Alpha  occ. eigenvalues --   -0.45250  -0.45016  -0.44441  -0.43868  -0.43764
 Alpha  occ. eigenvalues --   -0.43555  -0.43428  -0.43338  -0.42751  -0.42336
 Alpha  occ. eigenvalues --   -0.42058  -0.41914  -0.41643  -0.38969  -0.38788
 Alpha  occ. eigenvalues --   -0.38567  -0.37697  -0.35962  -0.35147  -0.34513
 Alpha  occ. eigenvalues --   -0.33926  -0.32677  -0.31905  -0.31601  -0.27130
 Alpha  occ. eigenvalues --   -0.22052
 Alpha virt. eigenvalues --   -0.08947  -0.02482  -0.00695   0.01167   0.01372
 Alpha virt. eigenvalues --    0.01616   0.02382   0.02830   0.04156   0.05434
 Alpha virt. eigenvalues --    0.05675   0.06002   0.06508   0.07221   0.07970

 Mulliken charges:
               1
     1  Mg   0.433957
     2  C   -0.027524
     3  C   -0.088904
     4  C   -0.104812
     5  C   -0.053692
     6  N   -0.289775
     7  C    0.085436
     8  C   -0.000203
     9  C    0.005849
    10  C    0.174193
    11  C   -0.049177
    12  C   -0.009451
    13  C    0.017074
    14  C    0.458669
    15  O   -0.526790
    16  O   -0.273452
    17  N   -0.331519
    18  C    0.152066
    19  C    0.033002
    20  C   -0.035198
    21  C    0.128879
    22  C   -0.043429
    23  C    0.329726
    24  O   -0.496278
    25  C   -0.029796
    26  N   -0.245192
    27  C    0.147254
    28  C    0.005499
    29  C    0.008728
    30  C    0.077304
    31  C   -0.050975
    32  C   -0.027119
    33  C   -0.058393
    34  N   -0.332074
    35  C    0.076956
    36  C    0.014287
    37  C   -0.045401
    38  C    0.108283
    39  C   -0.038745
    40  C    0.330330
    41  O   -0.548058
    42  C    0.069638
    43  C    0.505985
    44  O   -0.515224
    45  O   -0.278639
    46  C    0.066859
    47  C    0.101440
    48  C   -0.082924
    49  C   -0.015520
    50  C   -0.044525
    51  C   -0.022212
    52  C   -0.036596
    53  C   -0.025016
    54  C   -0.004335
    55  C   -0.063146
    56  C   -0.038861
    57  C   -0.032101
    58  C   -0.049949
    59  C   -0.028007
    60  C   -0.062655
    61  C   -0.037786
    62  C   -0.043398
    63  C   -0.016883
    64  C   -0.022523
    65  C   -0.064766
    66  C   -0.073170
    67  H    0.023216
    68  H    0.034728
    69  H    0.033181
    70  H    0.037984
    71  H    0.029589
    72  H    0.015867
    73  H    0.026091
    74  H    0.023582
    75  H    0.033375
    76  H    0.023968
    77  H    0.037507
    78  H    0.049554
    79  H    0.032094
    80  H    0.046237
    81  H    0.022879
    82  H    0.032485
    83  H    0.029601
    84  H    0.044348
    85  H    0.033653
    86  H    0.034605
    87  H    0.010654
    88  H    0.027940
    89  H    0.027073
    90  H    0.014961
    91  H    0.027622
    92  H    0.018377
    93  H    0.012851
    94  H    0.020929
    95  H    0.023615
    96  H    0.033081
    97  H    0.035660
    98  H    0.046741
    99  H    0.028417
   100  H    0.043630
   101  H    0.049922
   102  H    0.047363
   103  H    0.056192
   104  H    0.021700
   105  H    0.027379
   106  H    0.025242
   107  H    0.033337
   108  H    0.028090
   109  H    0.015994
   110  H    0.034331
   111  H    0.008547
   112  H    0.017717
   113  H    0.015900
   114  H    0.024148
   115  H    0.012128
   116  H    0.023837
   117  H    0.015541
   118  H    0.019195
   119  H    0.002390
   120  H    0.015608
   121  H    0.027572
   122  H    0.025195
   123  H    0.008016
   124  H    0.017547
   125  H    0.024624
   126  H    0.019343
   127  H    0.025391
   128  H    0.021120
   129  H    0.022607
   130  H    0.007799
   131  H    0.036002
   132  H    0.013200
   133  H    0.021868
   134  H    0.022614
   135  H    0.029483
   136  H    0.023788
   137  H    0.011910
   138  H    0.011739
   139  H    0.020714
   140  H    0.031590
 Sum of Mulliken charges =  -0.00000

 Dipole moment (field-independent basis, Debye):
    X=             -0.3336    Y=              5.7874    Z=              2.8061  Tot=              6.4405
 N-N= 4.437106053707D+03 E-N= 0.000000000000D+00  KE=-9.547866611736D+03
 Leave Link  601 at Thu Apr 28 22:13:58 2022, MaxMem=  6710886400 cpu:               1.5 elap:               0.1
 (Enter /sw/apps/gaussian-16.0/g16/l9999.exe)
 1\1\GINC-BP1-COMPUTE166\SP\RZINDO CIS\STO-3G\C55H74Mg1N4O6\OF15641\28-
 Apr-2022\0\\#p ZINDO=(nstates=5)\\step_1751_chromophore_17 ZINDO\\0,1\
 Mg,0,29.793,59.158,41.522\C,0,26.824,57.586,40.279\C,0,31.638,56.647,3
 9.997\C,0,32.611,61.046,41.916\C,0,27.779,61.995,42.347\N,0,29.263,57.
 273,40.349\C,0,28.001,56.908,39.897\C,0,28.101,55.642,38.907\C,0,29.64
 2,55.296,39.155\C,0,30.249,56.49,39.844\C,0,29.942,53.977,39.926\C,0,2
 7.706,55.973,37.42\C,0,26.559,55.187,36.859\C,0,26.863,54.548,35.484\O

 Normal termination of Gaussian 16 at Thu Apr 28 22:13:58 2022.
