 Gaussian 16, Revision A.03,
 Gaussian 16:  ES64L-G16RevA.03 25-Dec-2016

 ------------------------------
 #p blyp/Def2SVP td=(nstates=5)
 ------------------------------

 --------------------------------------------------
 step_1401_chromophore_8 TDDFT with blyp functional
 --------------------------------------------------
 Symbolic Z-matrix:
 Charge =  0 Multiplicity = 1

                         Standard orientation:
 ---------------------------------------------------------------------
 Center     Atomic      Atomic             Coordinates (Angstroms)
 Number     Number       Type             X           Y           Z
 ---------------------------------------------------------------------
      1         12           0       -4.461502   -1.045666    0.229522
      2          6           0       -3.669629    2.226555    1.085161
      3          6           0       -4.336557   -0.004012   -3.065503
      4          6           0       -4.862591   -4.294316   -0.762369
      5          6           0       -3.472546   -2.006070    3.425967
      6          7           0       -3.960082    0.904608   -0.891568
      7          6           0       -3.709978    2.084252   -0.289602
      8          6           0       -3.406733    3.172799   -1.182402
      9          6           0       -3.893350    2.555655   -2.547176
     10          6           0       -4.098024    1.058070   -2.195347
     11          6           0       -5.147025    3.270233   -3.218111
     12          6           0       -1.898186    3.583532   -1.137311
     13          6           0       -1.553482    5.126309   -1.103214
     14          6           0       -0.140670    5.495771   -1.499974
     15          8           0        0.056686    6.215582   -2.459296
     16          8           0        0.785377    4.960413   -0.753323
     17          7           0       -4.649399   -2.028019   -1.637644
     18          6           0       -4.548856   -1.385248   -2.849581
     19          6           0       -4.866380   -2.390639   -3.902727
     20          6           0       -4.948345   -3.673373   -3.317157
     21          6           0       -4.920847   -3.406281   -1.865539
     22          6           0       -4.781327   -2.014017   -5.305110
     23          6           0       -5.111376   -4.979216   -3.998479
     24          8           0       -5.207190   -5.096513   -5.235285
     25          6           0       -5.478499   -6.088032   -3.177810
     26          7           0       -4.194069   -2.812873    1.105965
     27          6           0       -4.461023   -4.033150    0.526249
     28          6           0       -4.455513   -5.199845    1.623823
     29          6           0       -3.703722   -4.465052    2.816172
     30          6           0       -3.731338   -2.982966    2.429562
     31          6           0       -5.887921   -5.746843    1.846651
     32          6           0       -2.363770   -5.016360    3.261389
     33          6           0       -2.298661   -5.817088    4.545462
     34          7           0       -3.937330   -0.145615    2.001858
     35          6           0       -3.548513   -0.678441    3.179325
     36          6           0       -3.254905    0.368408    4.036765
     37          6           0       -3.325552    1.593999    3.323130
     38          6           0       -3.764293    1.167345    2.063025
     39          6           0       -2.708771    0.279649    5.452956
     40          6           0       -3.152227    3.050261    3.332865
     41          8           0       -2.713098    3.825797    4.187195
     42          6           0       -3.538489    3.522108    1.903811
     43          6           0       -4.754987    4.254997    1.841490
     44          8           0       -5.863011    3.791403    1.846644
     45          8           0       -4.499961    5.530847    1.461961
     46          6           0       -5.638791    6.466454    1.362416
     47          6           0        2.196280    5.192161   -1.134304
     48          6           0        2.976429    3.844210   -0.931362
     49          6           0        4.275984    3.748781   -0.617248
     50          6           0        5.172268    4.932998   -0.503876
     51          6           0        4.771619    2.354082   -0.345925
     52          6           0        5.123145    1.415152   -1.551433
     53          6           0        4.451825    0.015500   -1.532179
     54          6           0        5.533250   -1.110466   -1.512278
     55          6           0        4.847342   -2.419011   -2.094688
     56          6           0        6.073139   -1.301105   -0.078869
     57          6           0        7.146943   -2.364139    0.090415
     58          6           0        8.026657   -2.190153    1.323183
     59          6           0        9.572834   -2.152948    0.973551
     60          6           0       10.266211   -3.341831    1.600423
     61          6           0       10.360382   -0.859504    1.432098
     62          6           0       11.190562   -0.220623    0.318063
     63          6           0       12.700882   -0.265570    0.602991
     64          6           0       13.475558   -1.106661   -0.448737
     65          6           0       13.740564   -0.209997   -1.680782
     66          6           0       14.678143   -1.881609    0.030785
     67          1           0       -4.346015    0.389606   -4.083203
     68          1           0       -5.074875   -5.362076   -0.850555
     69          1           0       -3.148013   -2.266686    4.435545
     70          1           0       -4.046181    3.997030   -0.869582
     71          1           0       -3.091814    2.669511   -3.277380
     72          1           0       -5.418088    4.244855   -2.811802
     73          1           0       -6.022011    2.648890   -3.027566
     74          1           0       -4.970685    3.215890   -4.291914
     75          1           0       -1.409853    3.087084   -1.976186
     76          1           0       -1.463388    3.193354   -0.217421
     77          1           0       -1.845044    5.553355   -0.143053
     78          1           0       -2.284802    5.634059   -1.732453
     79          1           0       -3.821202   -1.596346   -5.609868
     80          1           0       -5.483548   -1.186984   -5.412829
     81          1           0       -4.988946   -2.869101   -5.947586
     82          1           0       -6.280285   -5.871477   -2.472130
     83          1           0       -4.550855   -6.322689   -2.655554
     84          1           0       -5.813777   -6.864635   -3.864112
     85          1           0       -4.010374   -6.058434    1.122183
     86          1           0       -4.345878   -4.386889    3.693336
     87          1           0       -6.092994   -6.750793    1.475148
     88          1           0       -6.570699   -5.085922    1.312499
     89          1           0       -6.122139   -5.731094    2.910726
     90          1           0       -1.608439   -4.231553    3.279783
     91          1           0       -2.043957   -5.635294    2.422088
     92          1           0       -1.950852   -6.850587    4.535376
     93          1           0       -3.317369   -5.829634    4.933288
     94          1           0       -1.715459   -5.411411    5.371710
     95          1           0       -2.741254    1.254106    5.940361
     96          1           0       -1.693633   -0.116938    5.403633
     97          1           0       -3.300938   -0.440584    6.017857
     98          1           0       -2.674154    4.080929    1.544415
     99          1           0       -5.789160    6.870826    2.363510
    100          1           0       -6.527137    5.946941    1.002818
    101          1           0       -5.393371    7.299229    0.704534
    102          1           0        2.545846    5.953794   -0.436609
    103          1           0        2.341384    5.415720   -2.191405
    104          1           0        2.329990    2.966798   -0.942294
    105          1           0        5.352299    5.070400    0.562365
    106          1           0        4.723165    5.782327   -1.020050
    107          1           0        6.103233    4.804959   -1.055651
    108          1           0        4.195499    1.717713    0.325630
    109          1           0        5.715436    2.557647    0.159373
    110          1           0        6.201580    1.307591   -1.670081
    111          1           0        4.869451    1.986174   -2.444231
    112          1           0        3.813401   -0.111048   -2.406412
    113          1           0        3.859322   -0.091028   -0.623951
    114          1           0        6.439790   -0.879346   -2.070520
    115          1           0        5.174934   -2.754107   -3.079016
    116          1           0        3.762021   -2.472146   -2.003436
    117          1           0        5.245151   -3.254023   -1.519076
    118          1           0        5.279462   -1.541797    0.627818
    119          1           0        6.614362   -0.367772    0.077969
    120          1           0        7.804378   -2.288698   -0.774982
    121          1           0        6.660174   -3.338663    0.101347
    122          1           0        7.792724   -3.033196    1.971865
    123          1           0        7.678828   -1.299656    1.848202
    124          1           0        9.760583   -2.448149   -0.058160
    125          1           0       10.385633   -3.404459    2.682078
    126          1           0       11.231022   -3.436284    1.101681
    127          1           0        9.626510   -4.202837    1.409584
    128          1           0       10.942306   -1.151255    2.306030
    129          1           0        9.578961   -0.246486    1.880585
    130          1           0       10.824503    0.805988    0.288268
    131          1           0       11.161769   -0.682434   -0.668910
    132          1           0       12.929474   -0.735217    1.559349
    133          1           0       13.133170    0.728086    0.722908
    134          1           0       12.761854   -1.787798   -0.911865
    135          1           0       14.399099   -0.776043   -2.338713
    136          1           0       14.123687    0.781729   -1.439869
    137          1           0       12.839992   -0.060907   -2.277001
    138          1           0       14.632133   -2.918093   -0.304077
    139          1           0       14.866798   -2.034730    1.093679
    140          1           0       15.628199   -1.526535   -0.367554
 ---------------------------------------------------------------------

 SCF Done:  E(RB-LYP) =  -3007.35230228     A.U. after   20 cycles

 Excitation energies and oscillator strengths:

 Excited State   1:      Singlet-A      1.8019 eV  688.08 nm  f=0.2914  <S**2>=0.000
     245 -> 248       -0.16855
     246 -> 247        0.68728
     246 <- 247       -0.15151
 This state for optimization and/or second-order correction.
 Total Energy, E(TD-HF/TD-DFT) =  -3007.28608428
 Copying the excited state density for this state as the 1-particle RhoCI density.

 Excited State   2:      Singlet-A      1.9126 eV  648.25 nm  f=0.0031  <S**2>=0.000
     244 -> 247        0.70091

 Excited State   3:      Singlet-A      2.0063 eV  617.97 nm  f=0.0467  <S**2>=0.000
     243 -> 247        0.34787
     245 -> 247        0.57250
     246 -> 248        0.17469

 Excited State   4:      Singlet-A      2.1515 eV  576.28 nm  f=0.0216  <S**2>=0.000
     243 -> 247        0.60744
     245 -> 247       -0.29148
     246 -> 248       -0.15454

 Excited State   5:      Singlet-A      2.2410 eV  553.25 nm  f=0.0005  <S**2>=0.000
     242 -> 247        0.70024

 The electronic state is 1-A.
 Alpha  occ. eigenvalues --  -46.26684 -18.82868 -18.82167 -18.76516 -18.76169
 Alpha  occ. eigenvalues --  -18.75373 -18.75329 -14.03499 -14.03229 -14.01486
 Alpha  occ. eigenvalues --  -14.00593 -10.03661 -10.03479 -10.00315  -9.99355
 Alpha  occ. eigenvalues --   -9.98538  -9.98086  -9.97228  -9.96728  -9.96711
 Alpha  occ. eigenvalues --   -9.96638  -9.96031  -9.95858  -9.94677  -9.94659
 Alpha  occ. eigenvalues --   -9.94575  -9.94344  -9.94154  -9.93836  -9.93805
 Alpha  occ. eigenvalues --   -9.93709  -9.93687  -9.93675  -9.93164  -9.93138
 Alpha  occ. eigenvalues --   -9.92947  -9.92944  -9.92876  -9.92811  -9.92808
 Alpha  occ. eigenvalues --   -9.92772  -9.92727  -9.92703  -9.92597  -9.92290
 Alpha  occ. eigenvalues --   -9.92037  -9.92033  -9.92028  -9.91771  -9.91746
 Alpha  occ. eigenvalues --   -9.91699  -9.91610  -9.91503  -9.91428  -9.91338
 Alpha  occ. eigenvalues --   -9.91092  -9.91045  -9.91006  -9.90982  -9.90967
 Alpha  occ. eigenvalues --   -9.90872  -9.90830  -9.90703  -9.90693  -9.90648
 Alpha  occ. eigenvalues --   -9.90335  -2.91507  -1.71917  -1.71387  -1.71226
 Alpha  occ. eigenvalues --   -0.99666  -0.98824  -0.91067  -0.90586  -0.90470
 Alpha  occ. eigenvalues --   -0.89708  -0.88125  -0.87427  -0.84858  -0.83799
 Alpha  occ. eigenvalues --   -0.76312  -0.73818  -0.73211  -0.72974  -0.72897
 Alpha  occ. eigenvalues --   -0.72374  -0.71975  -0.71027  -0.70965  -0.70387
 Alpha  occ. eigenvalues --   -0.70346  -0.69214  -0.68840  -0.68500  -0.68040
 Alpha  occ. eigenvalues --   -0.67084  -0.66550  -0.65962  -0.65756  -0.65176
 Alpha  occ. eigenvalues --   -0.64378  -0.62838  -0.62442  -0.62216  -0.61211
 Alpha  occ. eigenvalues --   -0.60704  -0.60624  -0.59703  -0.59332  -0.59130
 Alpha  occ. eigenvalues --   -0.58318  -0.57772  -0.56856  -0.56135  -0.55243
 Alpha  occ. eigenvalues --   -0.54397  -0.53764  -0.53162  -0.52653  -0.52170
 Alpha  occ. eigenvalues --   -0.51783  -0.51306  -0.51228  -0.50928  -0.50044
 Alpha  occ. eigenvalues --   -0.49910  -0.49253  -0.48750  -0.48578  -0.46894
 Alpha  occ. eigenvalues --   -0.46589  -0.46261  -0.46009  -0.45607  -0.45493
 Alpha  occ. eigenvalues --   -0.44380  -0.44151  -0.43347  -0.43138  -0.42980
 Alpha  occ. eigenvalues --   -0.42231  -0.42146  -0.41926  -0.41603  -0.41312
 Alpha  occ. eigenvalues --   -0.40831  -0.40815  -0.40611  -0.40505  -0.40408
 Alpha  occ. eigenvalues --   -0.40224  -0.40051  -0.39876  -0.39554  -0.39357
 Alpha  occ. eigenvalues --   -0.39314  -0.39046  -0.38785  -0.38697  -0.38579
 Alpha  occ. eigenvalues --   -0.38134  -0.37957  -0.37730  -0.37576  -0.37531
 Alpha  occ. eigenvalues --   -0.37310  -0.37153  -0.37058  -0.36950  -0.36811
 Alpha  occ. eigenvalues --   -0.36482  -0.36385  -0.36122  -0.36075  -0.35894
 Alpha  occ. eigenvalues --   -0.35785  -0.35548  -0.34972  -0.34874  -0.34851
 Alpha  occ. eigenvalues --   -0.34826  -0.34505  -0.34220  -0.33884  -0.33751
 Alpha  occ. eigenvalues --   -0.33627  -0.33573  -0.33280  -0.33218  -0.33056
 Alpha  occ. eigenvalues --   -0.32852  -0.32691  -0.32632  -0.32583  -0.32475
 Alpha  occ. eigenvalues --   -0.32378  -0.32087  -0.31891  -0.31600  -0.31506
 Alpha  occ. eigenvalues --   -0.31179  -0.30918  -0.30777  -0.30689  -0.30633
 Alpha  occ. eigenvalues --   -0.30557  -0.30221  -0.30123  -0.29961  -0.29828
 Alpha  occ. eigenvalues --   -0.29713  -0.29604  -0.29406  -0.29357  -0.29207
 Alpha  occ. eigenvalues --   -0.29053  -0.28923  -0.28488  -0.28258  -0.28003
 Alpha  occ. eigenvalues --   -0.27721  -0.27420  -0.26958  -0.26821  -0.26820
 Alpha  occ. eigenvalues --   -0.26306  -0.26008  -0.25876  -0.25664  -0.25389
 Alpha  occ. eigenvalues --   -0.25316  -0.24840  -0.24339  -0.24324  -0.24145
 Alpha  occ. eigenvalues --   -0.23599  -0.22427  -0.22281  -0.21063  -0.20754
 Alpha  occ. eigenvalues --   -0.20514  -0.19944  -0.19357  -0.18674  -0.17641
 Alpha  occ. eigenvalues --   -0.15957
 Alpha virt. eigenvalues --   -0.11727  -0.07343  -0.06386  -0.05265  -0.02887
 Alpha virt. eigenvalues --   -0.02713  -0.02005  -0.01755  -0.01332   0.00338
 Alpha virt. eigenvalues --    0.01248   0.01601   0.02351   0.02378   0.02735

 Mulliken charges:
               1
     1  Mg   0.718391
     2  C   -0.075943
     3  C   -0.052216
     4  C   -0.040932
     5  C   -0.134348
     6  N   -0.152726
     7  C   -0.106445
     8  C    0.049890
     9  C    0.006077
    10  C   -0.017414
    11  C    0.121105
    12  C    0.103886
    13  C    0.136814
    14  C    0.043041
    15  O   -0.195135
    16  O   -0.232287
    17  N   -0.300910
    18  C    0.157984
    19  C   -0.151912
    20  C    0.044127
    21  C    0.137747
    22  C    0.184216
    23  C   -0.091213
    24  O   -0.175506
    25  C    0.159179
    26  N   -0.295150
    27  C   -0.001354
    28  C   -0.010158
    29  C    0.048032
    30  C    0.075789
    31  C    0.114298
    32  C    0.145518
    33  C    0.062410
    34  N   -0.238208
    35  C    0.155387
    36  C   -0.208490
    37  C    0.064003
    38  C    0.089362
    39  C    0.171078
    40  C   -0.035974
    41  O   -0.139214
    42  C    0.115003
    43  C    0.117030
    44  O   -0.161870
    45  O   -0.278596
    46  C    0.213378
    47  C    0.286231
    48  C   -0.106899
    49  C   -0.165689
    50  C    0.162229
    51  C    0.146033
    52  C    0.073876
    53  C    0.136691
    54  C   -0.079151
    55  C    0.106920
    56  C    0.063227
    57  C    0.051685
    58  C    0.145575
    59  C   -0.088631
    60  C    0.069416
    61  C    0.134617
    62  C    0.115841
    63  C    0.097415
    64  C   -0.088034
    65  C    0.086420
    66  C    0.119053
    67  H   -0.071395
    68  H   -0.075863
    69  H   -0.058787
    70  H   -0.029931
    71  H   -0.022390
    72  H    0.005593
    73  H   -0.013143
    74  H    0.002411
    75  H   -0.021451
    76  H   -0.002527
    77  H    0.003144
    78  H   -0.025987
    79  H   -0.000179
    80  H   -0.010230
    81  H    0.006752
    82  H    0.025350
    83  H    0.008772
    84  H   -0.008945
    85  H   -0.027749
    86  H   -0.025406
    87  H   -0.006916
    88  H   -0.005903
    89  H   -0.008880
    90  H   -0.025521
    91  H   -0.030397
    92  H   -0.007921
    93  H   -0.023529
    94  H   -0.012829
    95  H    0.011069
    96  H    0.002026
    97  H   -0.013392
    98  H   -0.011135
    99  H    0.019164
   100  H    0.022903
   101  H    0.017389
   102  H    0.017197
   103  H    0.026352
   104  H   -0.031677
   105  H    0.018025
   106  H   -0.010362
   107  H   -0.007905
   108  H   -0.020601
   109  H   -0.055112
   110  H   -0.032247
   111  H   -0.040628
   112  H   -0.025333
   113  H   -0.029871
   114  H   -0.037179
   115  H   -0.019186
   116  H   -0.010659
   117  H   -0.046534
   118  H   -0.028591
   119  H   -0.032093
   120  H   -0.040776
   121  H   -0.019839
   122  H   -0.045656
   123  H   -0.037310
   124  H   -0.029113
   125  H   -0.018738
   126  H   -0.015806
   127  H   -0.030906
   128  H   -0.035447
   129  H   -0.050980
   130  H   -0.033844
   131  H   -0.019937
   132  H   -0.046069
   133  H   -0.036895
   134  H   -0.034424
   135  H   -0.022352
   136  H   -0.011697
   137  H   -0.023021
   138  H   -0.025488
   139  H   -0.021737
   140  H   -0.022297
 Sum of Mulliken charges =  -0.00000

 Dipole moment (field-independent basis, Debye):
    X=              1.5065    Y=             -2.0244    Z=              1.7659  Tot=              3.0799
 Quadrupole moment (field-independent basis, Debye-Ang):
   XX=           -388.8066   YY=           -401.2007   ZZ=           -435.9441
   XY=             -0.6151   XZ=             -8.8068   YZ=            -31.5858

 Normal termination of Gaussian 16 at Wed May  4 07:07:14 2022.
