 Gaussian 16, Revision A.03,
 Gaussian 16:  ES64L-G16RevA.03 25-Dec-2016

 -----------------------------------
 #p cam-b3lyp/Def2SVP td=(nstates=5)
 -----------------------------------

 -------------------------------------------------------
 step_1401_chromophore_8 TDDFT with cam-b3lyp functional
 -------------------------------------------------------
 Symbolic Z-matrix:
 Charge =  0 Multiplicity = 1

                         Standard orientation:
 ---------------------------------------------------------------------
 Center     Atomic      Atomic             Coordinates (Angstroms)
 Number     Number       Type             X           Y           Z
 ---------------------------------------------------------------------
      1         12           0       -4.461502   -1.045666    0.229522
      2          6           0       -3.669629    2.226555    1.085161
      3          6           0       -4.336557   -0.004012   -3.065503
      4          6           0       -4.862591   -4.294316   -0.762369
      5          6           0       -3.472546   -2.006070    3.425967
      6          7           0       -3.960082    0.904608   -0.891568
      7          6           0       -3.709978    2.084252   -0.289602
      8          6           0       -3.406733    3.172799   -1.182402
      9          6           0       -3.893350    2.555655   -2.547176
     10          6           0       -4.098024    1.058070   -2.195347
     11          6           0       -5.147025    3.270233   -3.218111
     12          6           0       -1.898186    3.583532   -1.137311
     13          6           0       -1.553482    5.126309   -1.103214
     14          6           0       -0.140670    5.495771   -1.499974
     15          8           0        0.056686    6.215582   -2.459296
     16          8           0        0.785377    4.960413   -0.753323
     17          7           0       -4.649399   -2.028019   -1.637644
     18          6           0       -4.548856   -1.385248   -2.849581
     19          6           0       -4.866380   -2.390639   -3.902727
     20          6           0       -4.948345   -3.673373   -3.317157
     21          6           0       -4.920847   -3.406281   -1.865539
     22          6           0       -4.781327   -2.014017   -5.305110
     23          6           0       -5.111376   -4.979216   -3.998479
     24          8           0       -5.207190   -5.096513   -5.235285
     25          6           0       -5.478499   -6.088032   -3.177810
     26          7           0       -4.194069   -2.812873    1.105965
     27          6           0       -4.461023   -4.033150    0.526249
     28          6           0       -4.455513   -5.199845    1.623823
     29          6           0       -3.703722   -4.465052    2.816172
     30          6           0       -3.731338   -2.982966    2.429562
     31          6           0       -5.887921   -5.746843    1.846651
     32          6           0       -2.363770   -5.016360    3.261389
     33          6           0       -2.298661   -5.817088    4.545462
     34          7           0       -3.937330   -0.145615    2.001858
     35          6           0       -3.548513   -0.678441    3.179325
     36          6           0       -3.254905    0.368408    4.036765
     37          6           0       -3.325552    1.593999    3.323130
     38          6           0       -3.764293    1.167345    2.063025
     39          6           0       -2.708771    0.279649    5.452956
     40          6           0       -3.152227    3.050261    3.332865
     41          8           0       -2.713098    3.825797    4.187195
     42          6           0       -3.538489    3.522108    1.903811
     43          6           0       -4.754987    4.254997    1.841490
     44          8           0       -5.863011    3.791403    1.846644
     45          8           0       -4.499961    5.530847    1.461961
     46          6           0       -5.638791    6.466454    1.362416
     47          6           0        2.196280    5.192161   -1.134304
     48          6           0        2.976429    3.844210   -0.931362
     49          6           0        4.275984    3.748781   -0.617248
     50          6           0        5.172268    4.932998   -0.503876
     51          6           0        4.771619    2.354082   -0.345925
     52          6           0        5.123145    1.415152   -1.551433
     53          6           0        4.451825    0.015500   -1.532179
     54          6           0        5.533250   -1.110466   -1.512278
     55          6           0        4.847342   -2.419011   -2.094688
     56          6           0        6.073139   -1.301105   -0.078869
     57          6           0        7.146943   -2.364139    0.090415
     58          6           0        8.026657   -2.190153    1.323183
     59          6           0        9.572834   -2.152948    0.973551
     60          6           0       10.266211   -3.341831    1.600423
     61          6           0       10.360382   -0.859504    1.432098
     62          6           0       11.190562   -0.220623    0.318063
     63          6           0       12.700882   -0.265570    0.602991
     64          6           0       13.475558   -1.106661   -0.448737
     65          6           0       13.740564   -0.209997   -1.680782
     66          6           0       14.678143   -1.881609    0.030785
     67          1           0       -4.346015    0.389606   -4.083203
     68          1           0       -5.074875   -5.362076   -0.850555
     69          1           0       -3.148013   -2.266686    4.435545
     70          1           0       -4.046181    3.997030   -0.869582
     71          1           0       -3.091814    2.669511   -3.277380
     72          1           0       -5.418088    4.244855   -2.811802
     73          1           0       -6.022011    2.648890   -3.027566
     74          1           0       -4.970685    3.215890   -4.291914
     75          1           0       -1.409853    3.087084   -1.976186
     76          1           0       -1.463388    3.193354   -0.217421
     77          1           0       -1.845044    5.553355   -0.143053
     78          1           0       -2.284802    5.634059   -1.732453
     79          1           0       -3.821202   -1.596346   -5.609868
     80          1           0       -5.483548   -1.186984   -5.412829
     81          1           0       -4.988946   -2.869101   -5.947586
     82          1           0       -6.280285   -5.871477   -2.472130
     83          1           0       -4.550855   -6.322689   -2.655554
     84          1           0       -5.813777   -6.864635   -3.864112
     85          1           0       -4.010374   -6.058434    1.122183
     86          1           0       -4.345878   -4.386889    3.693336
     87          1           0       -6.092994   -6.750793    1.475148
     88          1           0       -6.570699   -5.085922    1.312499
     89          1           0       -6.122139   -5.731094    2.910726
     90          1           0       -1.608439   -4.231553    3.279783
     91          1           0       -2.043957   -5.635294    2.422088
     92          1           0       -1.950852   -6.850587    4.535376
     93          1           0       -3.317369   -5.829634    4.933288
     94          1           0       -1.715459   -5.411411    5.371710
     95          1           0       -2.741254    1.254106    5.940361
     96          1           0       -1.693633   -0.116938    5.403633
     97          1           0       -3.300938   -0.440584    6.017857
     98          1           0       -2.674154    4.080929    1.544415
     99          1           0       -5.789160    6.870826    2.363510
    100          1           0       -6.527137    5.946941    1.002818
    101          1           0       -5.393371    7.299229    0.704534
    102          1           0        2.545846    5.953794   -0.436609
    103          1           0        2.341384    5.415720   -2.191405
    104          1           0        2.329990    2.966798   -0.942294
    105          1           0        5.352299    5.070400    0.562365
    106          1           0        4.723165    5.782327   -1.020050
    107          1           0        6.103233    4.804959   -1.055651
    108          1           0        4.195499    1.717713    0.325630
    109          1           0        5.715436    2.557647    0.159373
    110          1           0        6.201580    1.307591   -1.670081
    111          1           0        4.869451    1.986174   -2.444231
    112          1           0        3.813401   -0.111048   -2.406412
    113          1           0        3.859322   -0.091028   -0.623951
    114          1           0        6.439790   -0.879346   -2.070520
    115          1           0        5.174934   -2.754107   -3.079016
    116          1           0        3.762021   -2.472146   -2.003436
    117          1           0        5.245151   -3.254023   -1.519076
    118          1           0        5.279462   -1.541797    0.627818
    119          1           0        6.614362   -0.367772    0.077969
    120          1           0        7.804378   -2.288698   -0.774982
    121          1           0        6.660174   -3.338663    0.101347
    122          1           0        7.792724   -3.033196    1.971865
    123          1           0        7.678828   -1.299656    1.848202
    124          1           0        9.760583   -2.448149   -0.058160
    125          1           0       10.385633   -3.404459    2.682078
    126          1           0       11.231022   -3.436284    1.101681
    127          1           0        9.626510   -4.202837    1.409584
    128          1           0       10.942306   -1.151255    2.306030
    129          1           0        9.578961   -0.246486    1.880585
    130          1           0       10.824503    0.805988    0.288268
    131          1           0       11.161769   -0.682434   -0.668910
    132          1           0       12.929474   -0.735217    1.559349
    133          1           0       13.133170    0.728086    0.722908
    134          1           0       12.761854   -1.787798   -0.911865
    135          1           0       14.399099   -0.776043   -2.338713
    136          1           0       14.123687    0.781729   -1.439869
    137          1           0       12.839992   -0.060907   -2.277001
    138          1           0       14.632133   -2.918093   -0.304077
    139          1           0       14.866798   -2.034730    1.093679
    140          1           0       15.628199   -1.526535   -0.367554
 ---------------------------------------------------------------------

 SCF Done:  E(RCAM-B3LYP) =  -3007.15764330     A.U. after   17 cycles

 Excitation energies and oscillator strengths:

 Excited State   1:      Singlet-A      1.7247 eV  718.86 nm  f=0.3703  <S**2>=0.000
     245 -> 248       -0.16778
     246 -> 247        0.68644
     245 <- 248       -0.10221
 This state for optimization and/or second-order correction.
 Total Energy, E(TD-HF/TD-DFT) =  -3007.09426058
 Copying the excited state density for this state as the 1-particle RhoCI density.

 Excited State   2:      Singlet-A      2.2813 eV  543.47 nm  f=0.0874  <S**2>=0.000
     245 -> 247        0.62685
     246 -> 248        0.30604

 Excited State   3:      Singlet-A      3.3433 eV  370.84 nm  f=0.0507  <S**2>=0.000
     242 -> 247        0.54210
     244 -> 247       -0.32469
     246 -> 248       -0.27400

 Excited State   4:      Singlet-A      3.4883 eV  355.43 nm  f=0.1445  <S**2>=0.000
     241 -> 247       -0.13935
     242 -> 247        0.12151
     244 -> 247        0.53739
     245 -> 247        0.14225
     246 -> 248       -0.36312

 Excited State   5:      Singlet-A      3.5589 eV  348.37 nm  f=0.1755  <S**2>=0.000
     239 -> 247        0.11557
     239 -> 249        0.10862
     240 -> 247        0.39709
     240 -> 248       -0.17279
     240 -> 249        0.26590
     240 -> 250       -0.17589
     242 -> 247        0.18764
     244 -> 247        0.15226
     245 -> 247       -0.15128
     246 -> 248        0.25053

 The electronic state is 1-A.
 Alpha  occ. eigenvalues --  -46.88216 -19.25691 -19.25099 -19.19616 -19.19146
 Alpha  occ. eigenvalues --  -19.18800 -19.18146 -14.42299 -14.42212 -14.40211
 Alpha  occ. eigenvalues --  -14.38755 -10.38997 -10.38524 -10.35523 -10.34733
 Alpha  occ. eigenvalues --  -10.32618 -10.32107 -10.31730 -10.31495 -10.31479
 Alpha  occ. eigenvalues --  -10.31333 -10.30825 -10.30030 -10.28808 -10.28789
 Alpha  occ. eigenvalues --  -10.28766 -10.28587 -10.28013 -10.27986 -10.27981
 Alpha  occ. eigenvalues --  -10.27879 -10.27777 -10.27665 -10.27502 -10.27405
 Alpha  occ. eigenvalues --  -10.27044 -10.27038 -10.26816 -10.26769 -10.26725
 Alpha  occ. eigenvalues --  -10.26654 -10.26454 -10.26376 -10.26375 -10.26028
 Alpha  occ. eigenvalues --  -10.25752 -10.25750 -10.25700 -10.25589 -10.25478
 Alpha  occ. eigenvalues --  -10.25459 -10.25368 -10.25152 -10.25141 -10.25071
 Alpha  occ. eigenvalues --  -10.24930 -10.24755 -10.24694 -10.24622 -10.24598
 Alpha  occ. eigenvalues --  -10.24428 -10.24415 -10.24328 -10.24290 -10.24262
 Alpha  occ. eigenvalues --  -10.23894  -3.16948  -1.91830  -1.91407  -1.91252
 Alpha  occ. eigenvalues --   -1.18083  -1.17435  -1.09253  -1.09169  -1.08418
 Alpha  occ. eigenvalues --   -1.07525  -1.05918  -1.04882  -1.02566  -1.01481
 Alpha  occ. eigenvalues --   -0.93403  -0.90677  -0.89996  -0.89698  -0.89619
 Alpha  occ. eigenvalues --   -0.89075  -0.88663  -0.87641  -0.87550  -0.87336
 Alpha  occ. eigenvalues --   -0.86759  -0.85516  -0.85149  -0.84775  -0.84282
 Alpha  occ. eigenvalues --   -0.83329  -0.82562  -0.81881  -0.81640  -0.81043
 Alpha  occ. eigenvalues --   -0.80127  -0.78384  -0.78073  -0.77970  -0.76600
 Alpha  occ. eigenvalues --   -0.76035  -0.75981  -0.74965  -0.74576  -0.74364
 Alpha  occ. eigenvalues --   -0.73338  -0.72764  -0.71770  -0.70962  -0.69790
 Alpha  occ. eigenvalues --   -0.69002  -0.68305  -0.67830  -0.67007  -0.66520
 Alpha  occ. eigenvalues --   -0.65782  -0.65407  -0.65307  -0.65018  -0.64050
 Alpha  occ. eigenvalues --   -0.63697  -0.63174  -0.62438  -0.62433  -0.60548
 Alpha  occ. eigenvalues --   -0.60183  -0.59899  -0.59506  -0.59248  -0.58889
 Alpha  occ. eigenvalues --   -0.57905  -0.57546  -0.56518  -0.56482  -0.56191
 Alpha  occ. eigenvalues --   -0.55329  -0.54997  -0.54905  -0.54525  -0.53992
 Alpha  occ. eigenvalues --   -0.53802  -0.53729  -0.53493  -0.53372  -0.53157
 Alpha  occ. eigenvalues --   -0.52972  -0.52607  -0.52372  -0.52364  -0.52020
 Alpha  occ. eigenvalues --   -0.51744  -0.51671  -0.51259  -0.51122  -0.50994
 Alpha  occ. eigenvalues --   -0.50586  -0.50209  -0.50132  -0.49939  -0.49930
 Alpha  occ. eigenvalues --   -0.49667  -0.49483  -0.49371  -0.49246  -0.49040
 Alpha  occ. eigenvalues --   -0.48953  -0.48786  -0.48371  -0.48207  -0.48028
 Alpha  occ. eigenvalues --   -0.47863  -0.47550  -0.47303  -0.46870  -0.46692
 Alpha  occ. eigenvalues --   -0.46666  -0.46541  -0.45965  -0.45901  -0.45745
 Alpha  occ. eigenvalues --   -0.45557  -0.45287  -0.45091  -0.44873  -0.44566
 Alpha  occ. eigenvalues --   -0.44499  -0.44359  -0.44187  -0.44152  -0.44060
 Alpha  occ. eigenvalues --   -0.43970  -0.43849  -0.43416  -0.43227  -0.43146
 Alpha  occ. eigenvalues --   -0.42953  -0.42540  -0.42267  -0.42099  -0.42062
 Alpha  occ. eigenvalues --   -0.41770  -0.41692  -0.41496  -0.41344  -0.41211
 Alpha  occ. eigenvalues --   -0.41176  -0.40768  -0.40549  -0.40480  -0.40407
 Alpha  occ. eigenvalues --   -0.39984  -0.39950  -0.39495  -0.39405  -0.39098
 Alpha  occ. eigenvalues --   -0.38543  -0.38242  -0.37900  -0.37569  -0.37546
 Alpha  occ. eigenvalues --   -0.37288  -0.37019  -0.36972  -0.36807  -0.36368
 Alpha  occ. eigenvalues --   -0.36216  -0.35475  -0.34820  -0.34785  -0.34594
 Alpha  occ. eigenvalues --   -0.34528  -0.33833  -0.33067  -0.31631  -0.31387
 Alpha  occ. eigenvalues --   -0.31121  -0.30115  -0.29829  -0.29697  -0.24576
 Alpha  occ. eigenvalues --   -0.21274
 Alpha virt. eigenvalues --   -0.08817  -0.02081  -0.00024   0.01572   0.02406
 Alpha virt. eigenvalues --    0.04695   0.05278   0.05679   0.06374   0.06671
 Alpha virt. eigenvalues --    0.08171   0.08551   0.08638   0.08817   0.08991

 Mulliken charges:
               1
     1  Mg   0.851363
     2  C   -0.097321
     3  C   -0.071082
     4  C   -0.076771
     5  C   -0.132716
     6  N   -0.221123
     7  C   -0.069092
     8  C   -0.003925
     9  C   -0.045279
    10  C    0.001680
    11  C    0.065257
    12  C    0.053088
    13  C    0.069395
    14  C    0.123993
    15  O   -0.239268
    16  O   -0.295233
    17  N   -0.386727
    18  C    0.172567
    19  C   -0.141391
    20  C   -0.030369
    21  C    0.176319
    22  C    0.113584
    23  C   -0.001434
    24  O   -0.216708
    25  C    0.058516
    26  N   -0.372666
    27  C    0.030864
    28  C   -0.062055
    29  C   -0.014442
    30  C    0.094703
    31  C    0.055862
    32  C    0.083140
    33  C    0.000248
    34  N   -0.332760
    35  C    0.151863
    36  C   -0.202880
    37  C   -0.018059
    38  C    0.137829
    39  C    0.118316
    40  C    0.062983
    41  O   -0.180291
    42  C    0.025535
    43  C    0.209467
    44  O   -0.197795
    45  O   -0.342634
    46  C    0.173625
    47  C    0.252063
    48  C   -0.122483
    49  C   -0.189041
    50  C    0.095175
    51  C    0.086411
    52  C    0.020381
    53  C    0.078032
    54  C   -0.134921
    55  C    0.046460
    56  C    0.015549
    57  C    0.000931
    58  C    0.086640
    59  C   -0.144715
    60  C    0.020110
    61  C    0.079814
    62  C    0.056971
    63  C    0.043510
    64  C   -0.151276
    65  C    0.031913
    66  C    0.054128
    67  H   -0.033863
    68  H   -0.039398
    69  H   -0.022535
    70  H    0.004359
    71  H    0.013068
    72  H    0.029927
    73  H    0.012678
    74  H    0.025118
    75  H    0.008018
    76  H    0.027882
    77  H    0.032619
    78  H    0.007749
    79  H    0.029630
    80  H    0.016629
    81  H    0.042028
    82  H    0.053956
    83  H    0.037256
    84  H    0.029731
    85  H    0.006314
    86  H    0.009951
    87  H    0.017259
    88  H    0.019731
    89  H    0.016788
    90  H    0.007212
    91  H   -0.001268
    92  H    0.016591
    93  H   -0.000871
    94  H    0.011489
    95  H    0.037159
    96  H    0.026328
    97  H    0.009223
    98  H    0.033540
    99  H    0.041799
   100  H    0.048537
   101  H    0.039620
   102  H    0.043827
   103  H    0.058231
   104  H    0.002216
   105  H    0.042097
   106  H    0.013755
   107  H    0.017447
   108  H    0.009892
   109  H   -0.023897
   110  H   -0.004092
   111  H   -0.009141
   112  H    0.005748
   113  H   -0.002374
   114  H   -0.005758
   115  H    0.006468
   116  H    0.013917
   117  H   -0.022195
   118  H   -0.001337
   119  H   -0.006833
   120  H   -0.012942
   121  H    0.005670
   122  H   -0.013854
   123  H   -0.007543
   124  H    0.000629
   125  H    0.004862
   126  H    0.005620
   127  H   -0.006780
   128  H   -0.006156
   129  H   -0.020070
   130  H   -0.002907
   131  H    0.005016
   132  H   -0.017228
   133  H   -0.007574
   134  H   -0.004524
   135  H    0.002529
   136  H    0.011076
   137  H    0.001068
   138  H   -0.000366
   139  H    0.004257
   140  H    0.003163
 Sum of Mulliken charges =  -0.00000

 Dipole moment (field-independent basis, Debye):
    X=              1.1862    Y=             -2.5738    Z=              1.0876  Tot=              3.0355
 Quadrupole moment (field-independent basis, Debye-Ang):
   XX=           -385.3951   YY=           -397.2354   ZZ=           -435.0965
   XY=              0.8525   XZ=             -5.3553   YZ=            -31.3932

 Normal termination of Gaussian 16 at Wed May  4 06:09:09 2022.
