 Gaussian 16, Revision A.03,
 Gaussian 16:  ES64L-G16RevA.03 25-Dec-2016

 ---------------------------------
 #p PBE1PBE/Def2SVP td=(nstates=5)
 ---------------------------------

 -----------------------------------------------------
 step_1401_chromophore_8 TDDFT with PBE1PBE functional
 -----------------------------------------------------
 Symbolic Z-matrix:
 Charge =  0 Multiplicity = 1

                         Standard orientation:
 ---------------------------------------------------------------------
 Center     Atomic      Atomic             Coordinates (Angstroms)
 Number     Number       Type             X           Y           Z
 ---------------------------------------------------------------------
      1         12           0       -4.461502   -1.045666    0.229522
      2          6           0       -3.669629    2.226555    1.085161
      3          6           0       -4.336557   -0.004012   -3.065503
      4          6           0       -4.862591   -4.294316   -0.762369
      5          6           0       -3.472546   -2.006070    3.425967
      6          7           0       -3.960082    0.904608   -0.891568
      7          6           0       -3.709978    2.084252   -0.289602
      8          6           0       -3.406733    3.172799   -1.182402
      9          6           0       -3.893350    2.555655   -2.547176
     10          6           0       -4.098024    1.058070   -2.195347
     11          6           0       -5.147025    3.270233   -3.218111
     12          6           0       -1.898186    3.583532   -1.137311
     13          6           0       -1.553482    5.126309   -1.103214
     14          6           0       -0.140670    5.495771   -1.499974
     15          8           0        0.056686    6.215582   -2.459296
     16          8           0        0.785377    4.960413   -0.753323
     17          7           0       -4.649399   -2.028019   -1.637644
     18          6           0       -4.548856   -1.385248   -2.849581
     19          6           0       -4.866380   -2.390639   -3.902727
     20          6           0       -4.948345   -3.673373   -3.317157
     21          6           0       -4.920847   -3.406281   -1.865539
     22          6           0       -4.781327   -2.014017   -5.305110
     23          6           0       -5.111376   -4.979216   -3.998479
     24          8           0       -5.207190   -5.096513   -5.235285
     25          6           0       -5.478499   -6.088032   -3.177810
     26          7           0       -4.194069   -2.812873    1.105965
     27          6           0       -4.461023   -4.033150    0.526249
     28          6           0       -4.455513   -5.199845    1.623823
     29          6           0       -3.703722   -4.465052    2.816172
     30          6           0       -3.731338   -2.982966    2.429562
     31          6           0       -5.887921   -5.746843    1.846651
     32          6           0       -2.363770   -5.016360    3.261389
     33          6           0       -2.298661   -5.817088    4.545462
     34          7           0       -3.937330   -0.145615    2.001858
     35          6           0       -3.548513   -0.678441    3.179325
     36          6           0       -3.254905    0.368408    4.036765
     37          6           0       -3.325552    1.593999    3.323130
     38          6           0       -3.764293    1.167345    2.063025
     39          6           0       -2.708771    0.279649    5.452956
     40          6           0       -3.152227    3.050261    3.332865
     41          8           0       -2.713098    3.825797    4.187195
     42          6           0       -3.538489    3.522108    1.903811
     43          6           0       -4.754987    4.254997    1.841490
     44          8           0       -5.863011    3.791403    1.846644
     45          8           0       -4.499961    5.530847    1.461961
     46          6           0       -5.638791    6.466454    1.362416
     47          6           0        2.196280    5.192161   -1.134304
     48          6           0        2.976429    3.844210   -0.931362
     49          6           0        4.275984    3.748781   -0.617248
     50          6           0        5.172268    4.932998   -0.503876
     51          6           0        4.771619    2.354082   -0.345925
     52          6           0        5.123145    1.415152   -1.551433
     53          6           0        4.451825    0.015500   -1.532179
     54          6           0        5.533250   -1.110466   -1.512278
     55          6           0        4.847342   -2.419011   -2.094688
     56          6           0        6.073139   -1.301105   -0.078869
     57          6           0        7.146943   -2.364139    0.090415
     58          6           0        8.026657   -2.190153    1.323183
     59          6           0        9.572834   -2.152948    0.973551
     60          6           0       10.266211   -3.341831    1.600423
     61          6           0       10.360382   -0.859504    1.432098
     62          6           0       11.190562   -0.220623    0.318063
     63          6           0       12.700882   -0.265570    0.602991
     64          6           0       13.475558   -1.106661   -0.448737
     65          6           0       13.740564   -0.209997   -1.680782
     66          6           0       14.678143   -1.881609    0.030785
     67          1           0       -4.346015    0.389606   -4.083203
     68          1           0       -5.074875   -5.362076   -0.850555
     69          1           0       -3.148013   -2.266686    4.435545
     70          1           0       -4.046181    3.997030   -0.869582
     71          1           0       -3.091814    2.669511   -3.277380
     72          1           0       -5.418088    4.244855   -2.811802
     73          1           0       -6.022011    2.648890   -3.027566
     74          1           0       -4.970685    3.215890   -4.291914
     75          1           0       -1.409853    3.087084   -1.976186
     76          1           0       -1.463388    3.193354   -0.217421
     77          1           0       -1.845044    5.553355   -0.143053
     78          1           0       -2.284802    5.634059   -1.732453
     79          1           0       -3.821202   -1.596346   -5.609868
     80          1           0       -5.483548   -1.186984   -5.412829
     81          1           0       -4.988946   -2.869101   -5.947586
     82          1           0       -6.280285   -5.871477   -2.472130
     83          1           0       -4.550855   -6.322689   -2.655554
     84          1           0       -5.813777   -6.864635   -3.864112
     85          1           0       -4.010374   -6.058434    1.122183
     86          1           0       -4.345878   -4.386889    3.693336
     87          1           0       -6.092994   -6.750793    1.475148
     88          1           0       -6.570699   -5.085922    1.312499
     89          1           0       -6.122139   -5.731094    2.910726
     90          1           0       -1.608439   -4.231553    3.279783
     91          1           0       -2.043957   -5.635294    2.422088
     92          1           0       -1.950852   -6.850587    4.535376
     93          1           0       -3.317369   -5.829634    4.933288
     94          1           0       -1.715459   -5.411411    5.371710
     95          1           0       -2.741254    1.254106    5.940361
     96          1           0       -1.693633   -0.116938    5.403633
     97          1           0       -3.300938   -0.440584    6.017857
     98          1           0       -2.674154    4.080929    1.544415
     99          1           0       -5.789160    6.870826    2.363510
    100          1           0       -6.527137    5.946941    1.002818
    101          1           0       -5.393371    7.299229    0.704534
    102          1           0        2.545846    5.953794   -0.436609
    103          1           0        2.341384    5.415720   -2.191405
    104          1           0        2.329990    2.966798   -0.942294
    105          1           0        5.352299    5.070400    0.562365
    106          1           0        4.723165    5.782327   -1.020050
    107          1           0        6.103233    4.804959   -1.055651
    108          1           0        4.195499    1.717713    0.325630
    109          1           0        5.715436    2.557647    0.159373
    110          1           0        6.201580    1.307591   -1.670081
    111          1           0        4.869451    1.986174   -2.444231
    112          1           0        3.813401   -0.111048   -2.406412
    113          1           0        3.859322   -0.091028   -0.623951
    114          1           0        6.439790   -0.879346   -2.070520
    115          1           0        5.174934   -2.754107   -3.079016
    116          1           0        3.762021   -2.472146   -2.003436
    117          1           0        5.245151   -3.254023   -1.519076
    118          1           0        5.279462   -1.541797    0.627818
    119          1           0        6.614362   -0.367772    0.077969
    120          1           0        7.804378   -2.288698   -0.774982
    121          1           0        6.660174   -3.338663    0.101347
    122          1           0        7.792724   -3.033196    1.971865
    123          1           0        7.678828   -1.299656    1.848202
    124          1           0        9.760583   -2.448149   -0.058160
    125          1           0       10.385633   -3.404459    2.682078
    126          1           0       11.231022   -3.436284    1.101681
    127          1           0        9.626510   -4.202837    1.409584
    128          1           0       10.942306   -1.151255    2.306030
    129          1           0        9.578961   -0.246486    1.880585
    130          1           0       10.824503    0.805988    0.288268
    131          1           0       11.161769   -0.682434   -0.668910
    132          1           0       12.929474   -0.735217    1.559349
    133          1           0       13.133170    0.728086    0.722908
    134          1           0       12.761854   -1.787798   -0.911865
    135          1           0       14.399099   -0.776043   -2.338713
    136          1           0       14.123687    0.781729   -1.439869
    137          1           0       12.839992   -0.060907   -2.277001
    138          1           0       14.632133   -2.918093   -0.304077
    139          1           0       14.866798   -2.034730    1.093679
    140          1           0       15.628199   -1.526535   -0.367554
 ---------------------------------------------------------------------

 SCF Done:  E(RPBE1PBE) =  -3005.34646147     A.U. after   15 cycles

 Excitation energies and oscillator strengths:

 Excited State   1:      Singlet-A      1.8606 eV  666.37 nm  f=0.3568  <S**2>=0.000
     245 -> 248       -0.16047
     246 -> 247        0.69365
     246 <- 247       -0.11031
 This state for optimization and/or second-order correction.
 Total Energy, E(TD-HF/TD-DFT) =  -3005.27808601
 Copying the excited state density for this state as the 1-particle RhoCI density.

 Excited State   2:      Singlet-A      2.2832 eV  543.02 nm  f=0.0864  <S**2>=0.000
     245 -> 247        0.64081
     246 -> 248        0.27491

 Excited State   3:      Singlet-A      3.0192 eV  410.65 nm  f=0.0011  <S**2>=0.000
     242 -> 247        0.17266
     243 -> 247        0.64281
     246 -> 248       -0.13385

 Excited State   4:      Singlet-A      3.1014 eV  399.76 nm  f=0.0012  <S**2>=0.000
     241 -> 247        0.48004
     241 -> 248       -0.10046
     241 -> 249        0.10966
     242 -> 247        0.41321
     243 -> 247       -0.20327

 Excited State   5:      Singlet-A      3.1401 eV  394.84 nm  f=0.0186  <S**2>=0.000
     240 -> 247        0.40940
     241 -> 247        0.33767
     242 -> 247       -0.30269
     246 -> 248        0.29548

 The electronic state is 1-A.
 Alpha  occ. eigenvalues --  -46.91620 -19.26379 -19.25765 -19.19837 -19.19564
 Alpha  occ. eigenvalues --  -19.18877 -19.18506 -14.41927 -14.41588 -14.39775
 Alpha  occ. eigenvalues --  -14.38532 -10.35967 -10.35575 -10.32832 -10.31666
 Alpha  occ. eigenvalues --  -10.30056 -10.29466 -10.29343 -10.29136 -10.29081
 Alpha  occ. eigenvalues --  -10.28838 -10.28253 -10.27855 -10.26583 -10.26548
 Alpha  occ. eigenvalues --  -10.26489 -10.26125 -10.25953 -10.25904 -10.25852
 Alpha  occ. eigenvalues --  -10.25600 -10.25580 -10.25356 -10.24973 -10.24876
 Alpha  occ. eigenvalues --  -10.24719 -10.24659 -10.24594 -10.24561 -10.24283
 Alpha  occ. eigenvalues --  -10.24197 -10.24041 -10.23910 -10.23749 -10.23741
 Alpha  occ. eigenvalues --  -10.23375 -10.23308 -10.23191 -10.23096 -10.23052
 Alpha  occ. eigenvalues --  -10.22939 -10.22916 -10.22758 -10.22722 -10.22630
 Alpha  occ. eigenvalues --  -10.22474 -10.22383 -10.22270 -10.22205 -10.22137
 Alpha  occ. eigenvalues --  -10.21889 -10.21810 -10.21808 -10.21795 -10.21697
 Alpha  occ. eigenvalues --  -10.21277  -3.13925  -1.86747  -1.86304  -1.86152
 Alpha  occ. eigenvalues --   -1.12971  -1.12213  -1.04152  -1.03719  -1.03257
 Alpha  occ. eigenvalues --   -1.02443  -1.00561  -0.99746  -0.97086  -0.95991
 Alpha  occ. eigenvalues --   -0.87834  -0.84806  -0.84121  -0.83965  -0.83937
 Alpha  occ. eigenvalues --   -0.83177  -0.82931  -0.81916  -0.81672  -0.81451
 Alpha  occ. eigenvalues --   -0.81218  -0.79791  -0.79407  -0.79066  -0.78431
 Alpha  occ. eigenvalues --   -0.77530  -0.76759  -0.76157  -0.75971  -0.75301
 Alpha  occ. eigenvalues --   -0.74307  -0.72724  -0.72325  -0.72257  -0.70960
 Alpha  occ. eigenvalues --   -0.70209  -0.70083  -0.69336  -0.68718  -0.68521
 Alpha  occ. eigenvalues --   -0.67673  -0.67203  -0.66198  -0.65280  -0.64196
 Alpha  occ. eigenvalues --   -0.63495  -0.62530  -0.62167  -0.61238  -0.60910
 Alpha  occ. eigenvalues --   -0.60248  -0.59899  -0.59629  -0.59578  -0.58230
 Alpha  occ. eigenvalues --   -0.58125  -0.57346  -0.57059  -0.56637  -0.55113
 Alpha  occ. eigenvalues --   -0.54594  -0.54298  -0.54118  -0.53720  -0.53516
 Alpha  occ. eigenvalues --   -0.52467  -0.51995  -0.50971  -0.50931  -0.50690
 Alpha  occ. eigenvalues --   -0.49954  -0.49522  -0.49330  -0.49134  -0.48484
 Alpha  occ. eigenvalues --   -0.48403  -0.48294  -0.47939  -0.47801  -0.47663
 Alpha  occ. eigenvalues --   -0.47432  -0.47184  -0.47009  -0.46950  -0.46531
 Alpha  occ. eigenvalues --   -0.46325  -0.46199  -0.45909  -0.45764  -0.45510
 Alpha  occ. eigenvalues --   -0.45092  -0.44756  -0.44685  -0.44517  -0.44483
 Alpha  occ. eigenvalues --   -0.44215  -0.44117  -0.44042  -0.43766  -0.43689
 Alpha  occ. eigenvalues --   -0.43490  -0.43358  -0.43109  -0.42916  -0.42686
 Alpha  occ. eigenvalues --   -0.42504  -0.42207  -0.41841  -0.41656  -0.41368
 Alpha  occ. eigenvalues --   -0.41303  -0.41257  -0.40768  -0.40515  -0.40465
 Alpha  occ. eigenvalues --   -0.40134  -0.39944  -0.39792  -0.39537  -0.39310
 Alpha  occ. eigenvalues --   -0.39229  -0.39081  -0.39030  -0.38867  -0.38827
 Alpha  occ. eigenvalues --   -0.38726  -0.38620  -0.38195  -0.38044  -0.37889
 Alpha  occ. eigenvalues --   -0.37724  -0.37363  -0.37168  -0.36911  -0.36801
 Alpha  occ. eigenvalues --   -0.36638  -0.36468  -0.36328  -0.36252  -0.36008
 Alpha  occ. eigenvalues --   -0.35904  -0.35657  -0.35391  -0.35308  -0.35183
 Alpha  occ. eigenvalues --   -0.34894  -0.34764  -0.34359  -0.34257  -0.34035
 Alpha  occ. eigenvalues --   -0.33315  -0.33040  -0.32724  -0.32611  -0.32342
 Alpha  occ. eigenvalues --   -0.32279  -0.31951  -0.31836  -0.31809  -0.31358
 Alpha  occ. eigenvalues --   -0.31112  -0.30368  -0.29743  -0.29721  -0.29557
 Alpha  occ. eigenvalues --   -0.29495  -0.29426  -0.27954  -0.27165  -0.26214
 Alpha  occ. eigenvalues --   -0.26006  -0.25636  -0.25422  -0.25100  -0.21441
 Alpha  occ. eigenvalues --   -0.18899
 Alpha virt. eigenvalues --   -0.11315  -0.05622  -0.04194  -0.02762  -0.00424
 Alpha virt. eigenvalues --    0.00196   0.00855   0.01190   0.01855   0.03201
 Alpha virt. eigenvalues --    0.04309   0.04463   0.05146   0.05306   0.05651

 Mulliken charges:
               1
     1  Mg   0.998315
     2  C   -0.109587
     3  C   -0.071976
     4  C   -0.085351
     5  C   -0.111239
     6  N   -0.331270
     7  C   -0.002368
     8  C   -0.073923
     9  C   -0.121720
    10  C    0.045325
    11  C    0.008425
    12  C    0.004456
    13  C   -0.007717
    14  C    0.195562
    15  O   -0.273757
    16  O   -0.326690
    17  N   -0.494229
    18  C    0.200131
    19  C   -0.164231
    20  C   -0.078301
    21  C    0.211558
    22  C    0.051492
    23  C    0.053951
    24  O   -0.256188
    25  C   -0.023634
    26  N   -0.478010
    27  C    0.064543
    28  C   -0.134547
    29  C   -0.096799
    30  C    0.132638
    31  C    0.000046
    32  C    0.024217
    33  C   -0.070922
    34  N   -0.469933
    35  C    0.165478
    36  C   -0.215916
    37  C   -0.059064
    38  C    0.214118
    39  C    0.062814
    40  C    0.152999
    41  O   -0.224748
    42  C   -0.101019
    43  C    0.311100
    44  O   -0.234309
    45  O   -0.376480
    46  C    0.118435
    47  C    0.208806
    48  C   -0.125762
    49  C   -0.235751
    50  C    0.025958
    51  C    0.021139
    52  C   -0.035098
    53  C    0.019880
    54  C   -0.223850
    55  C   -0.012988
    56  C   -0.041622
    57  C   -0.060271
    58  C    0.034677
    59  C   -0.228794
    60  C   -0.041975
    61  C    0.028285
    62  C   -0.010856
    63  C   -0.006457
    64  C   -0.251624
    65  C   -0.025919
    66  C   -0.004689
    67  H   -0.002410
    68  H   -0.008852
    69  H    0.008550
    70  H    0.047979
    71  H    0.049444
    72  H    0.055309
    73  H    0.041185
    74  H    0.051606
    75  H    0.041090
    76  H    0.061506
    77  H    0.064425
    78  H    0.041701
    79  H    0.056664
    80  H    0.044331
    81  H    0.069493
    82  H    0.080184
    83  H    0.064909
    84  H    0.057392
    85  H    0.042583
    86  H    0.047925
    87  H    0.043877
    88  H    0.048233
    89  H    0.044087
    90  H    0.039763
    91  H    0.033784
    92  H    0.044170
    93  H    0.026963
    94  H    0.038680
    95  H    0.065303
    96  H    0.055855
    97  H    0.037855
    98  H    0.075462
    99  H    0.064199
   100  H    0.069260
   101  H    0.060897
   102  H    0.069631
   103  H    0.084505
   104  H    0.031798
   105  H    0.069568
   106  H    0.040732
   107  H    0.045783
   108  H    0.041546
   109  H    0.010802
   110  H    0.027018
   111  H    0.025006
   112  H    0.038861
   113  H    0.029420
   114  H    0.031401
   115  H    0.034541
   116  H    0.040914
   117  H    0.007065
   118  H    0.030681
   119  H    0.029564
   120  H    0.020329
   121  H    0.037315
   122  H    0.019076
   123  H    0.023480
   124  H    0.036469
   125  H    0.032289
   126  H    0.036291
   127  H    0.022608
   128  H    0.025010
   129  H    0.012548
   130  H    0.030706
   131  H    0.036261
   132  H    0.015605
   133  H    0.024526
   134  H    0.034340
   135  H    0.031009
   136  H    0.038285
   137  H    0.028733
   138  H    0.027181
   139  H    0.030586
   140  H    0.030352
 Sum of Mulliken charges =  -0.00000

 Dipole moment (field-independent basis, Debye):
    X=              1.3618    Y=             -2.4623    Z=              1.5662  Tot=              3.2203
 Quadrupole moment (field-independent basis, Debye-Ang):
   XX=           -383.3059   YY=           -393.7571   ZZ=           -431.2547
   XY=              0.0290   XZ=             -7.0265   YZ=            -33.2410

 Normal termination of Gaussian 16 at Wed May  4 06:28:14 2022.
