 Gaussian 16, Revision A.03,
 Gaussian 16:  ES64L-G16RevA.03 25-Dec-2016

 --------------------------------
 #p wB97XD/Def2SVP td=(nstates=5)
 --------------------------------

 ----------------------------------------------------
 step_1401_chromophore_8 TDDFT with wB97XD functional
 ----------------------------------------------------
 Symbolic Z-matrix:
 Charge =  0 Multiplicity = 1

                         Standard orientation:
 ---------------------------------------------------------------------
 Center     Atomic      Atomic             Coordinates (Angstroms)
 Number     Number       Type             X           Y           Z
 ---------------------------------------------------------------------
      1         12           0       -4.461502   -1.045666    0.229522
      2          6           0       -3.669629    2.226555    1.085161
      3          6           0       -4.336557   -0.004012   -3.065503
      4          6           0       -4.862591   -4.294316   -0.762369
      5          6           0       -3.472546   -2.006070    3.425967
      6          7           0       -3.960082    0.904608   -0.891568
      7          6           0       -3.709978    2.084252   -0.289602
      8          6           0       -3.406733    3.172799   -1.182402
      9          6           0       -3.893350    2.555655   -2.547176
     10          6           0       -4.098024    1.058070   -2.195347
     11          6           0       -5.147025    3.270233   -3.218111
     12          6           0       -1.898186    3.583532   -1.137311
     13          6           0       -1.553482    5.126309   -1.103214
     14          6           0       -0.140670    5.495771   -1.499974
     15          8           0        0.056686    6.215582   -2.459296
     16          8           0        0.785377    4.960413   -0.753323
     17          7           0       -4.649399   -2.028019   -1.637644
     18          6           0       -4.548856   -1.385248   -2.849581
     19          6           0       -4.866380   -2.390639   -3.902727
     20          6           0       -4.948345   -3.673373   -3.317157
     21          6           0       -4.920847   -3.406281   -1.865539
     22          6           0       -4.781327   -2.014017   -5.305110
     23          6           0       -5.111376   -4.979216   -3.998479
     24          8           0       -5.207190   -5.096513   -5.235285
     25          6           0       -5.478499   -6.088032   -3.177810
     26          7           0       -4.194069   -2.812873    1.105965
     27          6           0       -4.461023   -4.033150    0.526249
     28          6           0       -4.455513   -5.199845    1.623823
     29          6           0       -3.703722   -4.465052    2.816172
     30          6           0       -3.731338   -2.982966    2.429562
     31          6           0       -5.887921   -5.746843    1.846651
     32          6           0       -2.363770   -5.016360    3.261389
     33          6           0       -2.298661   -5.817088    4.545462
     34          7           0       -3.937330   -0.145615    2.001858
     35          6           0       -3.548513   -0.678441    3.179325
     36          6           0       -3.254905    0.368408    4.036765
     37          6           0       -3.325552    1.593999    3.323130
     38          6           0       -3.764293    1.167345    2.063025
     39          6           0       -2.708771    0.279649    5.452956
     40          6           0       -3.152227    3.050261    3.332865
     41          8           0       -2.713098    3.825797    4.187195
     42          6           0       -3.538489    3.522108    1.903811
     43          6           0       -4.754987    4.254997    1.841490
     44          8           0       -5.863011    3.791403    1.846644
     45          8           0       -4.499961    5.530847    1.461961
     46          6           0       -5.638791    6.466454    1.362416
     47          6           0        2.196280    5.192161   -1.134304
     48          6           0        2.976429    3.844210   -0.931362
     49          6           0        4.275984    3.748781   -0.617248
     50          6           0        5.172268    4.932998   -0.503876
     51          6           0        4.771619    2.354082   -0.345925
     52          6           0        5.123145    1.415152   -1.551433
     53          6           0        4.451825    0.015500   -1.532179
     54          6           0        5.533250   -1.110466   -1.512278
     55          6           0        4.847342   -2.419011   -2.094688
     56          6           0        6.073139   -1.301105   -0.078869
     57          6           0        7.146943   -2.364139    0.090415
     58          6           0        8.026657   -2.190153    1.323183
     59          6           0        9.572834   -2.152948    0.973551
     60          6           0       10.266211   -3.341831    1.600423
     61          6           0       10.360382   -0.859504    1.432098
     62          6           0       11.190562   -0.220623    0.318063
     63          6           0       12.700882   -0.265570    0.602991
     64          6           0       13.475558   -1.106661   -0.448737
     65          6           0       13.740564   -0.209997   -1.680782
     66          6           0       14.678143   -1.881609    0.030785
     67          1           0       -4.346015    0.389606   -4.083203
     68          1           0       -5.074875   -5.362076   -0.850555
     69          1           0       -3.148013   -2.266686    4.435545
     70          1           0       -4.046181    3.997030   -0.869582
     71          1           0       -3.091814    2.669511   -3.277380
     72          1           0       -5.418088    4.244855   -2.811802
     73          1           0       -6.022011    2.648890   -3.027566
     74          1           0       -4.970685    3.215890   -4.291914
     75          1           0       -1.409853    3.087084   -1.976186
     76          1           0       -1.463388    3.193354   -0.217421
     77          1           0       -1.845044    5.553355   -0.143053
     78          1           0       -2.284802    5.634059   -1.732453
     79          1           0       -3.821202   -1.596346   -5.609868
     80          1           0       -5.483548   -1.186984   -5.412829
     81          1           0       -4.988946   -2.869101   -5.947586
     82          1           0       -6.280285   -5.871477   -2.472130
     83          1           0       -4.550855   -6.322689   -2.655554
     84          1           0       -5.813777   -6.864635   -3.864112
     85          1           0       -4.010374   -6.058434    1.122183
     86          1           0       -4.345878   -4.386889    3.693336
     87          1           0       -6.092994   -6.750793    1.475148
     88          1           0       -6.570699   -5.085922    1.312499
     89          1           0       -6.122139   -5.731094    2.910726
     90          1           0       -1.608439   -4.231553    3.279783
     91          1           0       -2.043957   -5.635294    2.422088
     92          1           0       -1.950852   -6.850587    4.535376
     93          1           0       -3.317369   -5.829634    4.933288
     94          1           0       -1.715459   -5.411411    5.371710
     95          1           0       -2.741254    1.254106    5.940361
     96          1           0       -1.693633   -0.116938    5.403633
     97          1           0       -3.300938   -0.440584    6.017857
     98          1           0       -2.674154    4.080929    1.544415
     99          1           0       -5.789160    6.870826    2.363510
    100          1           0       -6.527137    5.946941    1.002818
    101          1           0       -5.393371    7.299229    0.704534
    102          1           0        2.545846    5.953794   -0.436609
    103          1           0        2.341384    5.415720   -2.191405
    104          1           0        2.329990    2.966798   -0.942294
    105          1           0        5.352299    5.070400    0.562365
    106          1           0        4.723165    5.782327   -1.020050
    107          1           0        6.103233    4.804959   -1.055651
    108          1           0        4.195499    1.717713    0.325630
    109          1           0        5.715436    2.557647    0.159373
    110          1           0        6.201580    1.307591   -1.670081
    111          1           0        4.869451    1.986174   -2.444231
    112          1           0        3.813401   -0.111048   -2.406412
    113          1           0        3.859322   -0.091028   -0.623951
    114          1           0        6.439790   -0.879346   -2.070520
    115          1           0        5.174934   -2.754107   -3.079016
    116          1           0        3.762021   -2.472146   -2.003436
    117          1           0        5.245151   -3.254023   -1.519076
    118          1           0        5.279462   -1.541797    0.627818
    119          1           0        6.614362   -0.367772    0.077969
    120          1           0        7.804378   -2.288698   -0.774982
    121          1           0        6.660174   -3.338663    0.101347
    122          1           0        7.792724   -3.033196    1.971865
    123          1           0        7.678828   -1.299656    1.848202
    124          1           0        9.760583   -2.448149   -0.058160
    125          1           0       10.385633   -3.404459    2.682078
    126          1           0       11.231022   -3.436284    1.101681
    127          1           0        9.626510   -4.202837    1.409584
    128          1           0       10.942306   -1.151255    2.306030
    129          1           0        9.578961   -0.246486    1.880585
    130          1           0       10.824503    0.805988    0.288268
    131          1           0       11.161769   -0.682434   -0.668910
    132          1           0       12.929474   -0.735217    1.559349
    133          1           0       13.133170    0.728086    0.722908
    134          1           0       12.761854   -1.787798   -0.911865
    135          1           0       14.399099   -0.776043   -2.338713
    136          1           0       14.123687    0.781729   -1.439869
    137          1           0       12.839992   -0.060907   -2.277001
    138          1           0       14.632133   -2.918093   -0.304077
    139          1           0       14.866798   -2.034730    1.093679
    140          1           0       15.628199   -1.526535   -0.367554
 ---------------------------------------------------------------------

 SCF Done:  E(RwB97XD) =  -3007.85363102     A.U. after   19 cycles

 Excitation energies and oscillator strengths:

 Excited State   1:      Singlet-A      1.6787 eV  738.56 nm  f=0.3703  <S**2>=0.000
     245 -> 248       -0.17214
     246 -> 247        0.68411
     245 <- 248       -0.11044
 This state for optimization and/or second-order correction.
 Total Energy, E(TD-HF/TD-DFT) =  -3007.79193872
 Copying the excited state density for this state as the 1-particle RhoCI density.

 Excited State   2:      Singlet-A      2.2308 eV  555.79 nm  f=0.0856  <S**2>=0.000
     245 -> 247        0.62457
     246 -> 248        0.30760

 Excited State   3:      Singlet-A      3.3597 eV  369.04 nm  f=0.0578  <S**2>=0.000
     242 -> 247        0.56099
     243 -> 247        0.14298
     244 -> 247       -0.23097
     246 -> 248       -0.28067

 Excited State   4:      Singlet-A      3.5218 eV  352.05 nm  f=0.2058  <S**2>=0.000
     241 -> 247       -0.12322
     243 -> 247       -0.31821
     244 -> 247        0.41332
     245 -> 247        0.16647
     246 -> 248       -0.39552

 Excited State   5:      Singlet-A      3.5617 eV  348.10 nm  f=0.0392  <S**2>=0.000
     240 -> 247        0.45536
     240 -> 248       -0.20423
     240 -> 249        0.34275
     240 -> 250        0.21415
     246 -> 248        0.11528

 The electronic state is 1-A.
 Alpha  occ. eigenvalues --  -46.94563 -19.30916 -19.30306 -19.24525 -19.24173
 Alpha  occ. eigenvalues --  -19.23874 -19.23122 -14.46910 -14.46808 -14.44871
 Alpha  occ. eigenvalues --  -14.43307 -10.42784 -10.42325 -10.39527 -10.38704
 Alpha  occ. eigenvalues --  -10.36522 -10.35892 -10.35834 -10.35587 -10.35468
 Alpha  occ. eigenvalues --  -10.35381 -10.34958 -10.33980 -10.33028 -10.32862
 Alpha  occ. eigenvalues --  -10.32836 -10.32524 -10.32120 -10.32016 -10.31905
 Alpha  occ. eigenvalues --  -10.31904 -10.31827 -10.31654 -10.31610 -10.31550
 Alpha  occ. eigenvalues --  -10.31103 -10.30969 -10.30777 -10.30754 -10.30650
 Alpha  occ. eigenvalues --  -10.30615 -10.30326 -10.30271 -10.30189 -10.30006
 Alpha  occ. eigenvalues --  -10.29676 -10.29636 -10.29636 -10.29439 -10.29382
 Alpha  occ. eigenvalues --  -10.29306 -10.29284 -10.29114 -10.29070 -10.28986
 Alpha  occ. eigenvalues --  -10.28833 -10.28756 -10.28616 -10.28547 -10.28502
 Alpha  occ. eigenvalues --  -10.28236 -10.28230 -10.28225 -10.28160 -10.28116
 Alpha  occ. eigenvalues --  -10.27709  -3.20720  -1.94294  -1.93848  -1.93698
 Alpha  occ. eigenvalues --   -1.20298  -1.19579  -1.11458  -1.11411  -1.10591
 Alpha  occ. eigenvalues --   -1.09731  -1.07926  -1.06886  -1.04596  -1.03539
 Alpha  occ. eigenvalues --   -0.95350  -0.92465  -0.91760  -0.91577  -0.91504
 Alpha  occ. eigenvalues --   -0.90830  -0.90561  -0.89582  -0.89357  -0.89319
 Alpha  occ. eigenvalues --   -0.88673  -0.87405  -0.87055  -0.86679  -0.86095
 Alpha  occ. eigenvalues --   -0.85254  -0.84410  -0.83761  -0.83603  -0.82926
 Alpha  occ. eigenvalues --   -0.81954  -0.80312  -0.80049  -0.79867  -0.78517
 Alpha  occ. eigenvalues --   -0.77865  -0.77760  -0.76918  -0.76383  -0.76179
 Alpha  occ. eigenvalues --   -0.75257  -0.74732  -0.73755  -0.72885  -0.71678
 Alpha  occ. eigenvalues --   -0.70994  -0.70159  -0.69855  -0.68859  -0.68495
 Alpha  occ. eigenvalues --   -0.67697  -0.67305  -0.67250  -0.67040  -0.65838
 Alpha  occ. eigenvalues --   -0.65654  -0.64981  -0.64408  -0.64266  -0.62508
 Alpha  occ. eigenvalues --   -0.62089  -0.61820  -0.61484  -0.61253  -0.60864
 Alpha  occ. eigenvalues --   -0.59902  -0.59450  -0.58474  -0.58384  -0.58090
 Alpha  occ. eigenvalues --   -0.57298  -0.56829  -0.56812  -0.56500  -0.55840
 Alpha  occ. eigenvalues --   -0.55741  -0.55667  -0.55456  -0.55341  -0.55048
 Alpha  occ. eigenvalues --   -0.54920  -0.54502  -0.54304  -0.54296  -0.53909
 Alpha  occ. eigenvalues --   -0.53637  -0.53543  -0.53156  -0.53033  -0.52864
 Alpha  occ. eigenvalues --   -0.52546  -0.52103  -0.52015  -0.51829  -0.51790
 Alpha  occ. eigenvalues --   -0.51545  -0.51456  -0.51314  -0.51096  -0.50952
 Alpha  occ. eigenvalues --   -0.50818  -0.50723  -0.50296  -0.50107  -0.49919
 Alpha  occ. eigenvalues --   -0.49774  -0.49470  -0.49287  -0.48785  -0.48612
 Alpha  occ. eigenvalues --   -0.48533  -0.48443  -0.47907  -0.47825  -0.47664
 Alpha  occ. eigenvalues --   -0.47390  -0.47188  -0.47011  -0.46736  -0.46456
 Alpha  occ. eigenvalues --   -0.46387  -0.46318  -0.46138  -0.46033  -0.45948
 Alpha  occ. eigenvalues --   -0.45854  -0.45795  -0.45345  -0.45191  -0.45042
 Alpha  occ. eigenvalues --   -0.44891  -0.44468  -0.44197  -0.43953  -0.43926
 Alpha  occ. eigenvalues --   -0.43621  -0.43586  -0.43518  -0.43294  -0.43134
 Alpha  occ. eigenvalues --   -0.43036  -0.42662  -0.42426  -0.42342  -0.42269
 Alpha  occ. eigenvalues --   -0.41850  -0.41816  -0.41358  -0.41272  -0.41005
 Alpha  occ. eigenvalues --   -0.40365  -0.40080  -0.39789  -0.39611  -0.39369
 Alpha  occ. eigenvalues --   -0.39266  -0.38941  -0.38861  -0.38802  -0.38333
 Alpha  occ. eigenvalues --   -0.38049  -0.37318  -0.36709  -0.36605  -0.36516
 Alpha  occ. eigenvalues --   -0.36428  -0.36108  -0.35006  -0.33804  -0.33362
 Alpha  occ. eigenvalues --   -0.33108  -0.32344  -0.31851  -0.31813  -0.26519
 Alpha  occ. eigenvalues --   -0.23094
 Alpha virt. eigenvalues --   -0.07153  -0.00166   0.02019   0.03736   0.05533
 Alpha virt. eigenvalues --    0.06985   0.07559   0.07912   0.08715   0.09541
 Alpha virt. eigenvalues --    0.10913   0.11362   0.11780   0.12024   0.12341

 Mulliken charges:
               1
     1  Mg   0.987849
     2  C   -0.104931
     3  C   -0.085490
     4  C   -0.097491
     5  C   -0.134336
     6  N   -0.290451
     7  C   -0.032842
     8  C   -0.045929
     9  C   -0.096765
    10  C    0.027736
    11  C    0.018655
    12  C    0.013491
    13  C    0.009040
    14  C    0.185681
    15  O   -0.271924
    16  O   -0.325366
    17  N   -0.465805
    18  C    0.192341
    19  C   -0.152598
    20  C   -0.073835
    21  C    0.206715
    22  C    0.063413
    23  C    0.049116
    24  O   -0.249156
    25  C   -0.007595
    26  N   -0.449118
    27  C    0.059688
    28  C   -0.111475
    29  C   -0.063480
    30  C    0.118790
    31  C    0.009445
    32  C    0.034338
    33  C   -0.053867
    34  N   -0.427831
    35  C    0.160179
    36  C   -0.215324
    37  C   -0.058925
    38  C    0.180917
    39  C    0.073060
    40  C    0.136234
    41  O   -0.216822
    42  C   -0.050801
    43  C    0.281288
    44  O   -0.228561
    45  O   -0.374006
    46  C    0.133622
    47  C    0.221512
    48  C   -0.138504
    49  C   -0.219597
    50  C    0.040128
    51  C    0.041266
    52  C   -0.023120
    53  C    0.035765
    54  C   -0.192058
    55  C   -0.000962
    56  C   -0.022905
    57  C   -0.041269
    58  C    0.046153
    59  C   -0.199631
    60  C   -0.026079
    61  C    0.043883
    62  C    0.008263
    63  C    0.005433
    64  C   -0.213204
    65  C   -0.016240
    66  C    0.004228
    67  H   -0.007391
    68  H   -0.018421
    69  H    0.003575
    70  H    0.030203
    71  H    0.039895
    72  H    0.051657
    73  H    0.034168
    74  H    0.046507
    75  H    0.032964
    76  H    0.051878
    77  H    0.058553
    78  H    0.035023
    79  H    0.053429
    80  H    0.038680
    81  H    0.067013
    82  H    0.074148
    83  H    0.058380
    84  H    0.056877
    85  H    0.032536
    86  H    0.032944
    87  H    0.039353
    88  H    0.040313
    89  H    0.039270
    90  H    0.032690
    91  H    0.024375
    92  H    0.038838
    93  H    0.018581
    94  H    0.033211
    95  H    0.061534
    96  H    0.049221
    97  H    0.030592
    98  H    0.061714
    99  H    0.060212
   100  H    0.065377
   101  H    0.057479
   102  H    0.064901
   103  H    0.080450
   104  H    0.029153
   105  H    0.064676
   106  H    0.035153
   107  H    0.040477
   108  H    0.032913
   109  H    0.001849
   110  H    0.018303
   111  H    0.016273
   112  H    0.031726
   113  H    0.018120
   114  H    0.019164
   115  H    0.029565
   116  H    0.035528
   117  H   -0.002109
   118  H    0.022625
   119  H    0.014416
   120  H    0.008012
   121  H    0.028450
   122  H    0.011722
   123  H    0.014090
   124  H    0.022353
   125  H    0.026245
   126  H    0.027742
   127  H    0.014708
   128  H    0.014761
   129  H    0.004640
   130  H    0.024681
   131  H    0.022398
   132  H    0.003749
   133  H    0.017059
   134  H    0.019425
   135  H    0.024734
   136  H    0.031956
   137  H    0.022905
   138  H    0.021520
   139  H    0.025734
   140  H    0.024617
 Sum of Mulliken charges =  -0.00000

 Dipole moment (field-independent basis, Debye):
    X=              1.1382    Y=             -2.6870    Z=              0.9623  Tot=              3.0727
 Quadrupole moment (field-independent basis, Debye-Ang):
   XX=           -381.2223   YY=           -392.7417   ZZ=           -431.1376
   XY=              1.2323   XZ=             -4.3552   YZ=            -31.8042

 Normal termination of Gaussian 16 at Wed May  4 06:55:37 2022.
