 Gaussian 16, Revision A.03,
 Gaussian 16:  ES64L-G16RevA.03 25-Dec-2016

 --------------------
 #p ZINDO=(nstates=5)
 --------------------

 -----------------------------
 step_1401_chromophore_8 ZINDO
 -----------------------------
 Symbolic Z-matrix:
 Charge =  0 Multiplicity = 1

                         Standard orientation:
 ---------------------------------------------------------------------
 Center     Atomic      Atomic             Coordinates (Angstroms)
 Number     Number       Type             X           Y           Z
 ---------------------------------------------------------------------
      1         12           0       -4.461502   -1.045666    0.229522
      2          6           0       -3.669629    2.226555    1.085161
      3          6           0       -4.336557   -0.004012   -3.065503
      4          6           0       -4.862591   -4.294316   -0.762369
      5          6           0       -3.472546   -2.006070    3.425967
      6          7           0       -3.960082    0.904608   -0.891568
      7          6           0       -3.709978    2.084252   -0.289602
      8          6           0       -3.406733    3.172799   -1.182402
      9          6           0       -3.893350    2.555655   -2.547176
     10          6           0       -4.098024    1.058070   -2.195347
     11          6           0       -5.147025    3.270233   -3.218111
     12          6           0       -1.898186    3.583532   -1.137311
     13          6           0       -1.553482    5.126309   -1.103214
     14          6           0       -0.140670    5.495771   -1.499974
     15          8           0        0.056686    6.215582   -2.459296
     16          8           0        0.785377    4.960413   -0.753323
     17          7           0       -4.649399   -2.028019   -1.637644
     18          6           0       -4.548856   -1.385248   -2.849581
     19          6           0       -4.866380   -2.390639   -3.902727
     20          6           0       -4.948345   -3.673373   -3.317157
     21          6           0       -4.920847   -3.406281   -1.865539
     22          6           0       -4.781327   -2.014017   -5.305110
     23          6           0       -5.111376   -4.979216   -3.998479
     24          8           0       -5.207190   -5.096513   -5.235285
     25          6           0       -5.478499   -6.088032   -3.177810
     26          7           0       -4.194069   -2.812873    1.105965
     27          6           0       -4.461023   -4.033150    0.526249
     28          6           0       -4.455513   -5.199845    1.623823
     29          6           0       -3.703722   -4.465052    2.816172
     30          6           0       -3.731338   -2.982966    2.429562
     31          6           0       -5.887921   -5.746843    1.846651
     32          6           0       -2.363770   -5.016360    3.261389
     33          6           0       -2.298661   -5.817088    4.545462
     34          7           0       -3.937330   -0.145615    2.001858
     35          6           0       -3.548513   -0.678441    3.179325
     36          6           0       -3.254905    0.368408    4.036765
     37          6           0       -3.325552    1.593999    3.323130
     38          6           0       -3.764293    1.167345    2.063025
     39          6           0       -2.708771    0.279649    5.452956
     40          6           0       -3.152227    3.050261    3.332865
     41          8           0       -2.713098    3.825797    4.187195
     42          6           0       -3.538489    3.522108    1.903811
     43          6           0       -4.754987    4.254997    1.841490
     44          8           0       -5.863011    3.791403    1.846644
     45          8           0       -4.499961    5.530847    1.461961
     46          6           0       -5.638791    6.466454    1.362416
     47          6           0        2.196280    5.192161   -1.134304
     48          6           0        2.976429    3.844210   -0.931362
     49          6           0        4.275984    3.748781   -0.617248
     50          6           0        5.172268    4.932998   -0.503876
     51          6           0        4.771619    2.354082   -0.345925
     52          6           0        5.123145    1.415152   -1.551433
     53          6           0        4.451825    0.015500   -1.532179
     54          6           0        5.533250   -1.110466   -1.512278
     55          6           0        4.847342   -2.419011   -2.094688
     56          6           0        6.073139   -1.301105   -0.078869
     57          6           0        7.146943   -2.364139    0.090415
     58          6           0        8.026657   -2.190153    1.323183
     59          6           0        9.572834   -2.152948    0.973551
     60          6           0       10.266211   -3.341831    1.600423
     61          6           0       10.360382   -0.859504    1.432098
     62          6           0       11.190562   -0.220623    0.318063
     63          6           0       12.700882   -0.265570    0.602991
     64          6           0       13.475558   -1.106661   -0.448737
     65          6           0       13.740564   -0.209997   -1.680782
     66          6           0       14.678143   -1.881609    0.030785
     67          1           0       -4.346015    0.389606   -4.083203
     68          1           0       -5.074875   -5.362076   -0.850555
     69          1           0       -3.148013   -2.266686    4.435545
     70          1           0       -4.046181    3.997030   -0.869582
     71          1           0       -3.091814    2.669511   -3.277380
     72          1           0       -5.418088    4.244855   -2.811802
     73          1           0       -6.022011    2.648890   -3.027566
     74          1           0       -4.970685    3.215890   -4.291914
     75          1           0       -1.409853    3.087084   -1.976186
     76          1           0       -1.463388    3.193354   -0.217421
     77          1           0       -1.845044    5.553355   -0.143053
     78          1           0       -2.284802    5.634059   -1.732453
     79          1           0       -3.821202   -1.596346   -5.609868
     80          1           0       -5.483548   -1.186984   -5.412829
     81          1           0       -4.988946   -2.869101   -5.947586
     82          1           0       -6.280285   -5.871477   -2.472130
     83          1           0       -4.550855   -6.322689   -2.655554
     84          1           0       -5.813777   -6.864635   -3.864112
     85          1           0       -4.010374   -6.058434    1.122183
     86          1           0       -4.345878   -4.386889    3.693336
     87          1           0       -6.092994   -6.750793    1.475148
     88          1           0       -6.570699   -5.085922    1.312499
     89          1           0       -6.122139   -5.731094    2.910726
     90          1           0       -1.608439   -4.231553    3.279783
     91          1           0       -2.043957   -5.635294    2.422088
     92          1           0       -1.950852   -6.850587    4.535376
     93          1           0       -3.317369   -5.829634    4.933288
     94          1           0       -1.715459   -5.411411    5.371710
     95          1           0       -2.741254    1.254106    5.940361
     96          1           0       -1.693633   -0.116938    5.403633
     97          1           0       -3.300938   -0.440584    6.017857
     98          1           0       -2.674154    4.080929    1.544415
     99          1           0       -5.789160    6.870826    2.363510
    100          1           0       -6.527137    5.946941    1.002818
    101          1           0       -5.393371    7.299229    0.704534
    102          1           0        2.545846    5.953794   -0.436609
    103          1           0        2.341384    5.415720   -2.191405
    104          1           0        2.329990    2.966798   -0.942294
    105          1           0        5.352299    5.070400    0.562365
    106          1           0        4.723165    5.782327   -1.020050
    107          1           0        6.103233    4.804959   -1.055651
    108          1           0        4.195499    1.717713    0.325630
    109          1           0        5.715436    2.557647    0.159373
    110          1           0        6.201580    1.307591   -1.670081
    111          1           0        4.869451    1.986174   -2.444231
    112          1           0        3.813401   -0.111048   -2.406412
    113          1           0        3.859322   -0.091028   -0.623951
    114          1           0        6.439790   -0.879346   -2.070520
    115          1           0        5.174934   -2.754107   -3.079016
    116          1           0        3.762021   -2.472146   -2.003436
    117          1           0        5.245151   -3.254023   -1.519076
    118          1           0        5.279462   -1.541797    0.627818
    119          1           0        6.614362   -0.367772    0.077969
    120          1           0        7.804378   -2.288698   -0.774982
    121          1           0        6.660174   -3.338663    0.101347
    122          1           0        7.792724   -3.033196    1.971865
    123          1           0        7.678828   -1.299656    1.848202
    124          1           0        9.760583   -2.448149   -0.058160
    125          1           0       10.385633   -3.404459    2.682078
    126          1           0       11.231022   -3.436284    1.101681
    127          1           0        9.626510   -4.202837    1.409584
    128          1           0       10.942306   -1.151255    2.306030
    129          1           0        9.578961   -0.246486    1.880585
    130          1           0       10.824503    0.805988    0.288268
    131          1           0       11.161769   -0.682434   -0.668910
    132          1           0       12.929474   -0.735217    1.559349
    133          1           0       13.133170    0.728086    0.722908
    134          1           0       12.761854   -1.787798   -0.911865
    135          1           0       14.399099   -0.776043   -2.338713
    136          1           0       14.123687    0.781729   -1.439869
    137          1           0       12.839992   -0.060907   -2.277001
    138          1           0       14.632133   -2.918093   -0.304077
    139          1           0       14.866798   -2.034730    1.093679
    140          1           0       15.628199   -1.526535   -0.367554
 ---------------------------------------------------------------------

 SCF Done:  E(RZINDO/S) =  -474.682331085     A.U. after   20 cycles

 Excitation energies and oscillator strengths:

 Excited State   1:      Singlet-A      1.2967 eV  956.16 nm  f=0.5753  <S**2>=0.000
     175 ->178        -0.16283
     176 ->177         0.66809
 This state for optimization and/or second-order correction.
 Total Energy, E(CIS/TDA) =  -474.634678640
 Copying the excited state density for this state as the 1-particle RhoCI density.

 Excited State   2:      Singlet-A      1.9299 eV  642.45 nm  f=0.0296  <S**2>=0.000
     175 ->177         0.53285
     176 ->178         0.42404

 Excited State   3:      Singlet-A      2.8154 eV  440.37 nm  f=0.0003  <S**2>=0.000
     167 ->179         0.10848
     168 ->177        -0.22690
     168 ->178         0.22671
     168 ->179         0.36364
     168 ->180        -0.20881
     168 ->185        -0.17169
     169 ->177        -0.13521
     169 ->178         0.12056
     169 ->179         0.19553
     169 ->180        -0.11192
     171 ->177         0.10266

 Excited State   4:      Singlet-A      2.9712 eV  417.28 nm  f=0.9566  <S**2>=0.000
     171 ->177         0.12094
     175 ->177        -0.39015
     176 ->178         0.53818

 Excited State   5:      Singlet-A      3.0314 eV  409.00 nm  f=0.1027  <S**2>=0.000
     176 ->179         0.60671
     176 ->180         0.24855

 The electronic state is 1-A.
 Alpha  occ. eigenvalues --   -1.87792  -1.82188  -1.79388  -1.75152  -1.75028
 Alpha  occ. eigenvalues --   -1.70780  -1.65745  -1.61741  -1.60893  -1.59180
 Alpha  occ. eigenvalues --   -1.55762  -1.51849  -1.49190  -1.48525  -1.47557
 Alpha  occ. eigenvalues --   -1.45295  -1.43548  -1.40863  -1.39816  -1.39173
 Alpha  occ. eigenvalues --   -1.35542  -1.33753  -1.33439  -1.32613  -1.29598
 Alpha  occ. eigenvalues --   -1.28980  -1.28258  -1.24923  -1.20977  -1.18211
 Alpha  occ. eigenvalues --   -1.18124  -1.16766  -1.15564  -1.14706  -1.14089
 Alpha  occ. eigenvalues --   -1.12073  -1.11212  -1.10412  -1.05008  -1.03189
 Alpha  occ. eigenvalues --   -1.02400  -1.01822  -0.98923  -0.97743  -0.97353
 Alpha  occ. eigenvalues --   -0.97190  -0.94633  -0.94513  -0.93875  -0.93204
 Alpha  occ. eigenvalues --   -0.91367  -0.91045  -0.89469  -0.89132  -0.86635
 Alpha  occ. eigenvalues --   -0.85824  -0.84096  -0.83278  -0.82329  -0.80490
 Alpha  occ. eigenvalues --   -0.79276  -0.78783  -0.77804  -0.77538  -0.76736
 Alpha  occ. eigenvalues --   -0.76311  -0.76064  -0.74933  -0.74804  -0.74192
 Alpha  occ. eigenvalues --   -0.73641  -0.72776  -0.71608  -0.71282  -0.70527
 Alpha  occ. eigenvalues --   -0.70387  -0.69079  -0.69036  -0.68929  -0.68242
 Alpha  occ. eigenvalues --   -0.67472  -0.67088  -0.66743  -0.66532  -0.66012
 Alpha  occ. eigenvalues --   -0.65627  -0.65557  -0.64536  -0.63923  -0.63899
 Alpha  occ. eigenvalues --   -0.63374  -0.62883  -0.62727  -0.62603  -0.62388
 Alpha  occ. eigenvalues --   -0.62165  -0.61851  -0.61310  -0.61246  -0.60508
 Alpha  occ. eigenvalues --   -0.60092  -0.59094  -0.58895  -0.58496  -0.57998
 Alpha  occ. eigenvalues --   -0.57852  -0.57623  -0.57358  -0.56919  -0.56706
 Alpha  occ. eigenvalues --   -0.56198  -0.55632  -0.55222  -0.54997  -0.54740
 Alpha  occ. eigenvalues --   -0.54371  -0.53874  -0.53549  -0.53471  -0.52626
 Alpha  occ. eigenvalues --   -0.52188  -0.52062  -0.51654  -0.51489  -0.51141
 Alpha  occ. eigenvalues --   -0.50855  -0.50815  -0.50656  -0.50452  -0.50234
 Alpha  occ. eigenvalues --   -0.49970  -0.49601  -0.49309  -0.49225  -0.48955
 Alpha  occ. eigenvalues --   -0.48740  -0.48645  -0.48433  -0.48219  -0.47870
 Alpha  occ. eigenvalues --   -0.47292  -0.47200  -0.47021  -0.46935  -0.46419
 Alpha  occ. eigenvalues --   -0.46378  -0.46041  -0.45717  -0.45713  -0.45334
 Alpha  occ. eigenvalues --   -0.45087  -0.44883  -0.44684  -0.44555  -0.44188
 Alpha  occ. eigenvalues --   -0.43231  -0.42957  -0.42674  -0.42490  -0.42236
 Alpha  occ. eigenvalues --   -0.42029  -0.41391  -0.41081  -0.39218  -0.38397
 Alpha  occ. eigenvalues --   -0.38152  -0.36910  -0.36142  -0.35367  -0.35032
 Alpha  occ. eigenvalues --   -0.33714  -0.32856  -0.32360  -0.32038  -0.26980
 Alpha  occ. eigenvalues --   -0.21992
 Alpha virt. eigenvalues --   -0.08550  -0.02502  -0.00980   0.00877   0.01603
 Alpha virt. eigenvalues --    0.02424   0.02641   0.02762   0.04441   0.04816
 Alpha virt. eigenvalues --    0.06106   0.06921   0.07386   0.07679   0.08040

 Mulliken charges:
               1
     1  Mg   0.428909
     2  C   -0.038679
     3  C   -0.075619
     4  C   -0.088094
     5  C   -0.058016
     6  N   -0.269852
     7  C    0.115835
     8  C    0.005118
     9  C    0.001748
    10  C    0.161745
    11  C   -0.054352
    12  C   -0.022202
    13  C   -0.003260
    14  C    0.483125
    15  O   -0.538491
    16  O   -0.252575
    17  N   -0.341583
    18  C    0.129026
    19  C    0.066706
    20  C   -0.044098
    21  C    0.131628
    22  C   -0.036842
    23  C    0.340773
    24  O   -0.535107
    25  C   -0.026156
    26  N   -0.279055
    27  C    0.150414
    28  C   -0.005723
    29  C    0.008717
    30  C    0.082745
    31  C   -0.050312
    32  C   -0.014287
    33  C   -0.057843
    34  N   -0.311585
    35  C    0.093610
    36  C    0.005271
    37  C   -0.073009
    38  C    0.108217
    39  C   -0.047668
    40  C    0.338327
    41  O   -0.532695
    42  C    0.061704
    43  C    0.508556
    44  O   -0.527650
    45  O   -0.281648
    46  C    0.073603
    47  C    0.095488
    48  C   -0.100314
    49  C    0.001966
    50  C   -0.036343
    51  C   -0.025530
    52  C   -0.037360
    53  C   -0.030141
    54  C   -0.014753
    55  C   -0.071639
    56  C   -0.034425
    57  C   -0.039005
    58  C   -0.035758
    59  C   -0.023091
    60  C   -0.057660
    61  C   -0.033046
    62  C   -0.031056
    63  C   -0.033904
    64  C   -0.005958
    65  C   -0.057662
    66  C   -0.052822
    67  H    0.021253
    68  H    0.027046
    69  H    0.035036
    70  H    0.035215
    71  H    0.027465
    72  H    0.035824
    73  H    0.017959
    74  H    0.025208
    75  H    0.029153
    76  H    0.024433
    77  H    0.041805
    78  H    0.029363
    79  H    0.034448
    80  H    0.030620
    81  H    0.044094
    82  H    0.042377
    83  H    0.043901
    84  H    0.036939
    85  H    0.030412
    86  H    0.029210
    87  H    0.022449
    88  H    0.022038
    89  H    0.021366
    90  H    0.022918
    91  H    0.012419
    92  H    0.022369
    93  H    0.011896
    94  H    0.019174
    95  H    0.034424
    96  H    0.027115
    97  H    0.018581
    98  H    0.047416
    99  H    0.042456
   100  H    0.051203
   101  H    0.033354
   102  H    0.050125
   103  H    0.064487
   104  H    0.033962
   105  H    0.039360
   106  H    0.024217
   107  H    0.024761
   108  H    0.031824
   109  H    0.005456
   110  H    0.018862
   111  H    0.013759
   112  H    0.020708
   113  H    0.025156
   114  H    0.027154
   115  H    0.020930
   116  H    0.025710
   117  H    0.006787
   118  H    0.025392
   119  H    0.016662
   120  H    0.015477
   121  H    0.018304
   122  H    0.017575
   123  H    0.019650
   124  H    0.029155
   125  H    0.018290
   126  H    0.014104
   127  H    0.004008
   128  H    0.022394
   129  H    0.016454
   130  H    0.017057
   131  H    0.033801
   132  H    0.010979
   133  H    0.018442
   134  H    0.018744
   135  H    0.012429
   136  H    0.022483
   137  H    0.012412
   138  H    0.010112
   139  H    0.019572
   140  H    0.015946
 Sum of Mulliken charges =  -0.00000

 Dipole moment (field-independent basis, Debye):
    X=              1.1761    Y=             -4.7290    Z=             -0.4273  Tot=              4.8918
 N-N= 4.425227624987D+03 E-N= 0.000000000000D+00  KE=-9.524549208865D+03
 Leave Link  601 at Wed May  4 07:07:20 2022, MaxMem=  6710886400 cpu:               0.8 elap:               0.0
 (Enter /sw/apps/gaussian-16.0/g16/l9999.exe)
 1\1\GINC-BP1-COMPUTE101\SP\RZINDO CIS\STO-3G\C55H74Mg1N4O6\OF15641\04-
 May-2022\0\\#p ZINDO=(nstates=5)\\step_1401_chromophore_8 ZINDO\\0,1\M
 g,0,44.61,2.697,47.228\C,0,42.295,5.255,46.823\C,0,41.938,0.513,47.008
 \C,0,46.811,0.079,47.239\C,0,47.103,4.96,46.344\N,0,42.341,2.86,46.858
 \C,0,41.668,4.024,46.765\C,0,40.255,3.894,46.519\C,0,40.054,2.369,46.8
 57\C,0,41.51,1.837,46.931\C,0,39.155,2.059,48.133\C,0,39.858,4.312,45.
 065\C,0,38.567,5.206,44.88\C,0,37.969,5.222,43.49\O,0,36.834,4.827,43.

 Normal termination of Gaussian 16 at Wed May  4 07:07:20 2022.
