 Gaussian 16, Revision A.03,
 Gaussian 16:  ES64L-G16RevA.03 25-Dec-2016

 ------------------------------
 #p blyp/Def2SVP td=(nstates=5)
 ------------------------------

 --------------------------------------------------
 step_401_chromophore_17 TDDFT with blyp functional
 --------------------------------------------------
 Symbolic Z-matrix:
 Charge =  0 Multiplicity = 1

                         Standard orientation:
 ---------------------------------------------------------------------
 Center     Atomic      Atomic             Coordinates (Angstroms)
 Number     Number       Type             X           Y           Z
 ---------------------------------------------------------------------
      1         12           0        3.926613    1.463770   -0.683685
      2          6           0        4.516476   -2.025793   -0.355910
      3          6           0        1.267957    0.796511   -2.720405
      4          6           0        2.815570    4.660221   -0.120557
      5          6           0        6.143268    1.759443    2.144432
      6          7           0        3.052187   -0.386362   -1.470022
      7          6           0        3.462131   -1.687897   -1.206027
      8          6           0        2.341961   -2.685667   -1.720936
      9          6           0        1.591438   -1.808202   -2.763722
     10          6           0        1.884516   -0.358149   -2.232486
     11          6           0        1.958761   -1.952406   -4.249005
     12          6           0        1.453838   -3.328653   -0.573098
     13          6           0        1.479029   -4.891521   -0.472770
     14          6           0        0.071674   -5.601102   -0.394402
     15          8           0       -0.188732   -6.686005   -0.987151
     16          8           0       -0.786512   -4.886793    0.373347
     17          7           0        2.284261    2.594830   -1.427798
     18          6           0        1.343689    2.187174   -2.375608
     19          6           0        0.561892    3.297996   -2.783897
     20          6           0        0.977227    4.451127   -1.978324
     21          6           0        2.157651    3.993495   -1.188333
     22          6           0       -0.488923    3.094005   -3.816188
     23          6           0        0.347611    5.800289   -2.098368
     24          8           0       -0.520148    5.930107   -2.897206
     25          6           0        0.904406    7.122657   -1.409131
     26          7           0        4.361456    2.921142    0.789934
     27          6           0        3.883479    4.210317    0.720371
     28          6           0        4.482499    5.101186    1.853180
     29          6           0        5.644468    4.189532    2.342602
     30          6           0        5.360508    2.828620    1.726514
     31          6           0        4.819551    6.584754    1.432530
     32          6           0        5.762481    4.187932    3.925763
     33          6           0        7.195283    4.260449    4.551525
     34          7           0        5.349678    0.261374    0.428890
     35          6           0        6.195482    0.499270    1.563112
     36          6           0        7.026083   -0.686058    1.798365
     37          6           0        6.421859   -1.684598    1.043469
     38          6           0        5.329253   -1.051833    0.334679
     39          6           0        8.127580   -0.830885    2.840407
     40          6           0        6.540139   -3.106306    0.657961
     41          8           0        7.366555   -3.927403    1.042080
     42          6           0        5.223339   -3.362281   -0.025911
     43          6           0        5.631501   -4.031784   -1.246274
     44          8           0        6.379688   -3.544821   -2.103911
     45          8           0        4.946663   -5.227847   -1.374801
     46          6           0        5.394385   -5.985356   -2.517807
     47          6           0       -2.070094   -5.516859    0.584777
     48          6           0       -2.973924   -4.580552    1.332665
     49          6           0       -4.199558   -4.824653    1.714869
     50          6           0       -5.001703   -6.152043    1.511175
     51          6           0       -5.215973   -3.809011    2.346501
     52          6           0       -6.478950   -3.305531    1.591007
     53          6           0       -6.772890   -1.840642    1.870478
     54          6           0       -8.306818   -1.690647    2.277676
     55          6           0       -8.533164   -2.067052    3.828922
     56          6           0       -8.750577   -0.282038    2.011752
     57          6           0      -10.157686   -0.132302    1.262975
     58          6           0      -10.120729   -0.295968   -0.265219
     59          6           0      -10.693250    0.906267   -0.969321
     60          6           0      -11.479582    0.497945   -2.245173
     61          6           0       -9.493003    1.887388   -1.343124
     62          6           0       -9.577342    3.061144   -0.350583
     63          6           0       -8.331899    3.950593   -0.596841
     64          6           0       -7.131405    3.528851    0.285573
     65          6           0       -7.250826    4.153955    1.660557
     66          6           0       -5.751195    3.756715   -0.380418
     67          1           0        0.576884    0.639633   -3.551502
     68          1           0        2.425102    5.658907    0.083128
     69          1           0        6.846411    1.950605    2.957311
     70          1           0        2.899519   -3.444378   -2.270317
     71          1           0        0.509298   -1.936119   -2.784738
     72          1           0        2.192240   -0.952353   -4.613571
     73          1           0        1.166658   -2.426193   -4.829496
     74          1           0        2.810301   -2.626446   -4.336404
     75          1           0        0.471249   -2.867389   -0.677254
     76          1           0        1.793265   -3.011690    0.413349
     77          1           0        2.034090   -5.256722    0.391485
     78          1           0        2.016737   -5.332614   -1.311495
     79          1           0       -1.272158    3.805877   -3.555084
     80          1           0       -0.810614    2.054231   -3.867512
     81          1           0       -0.273178    3.421251   -4.834125
     82          1           0        0.660390    7.002823   -0.353657
     83          1           0        0.439922    8.017120   -1.824823
     84          1           0        1.978962    7.069389   -1.585965
     85          1           0        3.730352    5.307543    2.614669
     86          1           0        6.593859    4.455573    1.878610
     87          1           0        4.257914    7.185776    2.147545
     88          1           0        4.606035    6.706954    0.371059
     89          1           0        5.850186    6.853629    1.667406
     90          1           0        5.470819    3.215806    4.320144
     91          1           0        5.255983    5.110295    4.211939
     92          1           0        7.987804    4.164451    3.809466
     93          1           0        7.179174    3.487649    5.319704
     94          1           0        7.245489    5.261716    4.978693
     95          1           0        7.623843   -1.194393    3.736800
     96          1           0        8.608437    0.142652    2.935051
     97          1           0        8.840252   -1.619777    2.601684
     98          1           0        4.615607   -3.943010    0.668232
     99          1           0        6.477245   -6.099724   -2.573911
    100          1           0        4.993350   -5.604609   -3.456601
    101          1           0        5.031314   -6.993616   -2.318496
    102          1           0       -1.883394   -6.379050    1.225779
    103          1           0       -2.578812   -5.710559   -0.359748
    104          1           0       -2.731783   -3.535813    1.524791
    105          1           0       -4.916491   -6.592619    2.503537
    106          1           0       -4.613967   -6.709747    0.658613
    107          1           0       -6.050881   -5.893351    1.364268
    108          1           0       -4.710726   -2.946741    2.780961
    109          1           0       -5.663342   -4.277061    3.223307
    110          1           0       -7.311963   -4.007832    1.615737
    111          1           0       -6.293200   -3.307921    0.516448
    112          1           0       -6.455241   -1.177054    1.065920
    113          1           0       -6.177033   -1.502085    2.718566
    114          1           0       -8.929985   -2.298326    1.622127
    115          1           0       -8.465183   -1.195813    4.480190
    116          1           0       -7.635325   -2.632969    4.075142
    117          1           0       -9.388609   -2.705208    4.046840
    118          1           0       -7.982135    0.224771    1.428897
    119          1           0       -8.974742    0.287251    2.913742
    120          1           0      -10.590506    0.823488    1.557347
    121          1           0      -10.777971   -0.943280    1.643385
    122          1           0      -10.553418   -1.240937   -0.595194
    123          1           0       -9.073131   -0.430945   -0.533982
    124          1           0      -11.496454    1.346812   -0.378940
    125          1           0      -10.916806    0.723244   -3.151439
    126          1           0      -12.447677    0.997380   -2.264760
    127          1           0      -11.670900   -0.575445   -2.276730
    128          1           0       -9.579794    2.321988   -2.338774
    129          1           0       -8.497645    1.446782   -1.286593
    130          1           0       -9.525002    2.786715    0.702680
    131          1           0      -10.382241    3.725743   -0.664427
    132          1           0       -8.634995    4.993701   -0.508234
    133          1           0       -7.989041    3.785334   -1.617255
    134          1           0       -7.061077    2.449004    0.418396
    135          1           0       -6.950633    3.330555    2.309781
    136          1           0       -8.252192    4.491071    1.927580
    137          1           0       -6.625124    5.045194    1.619549
    138          1           0       -5.864378    4.366414   -1.277063
    139          1           0       -5.411599    2.763585   -0.674702
    140          1           0       -5.026837    4.238573    0.277251
 ---------------------------------------------------------------------

 SCF Done:  E(RB-LYP) =  -3007.33307115     A.U. after   21 cycles

 Excitation energies and oscillator strengths:

 Excited State   1:      Singlet-A      1.6748 eV  740.29 nm  f=0.0122  <S**2>=0.000
     244 -> 247        0.68700
     246 -> 247        0.15115
 This state for optimization and/or second-order correction.
 Total Energy, E(TD-HF/TD-DFT) =  -3007.27152296
 Copying the excited state density for this state as the 1-particle RhoCI density.

 Excited State   2:      Singlet-A      1.7526 eV  707.45 nm  f=0.2786  <S**2>=0.000
     244 -> 247       -0.15477
     245 -> 248       -0.19127
     246 -> 247        0.67433
     246 <- 247       -0.15392

 Excited State   3:      Singlet-A      1.9457 eV  637.21 nm  f=0.0601  <S**2>=0.000
     242 -> 247        0.13518
     245 -> 247        0.63522
     246 -> 248        0.25469

 Excited State   4:      Singlet-A      2.0286 eV  611.18 nm  f=0.0023  <S**2>=0.000
     243 -> 247        0.70434

 Excited State   5:      Singlet-A      2.2466 eV  551.86 nm  f=0.0118  <S**2>=0.000
     242 -> 247        0.67941
     246 -> 248       -0.11951

 The electronic state is 1-A.
 Alpha  occ. eigenvalues --  -46.27942 -18.83363 -18.82847 -18.77213 -18.76709
 Alpha  occ. eigenvalues --  -18.76449 -18.75222 -14.03962 -14.03814 -14.01234
 Alpha  occ. eigenvalues --  -14.00945 -10.04642 -10.04170 -10.00090  -9.99498
 Alpha  occ. eigenvalues --   -9.98728  -9.97403  -9.97396  -9.97312  -9.97036
 Alpha  occ. eigenvalues --   -9.96841  -9.96428  -9.96184  -9.95423  -9.95128
 Alpha  occ. eigenvalues --   -9.94624  -9.94350  -9.94345  -9.94317  -9.94260
 Alpha  occ. eigenvalues --   -9.94148  -9.93949  -9.93940  -9.93712  -9.93710
 Alpha  occ. eigenvalues --   -9.93680  -9.93264  -9.93235  -9.93217  -9.93037
 Alpha  occ. eigenvalues --   -9.92961  -9.92931  -9.92842  -9.92448  -9.92375
 Alpha  occ. eigenvalues --   -9.92374  -9.92334  -9.92326  -9.92218  -9.91877
 Alpha  occ. eigenvalues --   -9.91848  -9.91553  -9.91542  -9.91410  -9.91382
 Alpha  occ. eigenvalues --   -9.91223  -9.91104  -9.91088  -9.90847  -9.90714
 Alpha  occ. eigenvalues --   -9.90520  -9.90295  -9.90282  -9.90259  -9.90212
 Alpha  occ. eigenvalues --   -9.90143  -2.92404  -1.72818  -1.72266  -1.72139
 Alpha  occ. eigenvalues --   -0.98651  -0.98170  -0.93357  -0.91845  -0.89957
 Alpha  occ. eigenvalues --   -0.88650  -0.86393  -0.85534  -0.84581  -0.83088
 Alpha  occ. eigenvalues --   -0.75932  -0.73636  -0.73029  -0.72567  -0.72207
 Alpha  occ. eigenvalues --   -0.71810  -0.71706  -0.70959  -0.70793  -0.70370
 Alpha  occ. eigenvalues --   -0.69360  -0.68864  -0.68289  -0.67905  -0.67275
 Alpha  occ. eigenvalues --   -0.66493  -0.65869  -0.65271  -0.64934  -0.64197
 Alpha  occ. eigenvalues --   -0.63601  -0.62688  -0.62292  -0.61528  -0.61074
 Alpha  occ. eigenvalues --   -0.60130  -0.59938  -0.59845  -0.59429  -0.58683
 Alpha  occ. eigenvalues --   -0.58237  -0.57838  -0.56965  -0.55799  -0.54282
 Alpha  occ. eigenvalues --   -0.54021  -0.53940  -0.52740  -0.52030  -0.51473
 Alpha  occ. eigenvalues --   -0.51226  -0.51181  -0.50794  -0.50547  -0.50365
 Alpha  occ. eigenvalues --   -0.49919  -0.48906  -0.48829  -0.48262  -0.46496
 Alpha  occ. eigenvalues --   -0.46138  -0.45781  -0.45651  -0.45414  -0.45176
 Alpha  occ. eigenvalues --   -0.44153  -0.44025  -0.43237  -0.42825  -0.42448
 Alpha  occ. eigenvalues --   -0.42292  -0.41833  -0.41528  -0.41281  -0.41210
 Alpha  occ. eigenvalues --   -0.40706  -0.40651  -0.40543  -0.40505  -0.40146
 Alpha  occ. eigenvalues --   -0.40048  -0.39911  -0.39676  -0.39286  -0.39056
 Alpha  occ. eigenvalues --   -0.38937  -0.38896  -0.38594  -0.38314  -0.38232
 Alpha  occ. eigenvalues --   -0.37996  -0.37858  -0.37828  -0.37470  -0.37212
 Alpha  occ. eigenvalues --   -0.36975  -0.36852  -0.36766  -0.36498  -0.36418
 Alpha  occ. eigenvalues --   -0.36294  -0.36249  -0.36165  -0.36024  -0.35594
 Alpha  occ. eigenvalues --   -0.35409  -0.35282  -0.34956  -0.34753  -0.34710
 Alpha  occ. eigenvalues --   -0.34678  -0.34515  -0.34250  -0.34096  -0.33971
 Alpha  occ. eigenvalues --   -0.33690  -0.33621  -0.33350  -0.33233  -0.33110
 Alpha  occ. eigenvalues --   -0.32944  -0.32690  -0.32530  -0.32440  -0.32336
 Alpha  occ. eigenvalues --   -0.32215  -0.32119  -0.31996  -0.31675  -0.31487
 Alpha  occ. eigenvalues --   -0.31432  -0.31082  -0.31009  -0.30885  -0.30805
 Alpha  occ. eigenvalues --   -0.30614  -0.30462  -0.30377  -0.30299  -0.30053
 Alpha  occ. eigenvalues --   -0.29777  -0.29351  -0.29290  -0.29201  -0.29045
 Alpha  occ. eigenvalues --   -0.28651  -0.28441  -0.28275  -0.28125  -0.27772
 Alpha  occ. eigenvalues --   -0.27402  -0.26941  -0.26685  -0.26480  -0.26465
 Alpha  occ. eigenvalues --   -0.26197  -0.25883  -0.25749  -0.25624  -0.25601
 Alpha  occ. eigenvalues --   -0.25233  -0.25055  -0.23989  -0.23938  -0.23751
 Alpha  occ. eigenvalues --   -0.23012  -0.22640  -0.22253  -0.21322  -0.20918
 Alpha  occ. eigenvalues --   -0.20741  -0.19752  -0.19341  -0.18135  -0.17711
 Alpha  occ. eigenvalues --   -0.16096
 Alpha virt. eigenvalues --   -0.12050  -0.07567  -0.06447  -0.04658  -0.03519
 Alpha virt. eigenvalues --   -0.03188  -0.03073  -0.02266  -0.00606  -0.00302
 Alpha virt. eigenvalues --    0.00812   0.01496   0.01718   0.02003   0.02520

 Mulliken charges:
               1
     1  Mg   0.690058
     2  C   -0.004006
     3  C   -0.037206
     4  C   -0.031324
     5  C   -0.098874
     6  N   -0.248184
     7  C   -0.085995
     8  C    0.038139
     9  C   -0.029564
    10  C    0.046062
    11  C    0.136278
    12  C    0.156943
    13  C    0.107828
    14  C    0.077755
    15  O   -0.229252
    16  O   -0.248856
    17  N   -0.330880
    18  C    0.098106
    19  C   -0.086553
    20  C    0.008914
    21  C    0.128207
    22  C    0.158979
    23  C   -0.115928
    24  O   -0.136541
    25  C    0.117854
    26  N   -0.232310
    27  C    0.032194
    28  C   -0.024631
    29  C    0.046614
    30  C    0.056590
    31  C    0.120570
    32  C    0.058462
    33  C    0.057355
    34  N   -0.250766
    35  C    0.117284
    36  C   -0.175011
    37  C    0.042855
    38  C    0.083752
    39  C    0.165762
    40  C   -0.032755
    41  O   -0.137065
    42  C    0.145566
    43  C    0.108983
    44  O   -0.195623
    45  O   -0.264141
    46  C    0.222392
    47  C    0.336940
    48  C   -0.097122
    49  C   -0.160361
    50  C    0.136520
    51  C    0.102404
    52  C    0.079181
    53  C    0.075889
    54  C   -0.080873
    55  C    0.113515
    56  C    0.095074
    57  C    0.031839
    58  C    0.144170
    59  C   -0.054020
    60  C    0.098995
    61  C    0.093705
    62  C    0.062875
    63  C    0.106559
    64  C   -0.145965
    65  C    0.128895
    66  C    0.109323
    67  H   -0.056557
    68  H   -0.073637
    69  H   -0.070313
    70  H   -0.027314
    71  H   -0.032640
    72  H    0.000291
    73  H   -0.005441
    74  H   -0.010777
    75  H   -0.007428
    76  H   -0.019724
    77  H    0.013795
    78  H   -0.003958
    79  H    0.001787
    80  H   -0.010171
    81  H   -0.002681
    82  H    0.016429
    83  H   -0.001750
    84  H    0.012480
    85  H   -0.009066
    86  H   -0.018450
    87  H   -0.014629
    88  H    0.010856
    89  H   -0.017732
    90  H   -0.003874
    91  H   -0.010697
    92  H    0.001399
    93  H   -0.000980
    94  H   -0.010357
    95  H    0.012397
    96  H    0.002785
    97  H    0.010845
    98  H    0.001017
    99  H    0.018591
   100  H    0.012914
   101  H    0.006245
   102  H    0.011048
   103  H    0.023577
   104  H   -0.047013
   105  H    0.003720
   106  H    0.000084
   107  H   -0.009961
   108  H   -0.038412
   109  H   -0.030247
   110  H   -0.013534
   111  H   -0.038006
   112  H   -0.021655
   113  H   -0.031134
   114  H   -0.028998
   115  H   -0.011566
   116  H   -0.029668
   117  H   -0.003252
   118  H   -0.025505
   119  H   -0.039741
   120  H   -0.024710
   121  H   -0.035907
   122  H   -0.047079
   123  H   -0.051139
   124  H   -0.027459
   125  H   -0.021651
   126  H   -0.017698
   127  H   -0.031713
   128  H   -0.031887
   129  H   -0.028555
   130  H   -0.013908
   131  H   -0.031105
   132  H   -0.039738
   133  H   -0.053292
   134  H   -0.033276
   135  H   -0.013654
   136  H   -0.017845
   137  H   -0.015269
   138  H   -0.014639
   139  H   -0.020049
   140  H   -0.018397
 Sum of Mulliken charges =  -0.00000

 Dipole moment (field-independent basis, Debye):
    X=             -1.1730    Y=              2.6477    Z=              3.0035  Tot=              4.1722
 Quadrupole moment (field-independent basis, Debye-Ang):
   XX=           -413.3929   YY=           -416.5646   ZZ=           -399.1349
   XY=             43.2589   XZ=              3.6833   YZ=             16.4787

 Normal termination of Gaussian 16 at Wed May  4 20:15:40 2022.
