 Gaussian 16, Revision A.03,
 Gaussian 16:  ES64L-G16RevA.03 25-Dec-2016

 -----------------------------------
 #p cam-b3lyp/Def2SVP td=(nstates=5)
 -----------------------------------

 -------------------------------------------------------
 step_401_chromophore_17 TDDFT with cam-b3lyp functional
 -------------------------------------------------------
 Symbolic Z-matrix:
 Charge =  0 Multiplicity = 1

                         Standard orientation:
 ---------------------------------------------------------------------
 Center     Atomic      Atomic             Coordinates (Angstroms)
 Number     Number       Type             X           Y           Z
 ---------------------------------------------------------------------
      1         12           0        3.926613    1.463770   -0.683685
      2          6           0        4.516476   -2.025793   -0.355910
      3          6           0        1.267957    0.796511   -2.720405
      4          6           0        2.815570    4.660221   -0.120557
      5          6           0        6.143268    1.759443    2.144432
      6          7           0        3.052187   -0.386362   -1.470022
      7          6           0        3.462131   -1.687897   -1.206027
      8          6           0        2.341961   -2.685667   -1.720936
      9          6           0        1.591438   -1.808202   -2.763722
     10          6           0        1.884516   -0.358149   -2.232486
     11          6           0        1.958761   -1.952406   -4.249005
     12          6           0        1.453838   -3.328653   -0.573098
     13          6           0        1.479029   -4.891521   -0.472770
     14          6           0        0.071674   -5.601102   -0.394402
     15          8           0       -0.188732   -6.686005   -0.987151
     16          8           0       -0.786512   -4.886793    0.373347
     17          7           0        2.284261    2.594830   -1.427798
     18          6           0        1.343689    2.187174   -2.375608
     19          6           0        0.561892    3.297996   -2.783897
     20          6           0        0.977227    4.451127   -1.978324
     21          6           0        2.157651    3.993495   -1.188333
     22          6           0       -0.488923    3.094005   -3.816188
     23          6           0        0.347611    5.800289   -2.098368
     24          8           0       -0.520148    5.930107   -2.897206
     25          6           0        0.904406    7.122657   -1.409131
     26          7           0        4.361456    2.921142    0.789934
     27          6           0        3.883479    4.210317    0.720371
     28          6           0        4.482499    5.101186    1.853180
     29          6           0        5.644468    4.189532    2.342602
     30          6           0        5.360508    2.828620    1.726514
     31          6           0        4.819551    6.584754    1.432530
     32          6           0        5.762481    4.187932    3.925763
     33          6           0        7.195283    4.260449    4.551525
     34          7           0        5.349678    0.261374    0.428890
     35          6           0        6.195482    0.499270    1.563112
     36          6           0        7.026083   -0.686058    1.798365
     37          6           0        6.421859   -1.684598    1.043469
     38          6           0        5.329253   -1.051833    0.334679
     39          6           0        8.127580   -0.830885    2.840407
     40          6           0        6.540139   -3.106306    0.657961
     41          8           0        7.366555   -3.927403    1.042080
     42          6           0        5.223339   -3.362281   -0.025911
     43          6           0        5.631501   -4.031784   -1.246274
     44          8           0        6.379688   -3.544821   -2.103911
     45          8           0        4.946663   -5.227847   -1.374801
     46          6           0        5.394385   -5.985356   -2.517807
     47          6           0       -2.070094   -5.516859    0.584777
     48          6           0       -2.973924   -4.580552    1.332665
     49          6           0       -4.199558   -4.824653    1.714869
     50          6           0       -5.001703   -6.152043    1.511175
     51          6           0       -5.215973   -3.809011    2.346501
     52          6           0       -6.478950   -3.305531    1.591007
     53          6           0       -6.772890   -1.840642    1.870478
     54          6           0       -8.306818   -1.690647    2.277676
     55          6           0       -8.533164   -2.067052    3.828922
     56          6           0       -8.750577   -0.282038    2.011752
     57          6           0      -10.157686   -0.132302    1.262975
     58          6           0      -10.120729   -0.295968   -0.265219
     59          6           0      -10.693250    0.906267   -0.969321
     60          6           0      -11.479582    0.497945   -2.245173
     61          6           0       -9.493003    1.887388   -1.343124
     62          6           0       -9.577342    3.061144   -0.350583
     63          6           0       -8.331899    3.950593   -0.596841
     64          6           0       -7.131405    3.528851    0.285573
     65          6           0       -7.250826    4.153955    1.660557
     66          6           0       -5.751195    3.756715   -0.380418
     67          1           0        0.576884    0.639633   -3.551502
     68          1           0        2.425102    5.658907    0.083128
     69          1           0        6.846411    1.950605    2.957311
     70          1           0        2.899519   -3.444378   -2.270317
     71          1           0        0.509298   -1.936119   -2.784738
     72          1           0        2.192240   -0.952353   -4.613571
     73          1           0        1.166658   -2.426193   -4.829496
     74          1           0        2.810301   -2.626446   -4.336404
     75          1           0        0.471249   -2.867389   -0.677254
     76          1           0        1.793265   -3.011690    0.413349
     77          1           0        2.034090   -5.256722    0.391485
     78          1           0        2.016737   -5.332614   -1.311495
     79          1           0       -1.272158    3.805877   -3.555084
     80          1           0       -0.810614    2.054231   -3.867512
     81          1           0       -0.273178    3.421251   -4.834125
     82          1           0        0.660390    7.002823   -0.353657
     83          1           0        0.439922    8.017120   -1.824823
     84          1           0        1.978962    7.069389   -1.585965
     85          1           0        3.730352    5.307543    2.614669
     86          1           0        6.593859    4.455573    1.878610
     87          1           0        4.257914    7.185776    2.147545
     88          1           0        4.606035    6.706954    0.371059
     89          1           0        5.850186    6.853629    1.667406
     90          1           0        5.470819    3.215806    4.320144
     91          1           0        5.255983    5.110295    4.211939
     92          1           0        7.987804    4.164451    3.809466
     93          1           0        7.179174    3.487649    5.319704
     94          1           0        7.245489    5.261716    4.978693
     95          1           0        7.623843   -1.194393    3.736800
     96          1           0        8.608437    0.142652    2.935051
     97          1           0        8.840252   -1.619777    2.601684
     98          1           0        4.615607   -3.943010    0.668232
     99          1           0        6.477245   -6.099724   -2.573911
    100          1           0        4.993350   -5.604609   -3.456601
    101          1           0        5.031314   -6.993616   -2.318496
    102          1           0       -1.883394   -6.379050    1.225779
    103          1           0       -2.578812   -5.710559   -0.359748
    104          1           0       -2.731783   -3.535813    1.524791
    105          1           0       -4.916491   -6.592619    2.503537
    106          1           0       -4.613967   -6.709747    0.658613
    107          1           0       -6.050881   -5.893351    1.364268
    108          1           0       -4.710726   -2.946741    2.780961
    109          1           0       -5.663342   -4.277061    3.223307
    110          1           0       -7.311963   -4.007832    1.615737
    111          1           0       -6.293200   -3.307921    0.516448
    112          1           0       -6.455241   -1.177054    1.065920
    113          1           0       -6.177033   -1.502085    2.718566
    114          1           0       -8.929985   -2.298326    1.622127
    115          1           0       -8.465183   -1.195813    4.480190
    116          1           0       -7.635325   -2.632969    4.075142
    117          1           0       -9.388609   -2.705208    4.046840
    118          1           0       -7.982135    0.224771    1.428897
    119          1           0       -8.974742    0.287251    2.913742
    120          1           0      -10.590506    0.823488    1.557347
    121          1           0      -10.777971   -0.943280    1.643385
    122          1           0      -10.553418   -1.240937   -0.595194
    123          1           0       -9.073131   -0.430945   -0.533982
    124          1           0      -11.496454    1.346812   -0.378940
    125          1           0      -10.916806    0.723244   -3.151439
    126          1           0      -12.447677    0.997380   -2.264760
    127          1           0      -11.670900   -0.575445   -2.276730
    128          1           0       -9.579794    2.321988   -2.338774
    129          1           0       -8.497645    1.446782   -1.286593
    130          1           0       -9.525002    2.786715    0.702680
    131          1           0      -10.382241    3.725743   -0.664427
    132          1           0       -8.634995    4.993701   -0.508234
    133          1           0       -7.989041    3.785334   -1.617255
    134          1           0       -7.061077    2.449004    0.418396
    135          1           0       -6.950633    3.330555    2.309781
    136          1           0       -8.252192    4.491071    1.927580
    137          1           0       -6.625124    5.045194    1.619549
    138          1           0       -5.864378    4.366414   -1.277063
    139          1           0       -5.411599    2.763585   -0.674702
    140          1           0       -5.026837    4.238573    0.277251
 ---------------------------------------------------------------------

 SCF Done:  E(RCAM-B3LYP) =  -3007.11448202     A.U. after   19 cycles

 Excitation energies and oscillator strengths:

 Excited State   1:      Singlet-A      1.6318 eV  759.78 nm  f=0.3773  <S**2>=0.000
     245 -> 248       -0.17877
     246 -> 247        0.68625
     245 <- 248       -0.10989
 This state for optimization and/or second-order correction.
 Total Energy, E(TD-HF/TD-DFT) =  -3007.05451279
 Copying the excited state density for this state as the 1-particle RhoCI density.

 Excited State   2:      Singlet-A      2.1678 eV  571.93 nm  f=0.0768  <S**2>=0.000
     245 -> 247        0.62470
     246 -> 248        0.31715

 Excited State   3:      Singlet-A      3.0642 eV  404.62 nm  f=0.0019  <S**2>=0.000
     244 -> 247        0.66829
     246 -> 248       -0.13753

 Excited State   4:      Singlet-A      3.3064 eV  374.98 nm  f=0.0691  <S**2>=0.000
     242 -> 247        0.58390
     243 -> 247        0.13688
     246 -> 248        0.30684

 Excited State   5:      Singlet-A      3.4216 eV  362.36 nm  f=0.6028  <S**2>=0.000
     239 -> 247       -0.17331
     239 -> 249        0.11845
     240 -> 247       -0.14960
     242 -> 247       -0.18799
     243 -> 247       -0.15501
     244 -> 247        0.13592
     245 -> 247       -0.28970
     246 -> 248        0.49352

 The electronic state is 1-A.
 Alpha  occ. eigenvalues --  -46.89546 -19.26248 -19.25979 -19.20472 -19.20025
 Alpha  occ. eigenvalues --  -19.19637 -19.18241 -14.43008 -14.42540 -14.39840
 Alpha  occ. eigenvalues --  -14.39315 -10.40012 -10.39813 -10.35730 -10.34449
 Alpha  occ. eigenvalues --  -10.32709 -10.32155 -10.31703 -10.31451 -10.31403
 Alpha  occ. eigenvalues --  -10.31374 -10.30773 -10.30687 -10.29814 -10.29464
 Alpha  occ. eigenvalues --  -10.29149 -10.28835 -10.28764 -10.28583 -10.28335
 Alpha  occ. eigenvalues --  -10.28055 -10.28021 -10.27941 -10.27926 -10.27896
 Alpha  occ. eigenvalues --  -10.27654 -10.27609 -10.27179 -10.27109 -10.27093
 Alpha  occ. eigenvalues --  -10.26984 -10.26956 -10.26684 -10.26282 -10.26198
 Alpha  occ. eigenvalues --  -10.26114 -10.26090 -10.26000 -10.25970 -10.25699
 Alpha  occ. eigenvalues --  -10.25542 -10.25535 -10.25454 -10.25175 -10.25090
 Alpha  occ. eigenvalues --  -10.24897 -10.24774 -10.24745 -10.24516 -10.24335
 Alpha  occ. eigenvalues --  -10.24181 -10.23854 -10.23847 -10.23843 -10.23803
 Alpha  occ. eigenvalues --  -10.23707  -3.17900  -1.92795  -1.92337  -1.92211
 Alpha  occ. eigenvalues --   -1.17023  -1.16867  -1.11675  -1.10575  -1.08089
 Alpha  occ. eigenvalues --   -1.06497  -1.04252  -1.03238  -1.02106  -1.00348
 Alpha  occ. eigenvalues --   -0.93286  -0.90493  -0.89829  -0.89337  -0.88893
 Alpha  occ. eigenvalues --   -0.88467  -0.88363  -0.87551  -0.87453  -0.86971
 Alpha  occ. eigenvalues --   -0.85727  -0.85150  -0.84587  -0.84156  -0.83413
 Alpha  occ. eigenvalues --   -0.82534  -0.81919  -0.81080  -0.80856  -0.80163
 Alpha  occ. eigenvalues --   -0.79347  -0.78361  -0.77918  -0.77082  -0.76596
 Alpha  occ. eigenvalues --   -0.75423  -0.75264  -0.75142  -0.74651  -0.73793
 Alpha  occ. eigenvalues --   -0.73380  -0.72900  -0.71828  -0.70622  -0.68963
 Alpha  occ. eigenvalues --   -0.68685  -0.68503  -0.67150  -0.66337  -0.65583
 Alpha  occ. eigenvalues --   -0.65411  -0.65298  -0.64812  -0.64433  -0.64306
 Alpha  occ. eigenvalues --   -0.63959  -0.62819  -0.62763  -0.62109  -0.60130
 Alpha  occ. eigenvalues --   -0.59973  -0.59373  -0.59188  -0.58838  -0.58485
 Alpha  occ. eigenvalues --   -0.57508  -0.57279  -0.56412  -0.56075  -0.55671
 Alpha  occ. eigenvalues --   -0.55442  -0.54981  -0.54520  -0.54207  -0.54190
 Alpha  occ. eigenvalues --   -0.53696  -0.53351  -0.53248  -0.53094  -0.52918
 Alpha  occ. eigenvalues --   -0.52715  -0.52628  -0.52186  -0.51927  -0.51626
 Alpha  occ. eigenvalues --   -0.51557  -0.51236  -0.51100  -0.50834  -0.50642
 Alpha  occ. eigenvalues --   -0.50483  -0.50226  -0.50131  -0.49926  -0.49868
 Alpha  occ. eigenvalues --   -0.49695  -0.49131  -0.49015  -0.48965  -0.48646
 Alpha  occ. eigenvalues --   -0.48483  -0.48381  -0.48268  -0.48199  -0.47661
 Alpha  occ. eigenvalues --   -0.47540  -0.47281  -0.46974  -0.46833  -0.46543
 Alpha  occ. eigenvalues --   -0.46458  -0.46410  -0.46290  -0.46104  -0.45837
 Alpha  occ. eigenvalues --   -0.45652  -0.45393  -0.45319  -0.44987  -0.44756
 Alpha  occ. eigenvalues --   -0.44675  -0.44408  -0.44116  -0.44081  -0.43952
 Alpha  occ. eigenvalues --   -0.43872  -0.43579  -0.43536  -0.43354  -0.43124
 Alpha  occ. eigenvalues --   -0.43107  -0.42951  -0.42453  -0.42387  -0.42218
 Alpha  occ. eigenvalues --   -0.42178  -0.41883  -0.41710  -0.41562  -0.41546
 Alpha  occ. eigenvalues --   -0.41058  -0.40455  -0.40416  -0.40363  -0.40164
 Alpha  occ. eigenvalues --   -0.39732  -0.39413  -0.39297  -0.39004  -0.38631
 Alpha  occ. eigenvalues --   -0.38245  -0.37754  -0.37529  -0.37484  -0.37466
 Alpha  occ. eigenvalues --   -0.37254  -0.37117  -0.36947  -0.36679  -0.36306
 Alpha  occ. eigenvalues --   -0.35848  -0.35568  -0.35232  -0.34691  -0.34328
 Alpha  occ. eigenvalues --   -0.33423  -0.33313  -0.33199  -0.32067  -0.31346
 Alpha  occ. eigenvalues --   -0.30788  -0.30299  -0.30139  -0.28578  -0.24580
 Alpha  occ. eigenvalues --   -0.21293
 Alpha virt. eigenvalues --   -0.09219  -0.02567  -0.00025   0.01858   0.02378
 Alpha virt. eigenvalues --    0.04326   0.04727   0.04893   0.06427   0.06909
 Alpha virt. eigenvalues --    0.07627   0.07890   0.08049   0.08365   0.08575

 Mulliken charges:
               1
     1  Mg   0.818125
     2  C   -0.040505
     3  C   -0.059147
     4  C   -0.049502
     5  C   -0.103010
     6  N   -0.320337
     7  C   -0.027833
     8  C   -0.018662
     9  C   -0.079200
    10  C    0.066827
    11  C    0.079676
    12  C    0.101939
    13  C    0.044670
    14  C    0.159059
    15  O   -0.272628
    16  O   -0.312478
    17  N   -0.411524
    18  C    0.106140
    19  C   -0.097292
    20  C   -0.055604
    21  C    0.151938
    22  C    0.103610
    23  C   -0.044623
    24  O   -0.178646
    25  C    0.044755
    26  N   -0.302376
    27  C    0.047746
    28  C   -0.073237
    29  C   -0.016096
    30  C    0.082004
    31  C    0.063261
    32  C    0.001491
    33  C   -0.003548
    34  N   -0.333181
    35  C    0.113409
    36  C   -0.164970
    37  C   -0.031781
    38  C    0.127033
    39  C    0.116637
    40  C    0.068657
    41  O   -0.172216
    42  C    0.061256
    43  C    0.195285
    44  O   -0.231984
    45  O   -0.326305
    46  C    0.178902
    47  C    0.303771
    48  C   -0.122083
    49  C   -0.178947
    50  C    0.075951
    51  C    0.044097
    52  C    0.021677
    53  C    0.026439
    54  C   -0.138568
    55  C    0.058902
    56  C    0.051346
    57  C   -0.018670
    58  C    0.089485
    59  C   -0.119623
    60  C    0.045638
    61  C    0.044434
    62  C    0.013465
    63  C    0.046525
    64  C   -0.199112
    65  C    0.068836
    66  C    0.050453
    67  H   -0.024497
    68  H   -0.037765
    69  H   -0.034039
    70  H    0.004842
    71  H    0.003564
    72  H    0.025926
    73  H    0.019368
    74  H    0.012150
    75  H    0.025226
    76  H    0.012780
    77  H    0.042429
    78  H    0.028588
    79  H    0.030814
    80  H    0.013506
    81  H    0.024625
    82  H    0.040557
    83  H    0.032473
    84  H    0.036175
    85  H    0.024048
    86  H    0.015554
    87  H    0.009564
    88  H    0.034089
    89  H    0.007903
    90  H    0.024791
    91  H    0.017123
    92  H    0.022540
    93  H    0.021972
    94  H    0.014414
    95  H    0.039666
    96  H    0.026034
    97  H    0.039603
    98  H    0.045464
    99  H    0.042980
   100  H    0.035199
   101  H    0.031009
   102  H    0.038930
   103  H    0.050651
   104  H   -0.009954
   105  H    0.029116
   106  H    0.023171
   107  H    0.013293
   108  H   -0.007900
   109  H   -0.001638
   110  H    0.012751
   111  H   -0.007061
   112  H    0.006960
   113  H   -0.002931
   114  H    0.000322
   115  H    0.012521
   116  H   -0.008743
   117  H    0.020618
   118  H   -0.005736
   119  H   -0.010917
   120  H    0.002253
   121  H   -0.007351
   122  H   -0.016111
   123  H   -0.023079
   124  H    0.005172
   125  H    0.001902
   126  H    0.006145
   127  H   -0.006916
   128  H   -0.002388
   129  H   -0.002976
   130  H    0.006832
   131  H   -0.001468
   132  H   -0.009173
   133  H   -0.023710
   134  H   -0.005047
   135  H    0.009670
   136  H    0.005970
   137  H    0.008310
   138  H    0.009668
   139  H    0.003429
   140  H    0.006987
 Sum of Mulliken charges =  -0.00000

 Dipole moment (field-independent basis, Debye):
    X=             -0.7330    Y=              2.7455    Z=              3.3306  Tot=              4.3781
 Quadrupole moment (field-independent basis, Debye-Ang):
   XX=           -410.0505   YY=           -413.6944   ZZ=           -398.5025
   XY=             43.1909   XZ=              5.9793   YZ=             17.7260

 Normal termination of Gaussian 16 at Wed May  4 19:11:32 2022.
