 Gaussian 16, Revision A.03,
 Gaussian 16:  ES64L-G16RevA.03 25-Dec-2016

 ---------------------------------
 #p PBE1PBE/Def2SVP td=(nstates=5)
 ---------------------------------

 -----------------------------------------------------
 step_401_chromophore_17 TDDFT with PBE1PBE functional
 -----------------------------------------------------
 Symbolic Z-matrix:
 Charge =  0 Multiplicity = 1

                         Standard orientation:
 ---------------------------------------------------------------------
 Center     Atomic      Atomic             Coordinates (Angstroms)
 Number     Number       Type             X           Y           Z
 ---------------------------------------------------------------------
      1         12           0        3.926613    1.463770   -0.683685
      2          6           0        4.516476   -2.025793   -0.355910
      3          6           0        1.267957    0.796511   -2.720405
      4          6           0        2.815570    4.660221   -0.120557
      5          6           0        6.143268    1.759443    2.144432
      6          7           0        3.052187   -0.386362   -1.470022
      7          6           0        3.462131   -1.687897   -1.206027
      8          6           0        2.341961   -2.685667   -1.720936
      9          6           0        1.591438   -1.808202   -2.763722
     10          6           0        1.884516   -0.358149   -2.232486
     11          6           0        1.958761   -1.952406   -4.249005
     12          6           0        1.453838   -3.328653   -0.573098
     13          6           0        1.479029   -4.891521   -0.472770
     14          6           0        0.071674   -5.601102   -0.394402
     15          8           0       -0.188732   -6.686005   -0.987151
     16          8           0       -0.786512   -4.886793    0.373347
     17          7           0        2.284261    2.594830   -1.427798
     18          6           0        1.343689    2.187174   -2.375608
     19          6           0        0.561892    3.297996   -2.783897
     20          6           0        0.977227    4.451127   -1.978324
     21          6           0        2.157651    3.993495   -1.188333
     22          6           0       -0.488923    3.094005   -3.816188
     23          6           0        0.347611    5.800289   -2.098368
     24          8           0       -0.520148    5.930107   -2.897206
     25          6           0        0.904406    7.122657   -1.409131
     26          7           0        4.361456    2.921142    0.789934
     27          6           0        3.883479    4.210317    0.720371
     28          6           0        4.482499    5.101186    1.853180
     29          6           0        5.644468    4.189532    2.342602
     30          6           0        5.360508    2.828620    1.726514
     31          6           0        4.819551    6.584754    1.432530
     32          6           0        5.762481    4.187932    3.925763
     33          6           0        7.195283    4.260449    4.551525
     34          7           0        5.349678    0.261374    0.428890
     35          6           0        6.195482    0.499270    1.563112
     36          6           0        7.026083   -0.686058    1.798365
     37          6           0        6.421859   -1.684598    1.043469
     38          6           0        5.329253   -1.051833    0.334679
     39          6           0        8.127580   -0.830885    2.840407
     40          6           0        6.540139   -3.106306    0.657961
     41          8           0        7.366555   -3.927403    1.042080
     42          6           0        5.223339   -3.362281   -0.025911
     43          6           0        5.631501   -4.031784   -1.246274
     44          8           0        6.379688   -3.544821   -2.103911
     45          8           0        4.946663   -5.227847   -1.374801
     46          6           0        5.394385   -5.985356   -2.517807
     47          6           0       -2.070094   -5.516859    0.584777
     48          6           0       -2.973924   -4.580552    1.332665
     49          6           0       -4.199558   -4.824653    1.714869
     50          6           0       -5.001703   -6.152043    1.511175
     51          6           0       -5.215973   -3.809011    2.346501
     52          6           0       -6.478950   -3.305531    1.591007
     53          6           0       -6.772890   -1.840642    1.870478
     54          6           0       -8.306818   -1.690647    2.277676
     55          6           0       -8.533164   -2.067052    3.828922
     56          6           0       -8.750577   -0.282038    2.011752
     57          6           0      -10.157686   -0.132302    1.262975
     58          6           0      -10.120729   -0.295968   -0.265219
     59          6           0      -10.693250    0.906267   -0.969321
     60          6           0      -11.479582    0.497945   -2.245173
     61          6           0       -9.493003    1.887388   -1.343124
     62          6           0       -9.577342    3.061144   -0.350583
     63          6           0       -8.331899    3.950593   -0.596841
     64          6           0       -7.131405    3.528851    0.285573
     65          6           0       -7.250826    4.153955    1.660557
     66          6           0       -5.751195    3.756715   -0.380418
     67          1           0        0.576884    0.639633   -3.551502
     68          1           0        2.425102    5.658907    0.083128
     69          1           0        6.846411    1.950605    2.957311
     70          1           0        2.899519   -3.444378   -2.270317
     71          1           0        0.509298   -1.936119   -2.784738
     72          1           0        2.192240   -0.952353   -4.613571
     73          1           0        1.166658   -2.426193   -4.829496
     74          1           0        2.810301   -2.626446   -4.336404
     75          1           0        0.471249   -2.867389   -0.677254
     76          1           0        1.793265   -3.011690    0.413349
     77          1           0        2.034090   -5.256722    0.391485
     78          1           0        2.016737   -5.332614   -1.311495
     79          1           0       -1.272158    3.805877   -3.555084
     80          1           0       -0.810614    2.054231   -3.867512
     81          1           0       -0.273178    3.421251   -4.834125
     82          1           0        0.660390    7.002823   -0.353657
     83          1           0        0.439922    8.017120   -1.824823
     84          1           0        1.978962    7.069389   -1.585965
     85          1           0        3.730352    5.307543    2.614669
     86          1           0        6.593859    4.455573    1.878610
     87          1           0        4.257914    7.185776    2.147545
     88          1           0        4.606035    6.706954    0.371059
     89          1           0        5.850186    6.853629    1.667406
     90          1           0        5.470819    3.215806    4.320144
     91          1           0        5.255983    5.110295    4.211939
     92          1           0        7.987804    4.164451    3.809466
     93          1           0        7.179174    3.487649    5.319704
     94          1           0        7.245489    5.261716    4.978693
     95          1           0        7.623843   -1.194393    3.736800
     96          1           0        8.608437    0.142652    2.935051
     97          1           0        8.840252   -1.619777    2.601684
     98          1           0        4.615607   -3.943010    0.668232
     99          1           0        6.477245   -6.099724   -2.573911
    100          1           0        4.993350   -5.604609   -3.456601
    101          1           0        5.031314   -6.993616   -2.318496
    102          1           0       -1.883394   -6.379050    1.225779
    103          1           0       -2.578812   -5.710559   -0.359748
    104          1           0       -2.731783   -3.535813    1.524791
    105          1           0       -4.916491   -6.592619    2.503537
    106          1           0       -4.613967   -6.709747    0.658613
    107          1           0       -6.050881   -5.893351    1.364268
    108          1           0       -4.710726   -2.946741    2.780961
    109          1           0       -5.663342   -4.277061    3.223307
    110          1           0       -7.311963   -4.007832    1.615737
    111          1           0       -6.293200   -3.307921    0.516448
    112          1           0       -6.455241   -1.177054    1.065920
    113          1           0       -6.177033   -1.502085    2.718566
    114          1           0       -8.929985   -2.298326    1.622127
    115          1           0       -8.465183   -1.195813    4.480190
    116          1           0       -7.635325   -2.632969    4.075142
    117          1           0       -9.388609   -2.705208    4.046840
    118          1           0       -7.982135    0.224771    1.428897
    119          1           0       -8.974742    0.287251    2.913742
    120          1           0      -10.590506    0.823488    1.557347
    121          1           0      -10.777971   -0.943280    1.643385
    122          1           0      -10.553418   -1.240937   -0.595194
    123          1           0       -9.073131   -0.430945   -0.533982
    124          1           0      -11.496454    1.346812   -0.378940
    125          1           0      -10.916806    0.723244   -3.151439
    126          1           0      -12.447677    0.997380   -2.264760
    127          1           0      -11.670900   -0.575445   -2.276730
    128          1           0       -9.579794    2.321988   -2.338774
    129          1           0       -8.497645    1.446782   -1.286593
    130          1           0       -9.525002    2.786715    0.702680
    131          1           0      -10.382241    3.725743   -0.664427
    132          1           0       -8.634995    4.993701   -0.508234
    133          1           0       -7.989041    3.785334   -1.617255
    134          1           0       -7.061077    2.449004    0.418396
    135          1           0       -6.950633    3.330555    2.309781
    136          1           0       -8.252192    4.491071    1.927580
    137          1           0       -6.625124    5.045194    1.619549
    138          1           0       -5.864378    4.366414   -1.277063
    139          1           0       -5.411599    2.763585   -0.674702
    140          1           0       -5.026837    4.238573    0.277251
 ---------------------------------------------------------------------

 SCF Done:  E(RPBE1PBE) =  -3005.30316747     A.U. after   15 cycles

 Excitation energies and oscillator strengths:

 Excited State   1:      Singlet-A      1.7899 eV  692.69 nm  f=0.3613  <S**2>=0.000
     245 -> 248       -0.17260
     246 -> 247        0.69386
     246 <- 247       -0.11392
 This state for optimization and/or second-order correction.
 Total Energy, E(TD-HF/TD-DFT) =  -3005.23738977
 Copying the excited state density for this state as the 1-particle RhoCI density.

 Excited State   2:      Singlet-A      2.1685 eV  571.74 nm  f=0.0790  <S**2>=0.000
     245 -> 247        0.63872
     246 -> 248        0.28223

 Excited State   3:      Singlet-A      2.6729 eV  463.85 nm  f=0.0060  <S**2>=0.000
     244 -> 247        0.68998

 Excited State   4:      Singlet-A      2.8820 eV  430.20 nm  f=0.0001  <S**2>=0.000
     243 -> 247        0.67959

 Excited State   5:      Singlet-A      2.9501 eV  420.27 nm  f=0.0025  <S**2>=0.000
     240 -> 247        0.22325
     240 -> 249        0.10253
     242 -> 247        0.63627

 The electronic state is 1-A.
 Alpha  occ. eigenvalues --  -46.92953 -19.26941 -19.26535 -19.20639 -19.20075
 Alpha  occ. eigenvalues --  -19.19993 -19.18549 -14.42451 -14.42213 -14.39410
 Alpha  occ. eigenvalues --  -14.39093 -10.37114 -10.36749 -10.32726 -10.31712
 Alpha  occ. eigenvalues --  -10.30102 -10.29816 -10.29588 -10.29260 -10.29058
 Alpha  occ. eigenvalues --  -10.28612 -10.28589 -10.28362 -10.27343 -10.27314
 Alpha  occ. eigenvalues --  -10.26595 -10.26586 -10.26472 -10.26347 -10.26199
 Alpha  occ. eigenvalues --  -10.25920 -10.25806 -10.25745 -10.25572 -10.25517
 Alpha  occ. eigenvalues --  -10.25266 -10.25097 -10.25063 -10.24923 -10.24746
 Alpha  occ. eigenvalues --  -10.24653 -10.24231 -10.24206 -10.23940 -10.23688
 Alpha  occ. eigenvalues --  -10.23656 -10.23540 -10.23493 -10.23405 -10.23264
 Alpha  occ. eigenvalues --  -10.23164 -10.23118 -10.22970 -10.22823 -10.22600
 Alpha  occ. eigenvalues --  -10.22518 -10.22433 -10.22376 -10.22087 -10.21886
 Alpha  occ. eigenvalues --  -10.21763 -10.21431 -10.21411 -10.21257 -10.21187
 Alpha  occ. eigenvalues --  -10.21125  -3.14891  -1.87724  -1.87247  -1.87123
 Alpha  occ. eigenvalues --   -1.11881  -1.11548  -1.06555  -1.05150  -1.02813
 Alpha  occ. eigenvalues --   -1.01368  -0.98793  -0.97816  -0.96736  -0.95114
 Alpha  occ. eigenvalues --   -0.87536  -0.84628  -0.83929  -0.83602  -0.83046
 Alpha  occ. eigenvalues --   -0.82728  -0.82625  -0.81785  -0.81619  -0.81286
 Alpha  occ. eigenvalues --   -0.80027  -0.79509  -0.78861  -0.78384  -0.77695
 Alpha  occ. eigenvalues --   -0.76720  -0.76143  -0.75369  -0.75158  -0.74408
 Alpha  occ. eigenvalues --   -0.73510  -0.72648  -0.72170  -0.71400  -0.70908
 Alpha  occ. eigenvalues --   -0.69644  -0.69448  -0.69367  -0.68828  -0.68058
 Alpha  occ. eigenvalues --   -0.67599  -0.67342  -0.66314  -0.64934  -0.63311
 Alpha  occ. eigenvalues --   -0.63107  -0.62745  -0.61681  -0.60548  -0.59950
 Alpha  occ. eigenvalues --   -0.59805  -0.59604  -0.59370  -0.58984  -0.58834
 Alpha  occ. eigenvalues --   -0.58134  -0.57232  -0.57004  -0.56278  -0.54663
 Alpha  occ. eigenvalues --   -0.54306  -0.53848  -0.53636  -0.53443  -0.53110
 Alpha  occ. eigenvalues --   -0.52156  -0.51620  -0.50961  -0.50609  -0.50180
 Alpha  occ. eigenvalues --   -0.49965  -0.49535  -0.49193  -0.48786  -0.48563
 Alpha  occ. eigenvalues --   -0.48267  -0.47891  -0.47785  -0.47606  -0.47468
 Alpha  occ. eigenvalues --   -0.47176  -0.47130  -0.46648  -0.46558  -0.46257
 Alpha  occ. eigenvalues --   -0.45976  -0.45770  -0.45682  -0.45452  -0.45217
 Alpha  occ. eigenvalues --   -0.45044  -0.44825  -0.44670  -0.44480  -0.44458
 Alpha  occ. eigenvalues --   -0.44323  -0.43789  -0.43629  -0.43570  -0.43298
 Alpha  occ. eigenvalues --   -0.43115  -0.43069  -0.42972  -0.42802  -0.42279
 Alpha  occ. eigenvalues --   -0.42218  -0.41919  -0.41632  -0.41579  -0.41130
 Alpha  occ. eigenvalues --   -0.41077  -0.40989  -0.40907  -0.40752  -0.40637
 Alpha  occ. eigenvalues --   -0.40371  -0.40162  -0.39908  -0.39737  -0.39505
 Alpha  occ. eigenvalues --   -0.39349  -0.39179  -0.38928  -0.38804  -0.38756
 Alpha  occ. eigenvalues --   -0.38594  -0.38329  -0.38287  -0.38139  -0.37955
 Alpha  occ. eigenvalues --   -0.37810  -0.37687  -0.37353  -0.37163  -0.37073
 Alpha  occ. eigenvalues --   -0.37022  -0.36656  -0.36626  -0.36443  -0.36307
 Alpha  occ. eigenvalues --   -0.35956  -0.35352  -0.35198  -0.35109  -0.35076
 Alpha  occ. eigenvalues --   -0.34635  -0.34266  -0.34179  -0.34063  -0.33421
 Alpha  occ. eigenvalues --   -0.33102  -0.32582  -0.32539  -0.32400  -0.32305
 Alpha  occ. eigenvalues --   -0.32188  -0.32037  -0.31949  -0.31738  -0.31123
 Alpha  occ. eigenvalues --   -0.30676  -0.30499  -0.29952  -0.29840  -0.29324
 Alpha  occ. eigenvalues --   -0.28980  -0.28295  -0.28169  -0.27278  -0.26560
 Alpha  occ. eigenvalues --   -0.26020  -0.25684  -0.25173  -0.24267  -0.21475
 Alpha  occ. eigenvalues --   -0.18994
 Alpha virt. eigenvalues --   -0.11687  -0.06018  -0.04194  -0.02074  -0.00992
 Alpha virt. eigenvalues --   -0.00224   0.00095   0.00479   0.02498   0.02637
 Alpha virt. eigenvalues --    0.03810   0.04289   0.04562   0.04774   0.05312

 Mulliken charges:
               1
     1  Mg   0.958102
     2  C   -0.049273
     3  C   -0.069238
     4  C   -0.057054
     5  C   -0.098087
     6  N   -0.415470
     7  C    0.050272
     8  C   -0.097078
     9  C   -0.152589
    10  C    0.106228
    11  C    0.024954
    12  C    0.056409
    13  C   -0.030836
    14  C    0.221007
    15  O   -0.303832
    16  O   -0.343445
    17  N   -0.514594
    18  C    0.136431
    19  C   -0.128575
    20  C   -0.104835
    21  C    0.187298
    22  C    0.049912
    23  C    0.009239
    24  O   -0.212791
    25  C   -0.035393
    26  N   -0.411250
    27  C    0.084003
    28  C   -0.144181
    29  C   -0.094099
    30  C    0.123682
    31  C    0.006070
    32  C   -0.064920
    33  C   -0.073885
    34  N   -0.444868
    35  C    0.119543
    36  C   -0.172332
    37  C   -0.079744
    38  C    0.180031
    39  C    0.062203
    40  C    0.162720
    41  O   -0.218722
    42  C   -0.058703
    43  C    0.285808
    44  O   -0.264473
    45  O   -0.359165
    46  C    0.122452
    47  C    0.265575
    48  C   -0.139297
    49  C   -0.213851
    50  C    0.007577
    51  C   -0.023244
    52  C   -0.038613
    53  C   -0.028254
    54  C   -0.223339
    55  C   -0.001668
    56  C   -0.006513
    57  C   -0.081033
    58  C    0.040012
    59  C   -0.213630
    60  C   -0.009416
    61  C   -0.004719
    62  C   -0.055955
    63  C   -0.012992
    64  C   -0.293929
    65  C    0.008718
    66  C   -0.008145
    67  H    0.007890
    68  H   -0.002187
    69  H    0.001274
    70  H    0.047106
    71  H    0.040204
    72  H    0.053004
    73  H    0.046710
    74  H    0.040409
    75  H    0.055996
    76  H    0.046002
    77  H    0.073910
    78  H    0.060996
    79  H    0.059746
    80  H    0.040337
    81  H    0.053835
    82  H    0.066932
    83  H    0.060486
    84  H    0.063689
    85  H    0.060713
    86  H    0.054036
    87  H    0.036549
    88  H    0.061031
    89  H    0.036356
    90  H    0.057257
    91  H    0.050373
    92  H    0.048635
    93  H    0.049206
    94  H    0.042640
    95  H    0.067027
    96  H    0.051522
    97  H    0.066196
    98  H    0.082292
    99  H    0.065058
   100  H    0.056701
   101  H    0.052882
   102  H    0.065938
   103  H    0.075840
   104  H    0.020925
   105  H    0.058534
   106  H    0.049952
   107  H    0.042814
   108  H    0.023880
   109  H    0.033212
   110  H    0.041742
   111  H    0.028058
   112  H    0.036623
   113  H    0.029760
   114  H    0.038522
   115  H    0.038942
   116  H    0.021497
   117  H    0.047599
   118  H    0.032767
   119  H    0.021946
   120  H    0.032138
   121  H    0.027366
   122  H    0.014838
   123  H    0.010600
   124  H    0.041915
   125  H    0.028991
   126  H    0.033560
   127  H    0.020316
   128  H    0.029497
   129  H    0.028328
   130  H    0.042696
   131  H    0.032920
   132  H    0.023343
   133  H    0.010123
   134  H    0.038862
   135  H    0.037125
   136  H    0.033140
   137  H    0.035883
   138  H    0.036647
   139  H    0.030043
   140  H    0.034085
 Sum of Mulliken charges =  -0.00000

 Dipole moment (field-independent basis, Debye):
    X=             -1.0221    Y=              2.9816    Z=              3.1522  Tot=              4.4577
 Quadrupole moment (field-independent basis, Debye-Ang):
   XX=           -408.5800   YY=           -410.0019   ZZ=           -394.7452
   XY=             44.6353   XZ=              6.5113   YZ=             18.2768

 Normal termination of Gaussian 16 at Wed May  4 19:31:02 2022.
