 Gaussian 16, Revision A.03,
 Gaussian 16:  ES64L-G16RevA.03 25-Dec-2016

 --------------------------------
 #p wB97XD/Def2SVP td=(nstates=5)
 --------------------------------

 ----------------------------------------------------
 step_401_chromophore_17 TDDFT with wB97XD functional
 ----------------------------------------------------
 Symbolic Z-matrix:
 Charge =  0 Multiplicity = 1

                         Standard orientation:
 ---------------------------------------------------------------------
 Center     Atomic      Atomic             Coordinates (Angstroms)
 Number     Number       Type             X           Y           Z
 ---------------------------------------------------------------------
      1         12           0        3.926613    1.463770   -0.683685
      2          6           0        4.516476   -2.025793   -0.355910
      3          6           0        1.267957    0.796511   -2.720405
      4          6           0        2.815570    4.660221   -0.120557
      5          6           0        6.143268    1.759443    2.144432
      6          7           0        3.052187   -0.386362   -1.470022
      7          6           0        3.462131   -1.687897   -1.206027
      8          6           0        2.341961   -2.685667   -1.720936
      9          6           0        1.591438   -1.808202   -2.763722
     10          6           0        1.884516   -0.358149   -2.232486
     11          6           0        1.958761   -1.952406   -4.249005
     12          6           0        1.453838   -3.328653   -0.573098
     13          6           0        1.479029   -4.891521   -0.472770
     14          6           0        0.071674   -5.601102   -0.394402
     15          8           0       -0.188732   -6.686005   -0.987151
     16          8           0       -0.786512   -4.886793    0.373347
     17          7           0        2.284261    2.594830   -1.427798
     18          6           0        1.343689    2.187174   -2.375608
     19          6           0        0.561892    3.297996   -2.783897
     20          6           0        0.977227    4.451127   -1.978324
     21          6           0        2.157651    3.993495   -1.188333
     22          6           0       -0.488923    3.094005   -3.816188
     23          6           0        0.347611    5.800289   -2.098368
     24          8           0       -0.520148    5.930107   -2.897206
     25          6           0        0.904406    7.122657   -1.409131
     26          7           0        4.361456    2.921142    0.789934
     27          6           0        3.883479    4.210317    0.720371
     28          6           0        4.482499    5.101186    1.853180
     29          6           0        5.644468    4.189532    2.342602
     30          6           0        5.360508    2.828620    1.726514
     31          6           0        4.819551    6.584754    1.432530
     32          6           0        5.762481    4.187932    3.925763
     33          6           0        7.195283    4.260449    4.551525
     34          7           0        5.349678    0.261374    0.428890
     35          6           0        6.195482    0.499270    1.563112
     36          6           0        7.026083   -0.686058    1.798365
     37          6           0        6.421859   -1.684598    1.043469
     38          6           0        5.329253   -1.051833    0.334679
     39          6           0        8.127580   -0.830885    2.840407
     40          6           0        6.540139   -3.106306    0.657961
     41          8           0        7.366555   -3.927403    1.042080
     42          6           0        5.223339   -3.362281   -0.025911
     43          6           0        5.631501   -4.031784   -1.246274
     44          8           0        6.379688   -3.544821   -2.103911
     45          8           0        4.946663   -5.227847   -1.374801
     46          6           0        5.394385   -5.985356   -2.517807
     47          6           0       -2.070094   -5.516859    0.584777
     48          6           0       -2.973924   -4.580552    1.332665
     49          6           0       -4.199558   -4.824653    1.714869
     50          6           0       -5.001703   -6.152043    1.511175
     51          6           0       -5.215973   -3.809011    2.346501
     52          6           0       -6.478950   -3.305531    1.591007
     53          6           0       -6.772890   -1.840642    1.870478
     54          6           0       -8.306818   -1.690647    2.277676
     55          6           0       -8.533164   -2.067052    3.828922
     56          6           0       -8.750577   -0.282038    2.011752
     57          6           0      -10.157686   -0.132302    1.262975
     58          6           0      -10.120729   -0.295968   -0.265219
     59          6           0      -10.693250    0.906267   -0.969321
     60          6           0      -11.479582    0.497945   -2.245173
     61          6           0       -9.493003    1.887388   -1.343124
     62          6           0       -9.577342    3.061144   -0.350583
     63          6           0       -8.331899    3.950593   -0.596841
     64          6           0       -7.131405    3.528851    0.285573
     65          6           0       -7.250826    4.153955    1.660557
     66          6           0       -5.751195    3.756715   -0.380418
     67          1           0        0.576884    0.639633   -3.551502
     68          1           0        2.425102    5.658907    0.083128
     69          1           0        6.846411    1.950605    2.957311
     70          1           0        2.899519   -3.444378   -2.270317
     71          1           0        0.509298   -1.936119   -2.784738
     72          1           0        2.192240   -0.952353   -4.613571
     73          1           0        1.166658   -2.426193   -4.829496
     74          1           0        2.810301   -2.626446   -4.336404
     75          1           0        0.471249   -2.867389   -0.677254
     76          1           0        1.793265   -3.011690    0.413349
     77          1           0        2.034090   -5.256722    0.391485
     78          1           0        2.016737   -5.332614   -1.311495
     79          1           0       -1.272158    3.805877   -3.555084
     80          1           0       -0.810614    2.054231   -3.867512
     81          1           0       -0.273178    3.421251   -4.834125
     82          1           0        0.660390    7.002823   -0.353657
     83          1           0        0.439922    8.017120   -1.824823
     84          1           0        1.978962    7.069389   -1.585965
     85          1           0        3.730352    5.307543    2.614669
     86          1           0        6.593859    4.455573    1.878610
     87          1           0        4.257914    7.185776    2.147545
     88          1           0        4.606035    6.706954    0.371059
     89          1           0        5.850186    6.853629    1.667406
     90          1           0        5.470819    3.215806    4.320144
     91          1           0        5.255983    5.110295    4.211939
     92          1           0        7.987804    4.164451    3.809466
     93          1           0        7.179174    3.487649    5.319704
     94          1           0        7.245489    5.261716    4.978693
     95          1           0        7.623843   -1.194393    3.736800
     96          1           0        8.608437    0.142652    2.935051
     97          1           0        8.840252   -1.619777    2.601684
     98          1           0        4.615607   -3.943010    0.668232
     99          1           0        6.477245   -6.099724   -2.573911
    100          1           0        4.993350   -5.604609   -3.456601
    101          1           0        5.031314   -6.993616   -2.318496
    102          1           0       -1.883394   -6.379050    1.225779
    103          1           0       -2.578812   -5.710559   -0.359748
    104          1           0       -2.731783   -3.535813    1.524791
    105          1           0       -4.916491   -6.592619    2.503537
    106          1           0       -4.613967   -6.709747    0.658613
    107          1           0       -6.050881   -5.893351    1.364268
    108          1           0       -4.710726   -2.946741    2.780961
    109          1           0       -5.663342   -4.277061    3.223307
    110          1           0       -7.311963   -4.007832    1.615737
    111          1           0       -6.293200   -3.307921    0.516448
    112          1           0       -6.455241   -1.177054    1.065920
    113          1           0       -6.177033   -1.502085    2.718566
    114          1           0       -8.929985   -2.298326    1.622127
    115          1           0       -8.465183   -1.195813    4.480190
    116          1           0       -7.635325   -2.632969    4.075142
    117          1           0       -9.388609   -2.705208    4.046840
    118          1           0       -7.982135    0.224771    1.428897
    119          1           0       -8.974742    0.287251    2.913742
    120          1           0      -10.590506    0.823488    1.557347
    121          1           0      -10.777971   -0.943280    1.643385
    122          1           0      -10.553418   -1.240937   -0.595194
    123          1           0       -9.073131   -0.430945   -0.533982
    124          1           0      -11.496454    1.346812   -0.378940
    125          1           0      -10.916806    0.723244   -3.151439
    126          1           0      -12.447677    0.997380   -2.264760
    127          1           0      -11.670900   -0.575445   -2.276730
    128          1           0       -9.579794    2.321988   -2.338774
    129          1           0       -8.497645    1.446782   -1.286593
    130          1           0       -9.525002    2.786715    0.702680
    131          1           0      -10.382241    3.725743   -0.664427
    132          1           0       -8.634995    4.993701   -0.508234
    133          1           0       -7.989041    3.785334   -1.617255
    134          1           0       -7.061077    2.449004    0.418396
    135          1           0       -6.950633    3.330555    2.309781
    136          1           0       -8.252192    4.491071    1.927580
    137          1           0       -6.625124    5.045194    1.619549
    138          1           0       -5.864378    4.366414   -1.277063
    139          1           0       -5.411599    2.763585   -0.674702
    140          1           0       -5.026837    4.238573    0.277251
 ---------------------------------------------------------------------

 SCF Done:  E(RwB97XD) =  -3007.81321622     A.U. after   20 cycles

 Excitation energies and oscillator strengths:

 Excited State   1:      Singlet-A      1.5723 eV  788.53 nm  f=0.3767  <S**2>=0.000
     245 -> 248       -0.18443
     246 -> 247        0.68388
     245 <- 248       -0.11952
 This state for optimization and/or second-order correction.
 Total Energy, E(TD-HF/TD-DFT) =  -3007.75543387
 Copying the excited state density for this state as the 1-particle RhoCI density.

 Excited State   2:      Singlet-A      2.1108 eV  587.38 nm  f=0.0739  <S**2>=0.000
     245 -> 247        0.62263
     246 -> 248        0.31962

 Excited State   3:      Singlet-A      3.1091 eV  398.77 nm  f=0.0035  <S**2>=0.000
     242 -> 247        0.13070
     243 -> 247        0.10676
     244 -> 247        0.64771
     244 -> 249       -0.11379
     246 -> 248       -0.15181

 Excited State   4:      Singlet-A      3.3055 eV  375.08 nm  f=0.0827  <S**2>=0.000
     242 -> 247        0.58412
     245 -> 247       -0.10448
     246 -> 248        0.32848

 Excited State   5:      Singlet-A      3.4442 eV  359.98 nm  f=0.5945  <S**2>=0.000
     239 -> 247       -0.16506
     239 -> 249       -0.12892
     240 -> 247       -0.19040
     240 -> 249       -0.11319
     242 -> 247       -0.22106
     244 -> 247        0.15786
     245 -> 247       -0.28630
     246 -> 248        0.47145

 The electronic state is 1-A.
 Alpha  occ. eigenvalues --  -46.95894 -19.31505 -19.31215 -19.25454 -19.25145
 Alpha  occ. eigenvalues --  -19.24641 -19.23189 -14.47630 -14.47139 -14.44485
 Alpha  occ. eigenvalues --  -14.43919 -10.43874 -10.43690 -10.39816 -10.38360
 Alpha  occ. eigenvalues --  -10.36602 -10.36239 -10.35707 -10.35431 -10.35394
 Alpha  occ. eigenvalues --  -10.35198 -10.34872 -10.34698 -10.33872 -10.33443
 Alpha  occ. eigenvalues --  -10.33353 -10.32897 -10.32854 -10.32735 -10.32377
 Alpha  occ. eigenvalues --  -10.32087 -10.32023 -10.31978 -10.31973 -10.31953
 Alpha  occ. eigenvalues --  -10.31671 -10.31644 -10.31247 -10.31116 -10.31078
 Alpha  occ. eigenvalues --  -10.30987 -10.30882 -10.30553 -10.30193 -10.30126
 Alpha  occ. eigenvalues --  -10.30047 -10.29965 -10.29833 -10.29818 -10.29808
 Alpha  occ. eigenvalues --  -10.29490 -10.29473 -10.29365 -10.29069 -10.29013
 Alpha  occ. eigenvalues --  -10.28785 -10.28715 -10.28666 -10.28436 -10.28239
 Alpha  occ. eigenvalues --  -10.28102 -10.27759 -10.27749 -10.27627 -10.27588
 Alpha  occ. eigenvalues --  -10.27522  -3.21713  -1.95290  -1.94812  -1.94688
 Alpha  occ. eigenvalues --   -1.19252  -1.19060  -1.13840  -1.12868  -1.10313
 Alpha  occ. eigenvalues --   -1.08717  -1.06303  -1.05267  -1.04100  -1.02344
 Alpha  occ. eigenvalues --   -0.95307  -0.92294  -0.91580  -0.91241  -0.90686
 Alpha  occ. eigenvalues --   -0.90327  -0.90234  -0.89482  -0.89257  -0.88920
 Alpha  occ. eigenvalues --   -0.87625  -0.87046  -0.86494  -0.86030  -0.85308
 Alpha  occ. eigenvalues --   -0.84361  -0.83849  -0.82974  -0.82787  -0.82085
 Alpha  occ. eigenvalues --   -0.81169  -0.80304  -0.79834  -0.79017  -0.78546
 Alpha  occ. eigenvalues --   -0.77290  -0.77071  -0.77025  -0.76483  -0.75668
 Alpha  occ. eigenvalues --   -0.75226  -0.74897  -0.73815  -0.72543  -0.70939
 Alpha  occ. eigenvalues --   -0.70662  -0.70369  -0.69139  -0.68177  -0.67509
 Alpha  occ. eigenvalues --   -0.67288  -0.67236  -0.66796  -0.66442  -0.66298
 Alpha  occ. eigenvalues --   -0.65778  -0.64769  -0.64638  -0.63900  -0.62150
 Alpha  occ. eigenvalues --   -0.61936  -0.61375  -0.61118  -0.60806  -0.60460
 Alpha  occ. eigenvalues --   -0.59501  -0.59125  -0.58373  -0.58024  -0.57618
 Alpha  occ. eigenvalues --   -0.57377  -0.56931  -0.56546  -0.56161  -0.56031
 Alpha  occ. eigenvalues --   -0.55658  -0.55219  -0.55194  -0.54984  -0.54873
 Alpha  occ. eigenvalues --   -0.54584  -0.54537  -0.54042  -0.53907  -0.53551
 Alpha  occ. eigenvalues --   -0.53455  -0.53089  -0.53033  -0.52757  -0.52541
 Alpha  occ. eigenvalues --   -0.52420  -0.52174  -0.52038  -0.51867  -0.51810
 Alpha  occ. eigenvalues --   -0.51634  -0.51044  -0.50896  -0.50846  -0.50550
 Alpha  occ. eigenvalues --   -0.50385  -0.50288  -0.50178  -0.50067  -0.49609
 Alpha  occ. eigenvalues --   -0.49466  -0.49188  -0.48883  -0.48755  -0.48444
 Alpha  occ. eigenvalues --   -0.48346  -0.48278  -0.48204  -0.48004  -0.47759
 Alpha  occ. eigenvalues --   -0.47620  -0.47306  -0.47155  -0.46947  -0.46681
 Alpha  occ. eigenvalues --   -0.46527  -0.46341  -0.46012  -0.45987  -0.45896
 Alpha  occ. eigenvalues --   -0.45740  -0.45468  -0.45425  -0.45296  -0.45102
 Alpha  occ. eigenvalues --   -0.45037  -0.44874  -0.44436  -0.44259  -0.44138
 Alpha  occ. eigenvalues --   -0.44106  -0.43772  -0.43658  -0.43471  -0.43405
 Alpha  occ. eigenvalues --   -0.42973  -0.42330  -0.42267  -0.42205  -0.42076
 Alpha  occ. eigenvalues --   -0.41662  -0.41245  -0.41200  -0.40900  -0.40463
 Alpha  occ. eigenvalues --   -0.40113  -0.39600  -0.39564  -0.39445  -0.39331
 Alpha  occ. eigenvalues --   -0.39215  -0.39020  -0.38953  -0.38727  -0.38115
 Alpha  occ. eigenvalues --   -0.37675  -0.37415  -0.37173  -0.36703  -0.36169
 Alpha  occ. eigenvalues --   -0.35621  -0.35206  -0.35133  -0.34164  -0.33514
 Alpha  occ. eigenvalues --   -0.32805  -0.32484  -0.32063  -0.30702  -0.26511
 Alpha  occ. eigenvalues --   -0.23080
 Alpha virt. eigenvalues --   -0.07576  -0.00654   0.02047   0.04506   0.05035
 Alpha virt. eigenvalues --    0.06453   0.06988   0.07223   0.09187   0.09240
 Alpha virt. eigenvalues --    0.10506   0.10888   0.11172   0.11506   0.12034

 Mulliken charges:
               1
     1  Mg   0.950446
     2  C   -0.055808
     3  C   -0.078205
     4  C   -0.059698
     5  C   -0.110318
     6  N   -0.388950
     7  C    0.019189
     8  C   -0.064249
     9  C   -0.127484
    10  C    0.092696
    11  C    0.033850
    12  C    0.062903
    13  C   -0.014105
    14  C    0.213384
    15  O   -0.302229
    16  O   -0.342549
    17  N   -0.485848
    18  C    0.125635
    19  C   -0.119967
    20  C   -0.096978
    21  C    0.175041
    22  C    0.060285
    23  C    0.001770
    24  O   -0.210144
    25  C   -0.017412
    26  N   -0.375748
    27  C    0.068669
    28  C   -0.120849
    29  C   -0.068541
    30  C    0.110674
    31  C    0.017012
    32  C   -0.044272
    33  C   -0.061401
    34  N   -0.412885
    35  C    0.117152
    36  C   -0.170262
    37  C   -0.075359
    38  C    0.163804
    39  C    0.074049
    40  C    0.144545
    41  O   -0.207462
    42  C   -0.015770
    43  C    0.263013
    44  O   -0.260358
    45  O   -0.356547
    46  C    0.136576
    47  C    0.276154
    48  C   -0.145993
    49  C   -0.206221
    50  C    0.024858
    51  C    0.003628
    52  C   -0.028405
    53  C   -0.008080
    54  C   -0.197495
    55  C    0.013175
    56  C    0.020183
    57  C   -0.063577
    58  C    0.053997
    59  C   -0.181061
    60  C    0.002641
    61  C    0.009598
    62  C   -0.032436
    63  C    0.006284
    64  C   -0.258235
    65  C    0.017927
    66  C    0.002404
    67  H   -0.000897
    68  H   -0.015702
    69  H   -0.008551
    70  H    0.027257
    71  H    0.030909
    72  H    0.046322
    73  H    0.042051
    74  H    0.033693
    75  H    0.049502
    76  H    0.038227
    77  H    0.068347
    78  H    0.054411
    79  H    0.053737
    80  H    0.034465
    81  H    0.049011
    82  H    0.061521
    83  H    0.059215
    84  H    0.055470
    85  H    0.049616
    86  H    0.041316
    87  H    0.031440
    88  H    0.053847
    89  H    0.030530
    90  H    0.047257
    91  H    0.041492
    92  H    0.042757
    93  H    0.044173
    94  H    0.037802
    95  H    0.062809
    96  H    0.046875
    97  H    0.063907
    98  H    0.076781
    99  H    0.060767
   100  H    0.053375
   101  H    0.049905
   102  H    0.061418
   103  H    0.071007
   104  H    0.018878
   105  H    0.052075
   106  H    0.045068
   107  H    0.035376
   108  H    0.014900
   109  H    0.022077
   110  H    0.033487
   111  H    0.019208
   112  H    0.030460
   113  H    0.018164
   114  H    0.024119
   115  H    0.033231
   116  H    0.010587
   117  H    0.043285
   118  H    0.010104
   119  H    0.012906
   120  H    0.023356
   121  H    0.017778
   122  H    0.007474
   123  H   -0.002499
   124  H    0.029638
   125  H    0.022465
   126  H    0.028385
   127  H    0.013659
   128  H    0.020476
   129  H    0.015790
   130  H    0.024806
   131  H    0.025201
   132  H    0.016511
   133  H   -0.002485
   134  H    0.019630
   135  H    0.032197
   136  H    0.027224
   137  H    0.029341
   138  H    0.030541
   139  H    0.025135
   140  H    0.028749
 Sum of Mulliken charges =  -0.00000

 Dipole moment (field-independent basis, Debye):
    X=             -0.6349    Y=              2.7600    Z=              3.3658  Tot=              4.3988
 Quadrupole moment (field-independent basis, Debye-Ang):
   XX=           -405.3178   YY=           -409.5731   ZZ=           -394.7780
   XY=             43.4598   XZ=              7.0481   YZ=             18.2105

 Normal termination of Gaussian 16 at Wed May  4 20:00:51 2022.
