 Gaussian 16, Revision A.03,
 Gaussian 16:  ES64L-G16RevA.03 25-Dec-2016

 --------------------
 #p ZINDO=(nstates=5)
 --------------------

 -----------------------------
 step_401_chromophore_17 ZINDO
 -----------------------------
 Symbolic Z-matrix:
 Charge =  0 Multiplicity = 1

                         Standard orientation:
 ---------------------------------------------------------------------
 Center     Atomic      Atomic             Coordinates (Angstroms)
 Number     Number       Type             X           Y           Z
 ---------------------------------------------------------------------
      1         12           0        3.926613    1.463770   -0.683685
      2          6           0        4.516476   -2.025793   -0.355910
      3          6           0        1.267957    0.796511   -2.720405
      4          6           0        2.815570    4.660221   -0.120557
      5          6           0        6.143268    1.759443    2.144432
      6          7           0        3.052187   -0.386362   -1.470022
      7          6           0        3.462131   -1.687897   -1.206027
      8          6           0        2.341961   -2.685667   -1.720936
      9          6           0        1.591438   -1.808202   -2.763722
     10          6           0        1.884516   -0.358149   -2.232486
     11          6           0        1.958761   -1.952406   -4.249005
     12          6           0        1.453838   -3.328653   -0.573098
     13          6           0        1.479029   -4.891521   -0.472770
     14          6           0        0.071674   -5.601102   -0.394402
     15          8           0       -0.188732   -6.686005   -0.987151
     16          8           0       -0.786512   -4.886793    0.373347
     17          7           0        2.284261    2.594830   -1.427798
     18          6           0        1.343689    2.187174   -2.375608
     19          6           0        0.561892    3.297996   -2.783897
     20          6           0        0.977227    4.451127   -1.978324
     21          6           0        2.157651    3.993495   -1.188333
     22          6           0       -0.488923    3.094005   -3.816188
     23          6           0        0.347611    5.800289   -2.098368
     24          8           0       -0.520148    5.930107   -2.897206
     25          6           0        0.904406    7.122657   -1.409131
     26          7           0        4.361456    2.921142    0.789934
     27          6           0        3.883479    4.210317    0.720371
     28          6           0        4.482499    5.101186    1.853180
     29          6           0        5.644468    4.189532    2.342602
     30          6           0        5.360508    2.828620    1.726514
     31          6           0        4.819551    6.584754    1.432530
     32          6           0        5.762481    4.187932    3.925763
     33          6           0        7.195283    4.260449    4.551525
     34          7           0        5.349678    0.261374    0.428890
     35          6           0        6.195482    0.499270    1.563112
     36          6           0        7.026083   -0.686058    1.798365
     37          6           0        6.421859   -1.684598    1.043469
     38          6           0        5.329253   -1.051833    0.334679
     39          6           0        8.127580   -0.830885    2.840407
     40          6           0        6.540139   -3.106306    0.657961
     41          8           0        7.366555   -3.927403    1.042080
     42          6           0        5.223339   -3.362281   -0.025911
     43          6           0        5.631501   -4.031784   -1.246274
     44          8           0        6.379688   -3.544821   -2.103911
     45          8           0        4.946663   -5.227847   -1.374801
     46          6           0        5.394385   -5.985356   -2.517807
     47          6           0       -2.070094   -5.516859    0.584777
     48          6           0       -2.973924   -4.580552    1.332665
     49          6           0       -4.199558   -4.824653    1.714869
     50          6           0       -5.001703   -6.152043    1.511175
     51          6           0       -5.215973   -3.809011    2.346501
     52          6           0       -6.478950   -3.305531    1.591007
     53          6           0       -6.772890   -1.840642    1.870478
     54          6           0       -8.306818   -1.690647    2.277676
     55          6           0       -8.533164   -2.067052    3.828922
     56          6           0       -8.750577   -0.282038    2.011752
     57          6           0      -10.157686   -0.132302    1.262975
     58          6           0      -10.120729   -0.295968   -0.265219
     59          6           0      -10.693250    0.906267   -0.969321
     60          6           0      -11.479582    0.497945   -2.245173
     61          6           0       -9.493003    1.887388   -1.343124
     62          6           0       -9.577342    3.061144   -0.350583
     63          6           0       -8.331899    3.950593   -0.596841
     64          6           0       -7.131405    3.528851    0.285573
     65          6           0       -7.250826    4.153955    1.660557
     66          6           0       -5.751195    3.756715   -0.380418
     67          1           0        0.576884    0.639633   -3.551502
     68          1           0        2.425102    5.658907    0.083128
     69          1           0        6.846411    1.950605    2.957311
     70          1           0        2.899519   -3.444378   -2.270317
     71          1           0        0.509298   -1.936119   -2.784738
     72          1           0        2.192240   -0.952353   -4.613571
     73          1           0        1.166658   -2.426193   -4.829496
     74          1           0        2.810301   -2.626446   -4.336404
     75          1           0        0.471249   -2.867389   -0.677254
     76          1           0        1.793265   -3.011690    0.413349
     77          1           0        2.034090   -5.256722    0.391485
     78          1           0        2.016737   -5.332614   -1.311495
     79          1           0       -1.272158    3.805877   -3.555084
     80          1           0       -0.810614    2.054231   -3.867512
     81          1           0       -0.273178    3.421251   -4.834125
     82          1           0        0.660390    7.002823   -0.353657
     83          1           0        0.439922    8.017120   -1.824823
     84          1           0        1.978962    7.069389   -1.585965
     85          1           0        3.730352    5.307543    2.614669
     86          1           0        6.593859    4.455573    1.878610
     87          1           0        4.257914    7.185776    2.147545
     88          1           0        4.606035    6.706954    0.371059
     89          1           0        5.850186    6.853629    1.667406
     90          1           0        5.470819    3.215806    4.320144
     91          1           0        5.255983    5.110295    4.211939
     92          1           0        7.987804    4.164451    3.809466
     93          1           0        7.179174    3.487649    5.319704
     94          1           0        7.245489    5.261716    4.978693
     95          1           0        7.623843   -1.194393    3.736800
     96          1           0        8.608437    0.142652    2.935051
     97          1           0        8.840252   -1.619777    2.601684
     98          1           0        4.615607   -3.943010    0.668232
     99          1           0        6.477245   -6.099724   -2.573911
    100          1           0        4.993350   -5.604609   -3.456601
    101          1           0        5.031314   -6.993616   -2.318496
    102          1           0       -1.883394   -6.379050    1.225779
    103          1           0       -2.578812   -5.710559   -0.359748
    104          1           0       -2.731783   -3.535813    1.524791
    105          1           0       -4.916491   -6.592619    2.503537
    106          1           0       -4.613967   -6.709747    0.658613
    107          1           0       -6.050881   -5.893351    1.364268
    108          1           0       -4.710726   -2.946741    2.780961
    109          1           0       -5.663342   -4.277061    3.223307
    110          1           0       -7.311963   -4.007832    1.615737
    111          1           0       -6.293200   -3.307921    0.516448
    112          1           0       -6.455241   -1.177054    1.065920
    113          1           0       -6.177033   -1.502085    2.718566
    114          1           0       -8.929985   -2.298326    1.622127
    115          1           0       -8.465183   -1.195813    4.480190
    116          1           0       -7.635325   -2.632969    4.075142
    117          1           0       -9.388609   -2.705208    4.046840
    118          1           0       -7.982135    0.224771    1.428897
    119          1           0       -8.974742    0.287251    2.913742
    120          1           0      -10.590506    0.823488    1.557347
    121          1           0      -10.777971   -0.943280    1.643385
    122          1           0      -10.553418   -1.240937   -0.595194
    123          1           0       -9.073131   -0.430945   -0.533982
    124          1           0      -11.496454    1.346812   -0.378940
    125          1           0      -10.916806    0.723244   -3.151439
    126          1           0      -12.447677    0.997380   -2.264760
    127          1           0      -11.670900   -0.575445   -2.276730
    128          1           0       -9.579794    2.321988   -2.338774
    129          1           0       -8.497645    1.446782   -1.286593
    130          1           0       -9.525002    2.786715    0.702680
    131          1           0      -10.382241    3.725743   -0.664427
    132          1           0       -8.634995    4.993701   -0.508234
    133          1           0       -7.989041    3.785334   -1.617255
    134          1           0       -7.061077    2.449004    0.418396
    135          1           0       -6.950633    3.330555    2.309781
    136          1           0       -8.252192    4.491071    1.927580
    137          1           0       -6.625124    5.045194    1.619549
    138          1           0       -5.864378    4.366414   -1.277063
    139          1           0       -5.411599    2.763585   -0.674702
    140          1           0       -5.026837    4.238573    0.277251
 ---------------------------------------------------------------------

 SCF Done:  E(RZINDO/S) =  -473.937011414     A.U. after   19 cycles

 Excitation energies and oscillator strengths:

 Excited State   1:      Singlet-A      1.2153 eV 1020.19 nm  f=0.5909  <S**2>=0.000
     175 ->178        -0.18765
     176 ->177         0.66385
 This state for optimization and/or second-order correction.
 Total Energy, E(CIS/TDA) =  -473.892349651
 Copying the excited state density for this state as the 1-particle RhoCI density.

 Excited State   2:      Singlet-A      1.8904 eV  655.86 nm  f=0.0094  <S**2>=0.000
     175 ->177         0.50667
     176 ->178         0.46900

 Excited State   3:      Singlet-A      2.8773 eV  430.90 nm  f=0.0037  <S**2>=0.000
     168 ->177         0.32212
     168 ->179        -0.41906
     168 ->182         0.11291
     168 ->183        -0.14569
     168 ->185        -0.17241
     171 ->177        -0.20741
     171 ->179         0.13602

 Excited State   4:      Singlet-A      2.8907 eV  428.91 nm  f=0.7318  <S**2>=0.000
     171 ->177        -0.13199
     175 ->177        -0.37612
     176 ->178         0.42564
     176 ->179         0.34098

 Excited State   5:      Singlet-A      2.9136 eV  425.54 nm  f=0.0106  <S**2>=0.000
     170 ->177         0.23288
     170 ->178        -0.16358
     170 ->179         0.18387
     170 ->182         0.30389
     170 ->183        -0.13253
     170 ->184        -0.16673
     170 ->185         0.21714
     170 ->187         0.19043
     170 ->192         0.13406
     174 ->177        -0.21292

 The electronic state is 1-A.
 Alpha  occ. eigenvalues --   -1.83863  -1.78673  -1.76385  -1.73839  -1.73289
 Alpha  occ. eigenvalues --   -1.68678  -1.66440  -1.61051  -1.60621  -1.60055
 Alpha  occ. eigenvalues --   -1.55394  -1.50591  -1.48752  -1.47760  -1.46096
 Alpha  occ. eigenvalues --   -1.43754  -1.42800  -1.40480  -1.38539  -1.37845
 Alpha  occ. eigenvalues --   -1.36080  -1.34104  -1.33849  -1.30100  -1.28270
 Alpha  occ. eigenvalues --   -1.26972  -1.26116  -1.22030  -1.20678  -1.18234
 Alpha  occ. eigenvalues --   -1.17692  -1.15803  -1.15135  -1.12912  -1.12768
 Alpha  occ. eigenvalues --   -1.11294  -1.09514  -1.08556  -1.04330  -1.04172
 Alpha  occ. eigenvalues --   -1.03319  -1.00578  -0.98587  -0.98098  -0.96480
 Alpha  occ. eigenvalues --   -0.95963  -0.94709  -0.94032  -0.92340  -0.92207
 Alpha  occ. eigenvalues --   -0.90373  -0.90134  -0.88121  -0.87893  -0.87532
 Alpha  occ. eigenvalues --   -0.85843  -0.85065  -0.83995  -0.82431  -0.80448
 Alpha  occ. eigenvalues --   -0.79474  -0.78833  -0.77205  -0.76944  -0.76740
 Alpha  occ. eigenvalues --   -0.76118  -0.75320  -0.74484  -0.73585  -0.73495
 Alpha  occ. eigenvalues --   -0.72952  -0.72230  -0.71399  -0.70776  -0.70573
 Alpha  occ. eigenvalues --   -0.70312  -0.69624  -0.68983  -0.68686  -0.68095
 Alpha  occ. eigenvalues --   -0.67954  -0.67700  -0.66840  -0.66494  -0.65803
 Alpha  occ. eigenvalues --   -0.65614  -0.65246  -0.64701  -0.63786  -0.63621
 Alpha  occ. eigenvalues --   -0.63428  -0.63178  -0.62866  -0.62554  -0.62480
 Alpha  occ. eigenvalues --   -0.62373  -0.61385  -0.61056  -0.60445  -0.60124
 Alpha  occ. eigenvalues --   -0.59630  -0.59229  -0.58857  -0.58832  -0.58166
 Alpha  occ. eigenvalues --   -0.57728  -0.57504  -0.57083  -0.56553  -0.56226
 Alpha  occ. eigenvalues --   -0.55837  -0.55624  -0.55214  -0.55044  -0.54695
 Alpha  occ. eigenvalues --   -0.54505  -0.54221  -0.53715  -0.53391  -0.52797
 Alpha  occ. eigenvalues --   -0.52667  -0.52177  -0.51967  -0.51784  -0.51270
 Alpha  occ. eigenvalues --   -0.50913  -0.50903  -0.50774  -0.50756  -0.50609
 Alpha  occ. eigenvalues --   -0.50490  -0.50148  -0.49964  -0.49597  -0.49305
 Alpha  occ. eigenvalues --   -0.49191  -0.48885  -0.48361  -0.47990  -0.47919
 Alpha  occ. eigenvalues --   -0.47399  -0.47225  -0.47170  -0.46568  -0.46343
 Alpha  occ. eigenvalues --   -0.46232  -0.45993  -0.45888  -0.45625  -0.45540
 Alpha  occ. eigenvalues --   -0.45415  -0.44951  -0.44339  -0.44204  -0.43821
 Alpha  occ. eigenvalues --   -0.43142  -0.43093  -0.42844  -0.42528  -0.42368
 Alpha  occ. eigenvalues --   -0.42029  -0.41965  -0.40808  -0.39285  -0.39126
 Alpha  occ. eigenvalues --   -0.38777  -0.37837  -0.36263  -0.34854  -0.34156
 Alpha  occ. eigenvalues --   -0.33652  -0.33278  -0.32744  -0.31320  -0.27200
 Alpha  occ. eigenvalues --   -0.21881
 Alpha virt. eigenvalues --   -0.08841  -0.02808  -0.01177   0.00912   0.00923
 Alpha virt. eigenvalues --    0.01173   0.01850   0.02445   0.04298   0.05335
 Alpha virt. eigenvalues --    0.05609   0.06599   0.06941   0.07690   0.07862

 Mulliken charges:
               1
     1  Mg   0.430796
     2  C   -0.077007
     3  C   -0.068103
     4  C   -0.056408
     5  C   -0.051622
     6  N   -0.298175
     7  C    0.146360
     8  C    0.005298
     9  C    0.004273
    10  C    0.107665
    11  C   -0.048987
    12  C   -0.019227
    13  C    0.004271
    14  C    0.459597
    15  O   -0.530869
    16  O   -0.254899
    17  N   -0.338430
    18  C    0.098018
    19  C    0.026770
    20  C   -0.051596
    21  C    0.081756
    22  C   -0.041856
    23  C    0.315480
    24  O   -0.510850
    25  C   -0.034100
    26  N   -0.250089
    27  C    0.088412
    28  C   -0.009067
    29  C   -0.001316
    30  C    0.142979
    31  C   -0.060793
    32  C   -0.049407
    33  C   -0.067292
    34  N   -0.330600
    35  C    0.099302
    36  C    0.053061
    37  C   -0.054451
    38  C    0.157553
    39  C   -0.036726
    40  C    0.348002
    41  O   -0.510348
    42  C    0.069917
    43  C    0.497742
    44  O   -0.530614
    45  O   -0.272203
    46  C    0.077711
    47  C    0.116260
    48  C   -0.080322
    49  C   -0.022872
    50  C   -0.058062
    51  C   -0.029272
    52  C   -0.029107
    53  C   -0.030736
    54  C   -0.012658
    55  C   -0.064190
    56  C   -0.042096
    57  C   -0.047504
    58  C   -0.029355
    59  C   -0.013000
    60  C   -0.066278
    61  C   -0.032474
    62  C   -0.046411
    63  C   -0.041601
    64  C   -0.017379
    65  C   -0.059250
    66  C   -0.061213
    67  H    0.019962
    68  H    0.030138
    69  H    0.029536
    70  H    0.029962
    71  H    0.022446
    72  H    0.032226
    73  H    0.021286
    74  H    0.020803
    75  H    0.036253
    76  H    0.020939
    77  H    0.045866
    78  H    0.041184
    79  H    0.036915
    80  H    0.025337
    81  H    0.035172
    82  H    0.034205
    83  H    0.043904
    84  H    0.034658
    85  H    0.034075
    86  H    0.038272
    87  H    0.021421
    88  H    0.035581
    89  H    0.017697
    90  H    0.034343
    91  H    0.030722
    92  H    0.026837
    93  H    0.025377
    94  H    0.018529
    95  H    0.038077
    96  H    0.030167
    97  H    0.041646
    98  H    0.055893
    99  H    0.049152
   100  H    0.046130
   101  H    0.023008
   102  H    0.055311
   103  H    0.062957
   104  H    0.034254
   105  H    0.034315
   106  H    0.029129
   107  H    0.026050
   108  H    0.014893
   109  H    0.014018
   110  H    0.029562
   111  H    0.005354
   112  H    0.025508
   113  H    0.016605
   114  H    0.026907
   115  H    0.026453
   116  H    0.010219
   117  H    0.027947
   118  H    0.019801
   119  H    0.013736
   120  H    0.020850
   121  H    0.013531
   122  H    0.016474
   123  H    0.012918
   124  H    0.028357
   125  H    0.017474
   126  H    0.015763
   127  H    0.013847
   128  H    0.021529
   129  H    0.028915
   130  H    0.033763
   131  H    0.021266
   132  H    0.019310
   133  H    0.010067
   134  H    0.015590
   135  H    0.020772
   136  H    0.016001
   137  H    0.024221
   138  H    0.019424
   139  H    0.015613
   140  H    0.021166
 Sum of Mulliken charges =  -0.00000

 Dipole moment (field-independent basis, Debye):
    X=              0.6900    Y=              2.9977    Z=              6.4584  Tot=              7.1535
 N-N= 4.440725624597D+03 E-N= 0.000000000000D+00  KE=-9.555094767034D+03
 Leave Link  601 at Wed May  4 20:15:47 2022, MaxMem=  6710886400 cpu:               1.7 elap:               0.1
 (Enter /sw/apps/gaussian-16.0/g16/l9999.exe)
 1\1\GINC-BP1-COMPUTE179\SP\RZINDO CIS\STO-3G\C55H74Mg1N4O6\OF15641\04-
 May-2022\0\\#p ZINDO=(nstates=5)\\step_401_chromophore_17 ZINDO\\0,1\M
 g,0,29.318,58.733,40.737\C,0,26.128,57.518,39.747\C,0,30.777,56.006,39
 .289\C,0,32.303,60.423,40.787\C,0,27.577,61.835,41.325\N,0,28.53,56.96
 9,39.701\C,0,27.199,56.685,39.419\C,0,27.146,55.487,38.381\C,0,28.539,
 54.826,38.589\C,0,29.39,56.034,39.125\C,0,28.644,53.604,39.515\C,0,26.
 786,55.917,36.896\C,0,25.498,55.271,36.282\C,0,25.662,54.633,34.848\O,

 Normal termination of Gaussian 16 at Wed May  4 20:15:47 2022.
