 Gaussian 16, Revision A.03,
 Gaussian 16:  ES64L-G16RevA.03 25-Dec-2016

 ------------------------------
 #p blyp/Def2SVP td=(nstates=5)
 ------------------------------

 --------------------------------------------------
 step_1851_chromophore_8 TDDFT with blyp functional
 --------------------------------------------------
 Symbolic Z-matrix:
 Charge =  0 Multiplicity = 1

                         Standard orientation:
 ---------------------------------------------------------------------
 Center     Atomic      Atomic             Coordinates (Angstroms)
 Number     Number       Type             X           Y           Z
 ---------------------------------------------------------------------
      1         12           0        4.910558    0.865648    0.184760
      2          6           0        4.007390   -2.501542    0.414592
      3          6           0        4.460895    0.563610   -3.344483
      4          6           0        4.946052    4.236863   -0.215389
      5          6           0        4.516181    1.220878    3.517266
      6          7           0        4.404433   -0.780675   -1.241095
      7          6           0        4.139472   -2.122326   -0.912273
      8          6           0        4.041402   -3.026835   -2.124481
      9          6           0        4.464673   -2.044192   -3.255185
     10          6           0        4.451341   -0.675411   -2.626528
     11          6           0        5.846697   -2.354515   -3.946217
     12          6           0        2.596421   -3.712638   -2.381683
     13          6           0        1.330774   -3.036121   -1.735460
     14          6           0        0.231000   -3.881161   -0.937308
     15          8           0        0.392347   -5.024076   -0.534292
     16          8           0       -0.906445   -3.141667   -0.682629
     17          7           0        4.802660    2.166536   -1.489040
     18          6           0        4.558493    1.857623   -2.805097
     19          6           0        4.577160    3.071725   -3.610704
     20          6           0        4.786974    4.136005   -2.731218
     21          6           0        4.851360    3.513722   -1.391213
     22          6           0        4.370486    3.122271   -5.109924
     23          6           0        4.893628    5.664194   -3.202150
     24          8           0        4.768325    5.995144   -4.342188
     25          6           0        5.230912    6.746385   -2.255438
     26          7           0        4.735750    2.544423    1.518228
     27          6           0        4.873202    3.843436    1.124539
     28          6           0        5.045860    4.755266    2.314631
     29          6           0        4.616454    3.753519    3.442107
     30          6           0        4.554165    2.424706    2.825940
     31          6           0        6.352704    5.540550    2.355170
     32          6           0        3.244421    4.033915    4.186267
     33          6           0        3.436247    5.102257    5.260590
     34          7           0        4.527808   -0.378349    1.725242
     35          6           0        4.382145   -0.135112    3.064806
     36          6           0        4.069309   -1.267581    3.802835
     37          6           0        3.958360   -2.276718    2.809033
     38          6           0        4.268399   -1.688210    1.540153
     39          6           0        4.056158   -1.322952    5.313699
     40          6           0        3.714562   -3.609638    2.511385
     41          8           0        3.505384   -4.466110    3.379726
     42          6           0        3.817976   -3.906501    1.023260
     43          6           0        4.932689   -4.825110    0.666089
     44          8           0        6.090400   -4.531694    0.687539
     45          8           0        4.398887   -5.964547    0.095298
     46          6           0        5.316264   -6.897234   -0.468448
     47          6           0       -1.843044   -3.749733    0.325615
     48          6           0       -3.227776   -3.075194    0.433939
     49          6           0       -4.326118   -3.573827   -0.168156
     50          6           0       -4.463441   -4.865450   -0.986127
     51          6           0       -5.615667   -2.775268   -0.072882
     52          6           0       -5.814168   -1.547565   -1.081386
     53          6           0       -6.129737   -0.243304   -0.206824
     54          6           0       -6.254699    1.027702   -1.099847
     55          6           0       -4.915375    1.598260   -1.535337
     56          6           0       -7.211312    2.043007   -0.415139
     57          6           0       -8.623384    1.871253   -0.958743
     58          6           0       -9.510328    1.468060    0.192216
     59          6           0      -10.861939    2.116897    0.213109
     60          6           0      -10.698619    3.656246    0.550748
     61          6           0      -11.750831    1.487821    1.258766
     62          6           0      -12.136105    0.046905    0.860387
     63          6           0      -13.633157   -0.228823    1.017625
     64          6           0      -14.395050    0.583829   -0.031176
     65          6           0      -14.949410   -0.275274   -1.162991
     66          6           0      -15.580799    1.427580    0.678284
     67          1           0        4.425350    0.529146   -4.435476
     68          1           0        5.086709    5.318508   -0.270389
     69          1           0        4.372706    1.428904    4.579865
     70          1           0        4.818997   -3.788351   -2.072358
     71          1           0        3.666293   -2.038128   -3.996315
     72          1           0        6.258179   -3.335828   -3.712577
     73          1           0        6.593304   -1.595934   -3.712116
     74          1           0        5.710416   -2.169189   -5.011781
     75          1           0        2.649298   -4.739625   -2.019984
     76          1           0        2.557735   -3.848114   -3.462447
     77          1           0        0.663150   -2.648908   -2.505571
     78          1           0        1.561713   -2.333317   -0.934987
     79          1           0        4.253269    2.177732   -5.640942
     80          1           0        5.140102    3.698890   -5.623570
     81          1           0        3.428066    3.650040   -5.258262
     82          1           0        6.103656    6.601165   -1.619890
     83          1           0        4.414778    6.881074   -1.546079
     84          1           0        5.481554    7.717293   -2.682967
     85          1           0        4.194761    5.417722    2.158169
     86          1           0        5.406775    3.688857    4.190331
     87          1           0        7.004923    4.903519    2.953293
     88          1           0        6.252729    6.543390    2.771982
     89          1           0        6.855865    5.514011    1.388812
     90          1           0        2.990211    3.053575    4.587790
     91          1           0        2.428052    4.354913    3.538678
     92          1           0        3.306853    4.734895    6.278200
     93          1           0        2.761737    5.904890    4.961227
     94          1           0        4.441238    5.505046    5.132774
     95          1           0        3.601878   -2.213932    5.747482
     96          1           0        3.548493   -0.477440    5.776485
     97          1           0        5.051643   -1.226549    5.748484
     98          1           0        2.853212   -4.406268    0.934747
     99          1           0        4.824006   -7.695799   -1.022145
    100          1           0        5.691795   -7.469417    0.380179
    101          1           0        6.053457   -6.440012   -1.128105
    102          1           0       -1.333301   -3.396251    1.221305
    103          1           0       -1.962614   -4.833053    0.287542
    104          1           0       -3.315792   -2.189849    1.063112
    105          1           0       -5.376064   -4.943132   -1.577693
    106          1           0       -4.298254   -5.620877   -0.218410
    107          1           0       -3.578040   -4.805162   -1.618858
    108          1           0       -5.651180   -2.452547    0.967298
    109          1           0       -6.411707   -3.512004   -0.185229
    110          1           0       -6.557936   -1.651059   -1.872099
    111          1           0       -4.863693   -1.229545   -1.511400
    112          1           0       -5.245529   -0.015582    0.388131
    113          1           0       -6.962172   -0.378153    0.484944
    114          1           0       -6.593378    0.874648   -2.125464
    115          1           0       -4.512717    2.397078   -0.912605
    116          1           0       -5.038898    2.132654   -2.477200
    117          1           0       -4.088822    0.895867   -1.641806
    118          1           0       -6.814210    3.023517   -0.677440
    119          1           0       -7.031785    1.913424    0.652537
    120          1           0       -8.721853    1.358138   -1.915829
    121          1           0       -8.828661    2.914800   -1.195102
    122          1           0       -9.031926    1.524029    1.170621
    123          1           0       -9.654080    0.405920   -0.003995
    124          1           0      -11.254201    1.919035   -0.784099
    125          1           0      -11.236110    3.917135    1.461811
    126          1           0      -11.188976    4.168184   -0.277962
    127          1           0       -9.643274    3.877820    0.713623
    128          1           0      -12.618172    2.136796    1.384976
    129          1           0      -11.223417    1.418201    2.209783
    130          1           0      -11.627698   -0.605558    1.569127
    131          1           0      -11.800586   -0.198696   -0.147100
    132          1           0      -13.912272   -0.034053    2.052730
    133          1           0      -13.773871   -1.308609    0.972173
    134          1           0      -13.785277    1.395445   -0.429205
    135          1           0      -15.947691    0.128025   -1.331619
    136          1           0      -14.994918   -1.335525   -0.910699
    137          1           0      -14.345058   -0.114744   -2.055424
    138          1           0      -15.170013    2.109470    1.424330
    139          1           0      -16.310388    0.808480    1.200001
    140          1           0      -15.956418    2.143742   -0.052897
 ---------------------------------------------------------------------

 SCF Done:  E(RB-LYP) =  -3007.36009681     A.U. after   21 cycles

 Excitation energies and oscillator strengths:

 Excited State   1:      Singlet-A      1.5674 eV  791.02 nm  f=0.0053  <S**2>=0.000
     244 -> 247       -0.12577
     245 -> 247        0.68070
     246 -> 247       -0.14132
 This state for optimization and/or second-order correction.
 Total Energy, E(TD-HF/TD-DFT) =  -3007.30249587
 Copying the excited state density for this state as the 1-particle RhoCI density.

 Excited State   2:      Singlet-A      1.8474 eV  671.13 nm  f=0.2832  <S**2>=0.000
     244 -> 248        0.19574
     245 -> 247        0.13994
     246 -> 247        0.67324
     246 <- 247       -0.14094

 Excited State   3:      Singlet-A      2.1005 eV  590.27 nm  f=0.0821  <S**2>=0.000
     244 -> 247        0.62922
     245 -> 247        0.11129
     246 -> 248       -0.27217

 Excited State   4:      Singlet-A      2.2069 eV  561.80 nm  f=0.0016  <S**2>=0.000
     243 -> 247        0.70266

 Excited State   5:      Singlet-A      2.3921 eV  518.32 nm  f=0.0003  <S**2>=0.000
     241 -> 247        0.70706

 The electronic state is 1-A.
 Alpha  occ. eigenvalues --  -46.26934 -18.81510 -18.81439 -18.76645 -18.76356
 Alpha  occ. eigenvalues --  -18.76163 -18.73476 -14.03295 -14.02447 -14.01229
 Alpha  occ. eigenvalues --  -14.00404 -10.03697 -10.03498 -10.00742  -9.97475
 Alpha  occ. eigenvalues --   -9.97365  -9.97132  -9.96770  -9.96280  -9.96278
 Alpha  occ. eigenvalues --   -9.95990  -9.95546  -9.95414  -9.94856  -9.94323
 Alpha  occ. eigenvalues --   -9.94201  -9.94010  -9.93998  -9.93874  -9.93625
 Alpha  occ. eigenvalues --   -9.93610  -9.93518  -9.93455  -9.93377  -9.93268
 Alpha  occ. eigenvalues --   -9.93101  -9.92963  -9.92925  -9.92914  -9.92775
 Alpha  occ. eigenvalues --   -9.92711  -9.92618  -9.92480  -9.92316  -9.92270
 Alpha  occ. eigenvalues --   -9.92182  -9.92070  -9.91998  -9.91994  -9.91962
 Alpha  occ. eigenvalues --   -9.91961  -9.91655  -9.91577  -9.91229  -9.91157
 Alpha  occ. eigenvalues --   -9.90883  -9.90780  -9.90735  -9.90683  -9.90668
 Alpha  occ. eigenvalues --   -9.90596  -9.90567  -9.90468  -9.90402  -9.90199
 Alpha  occ. eigenvalues --   -9.90141  -2.91598  -1.72015  -1.71466  -1.71324
 Alpha  occ. eigenvalues --   -0.98073  -0.96387  -0.93836  -0.90885  -0.89191
 Alpha  occ. eigenvalues --   -0.88664  -0.87223  -0.85963  -0.85779  -0.84376
 Alpha  occ. eigenvalues --   -0.75338  -0.74020  -0.73132  -0.72595  -0.72441
 Alpha  occ. eigenvalues --   -0.72215  -0.71552  -0.70859  -0.70718  -0.69879
 Alpha  occ. eigenvalues --   -0.69478  -0.68561  -0.67865  -0.67645  -0.67174
 Alpha  occ. eigenvalues --   -0.66332  -0.66043  -0.65354  -0.64957  -0.64526
 Alpha  occ. eigenvalues --   -0.63987  -0.62564  -0.62280  -0.61604  -0.60820
 Alpha  occ. eigenvalues --   -0.60433  -0.60219  -0.59791  -0.59593  -0.58978
 Alpha  occ. eigenvalues --   -0.58284  -0.57764  -0.57078  -0.55698  -0.54731
 Alpha  occ. eigenvalues --   -0.53940  -0.53810  -0.52515  -0.52336  -0.51883
 Alpha  occ. eigenvalues --   -0.51259  -0.50885  -0.50553  -0.50304  -0.49718
 Alpha  occ. eigenvalues --   -0.48937  -0.48803  -0.48646  -0.48010  -0.46532
 Alpha  occ. eigenvalues --   -0.45909  -0.45659  -0.45372  -0.44967  -0.44616
 Alpha  occ. eigenvalues --   -0.44084  -0.43580  -0.42759  -0.42501  -0.42341
 Alpha  occ. eigenvalues --   -0.42094  -0.42046  -0.41976  -0.41278  -0.41088
 Alpha  occ. eigenvalues --   -0.40801  -0.40531  -0.40461  -0.39983  -0.39771
 Alpha  occ. eigenvalues --   -0.39730  -0.39665  -0.39361  -0.39176  -0.38759
 Alpha  occ. eigenvalues --   -0.38711  -0.38571  -0.38515  -0.38284  -0.38067
 Alpha  occ. eigenvalues --   -0.37988  -0.37802  -0.37694  -0.37438  -0.37171
 Alpha  occ. eigenvalues --   -0.36927  -0.36832  -0.36713  -0.36306  -0.36264
 Alpha  occ. eigenvalues --   -0.36126  -0.35882  -0.35774  -0.35667  -0.35241
 Alpha  occ. eigenvalues --   -0.35060  -0.34868  -0.34795  -0.34725  -0.34567
 Alpha  occ. eigenvalues --   -0.34518  -0.34415  -0.34060  -0.33835  -0.33762
 Alpha  occ. eigenvalues --   -0.33634  -0.33591  -0.33370  -0.33155  -0.32975
 Alpha  occ. eigenvalues --   -0.32892  -0.32756  -0.32540  -0.32303  -0.32255
 Alpha  occ. eigenvalues --   -0.32162  -0.31820  -0.31693  -0.31622  -0.31332
 Alpha  occ. eigenvalues --   -0.31301  -0.31130  -0.30989  -0.30909  -0.30773
 Alpha  occ. eigenvalues --   -0.30674  -0.30369  -0.30156  -0.30054  -0.29869
 Alpha  occ. eigenvalues --   -0.29668  -0.29397  -0.29362  -0.29141  -0.29019
 Alpha  occ. eigenvalues --   -0.28698  -0.28634  -0.28265  -0.28081  -0.27867
 Alpha  occ. eigenvalues --   -0.27836  -0.27799  -0.26945  -0.26465  -0.26349
 Alpha  occ. eigenvalues --   -0.26228  -0.25834  -0.25824  -0.25072  -0.24767
 Alpha  occ. eigenvalues --   -0.24351  -0.24069  -0.23855  -0.23555  -0.23512
 Alpha  occ. eigenvalues --   -0.23110  -0.22250  -0.21761  -0.21357  -0.20773
 Alpha  occ. eigenvalues --   -0.20085  -0.20068  -0.19331  -0.17263  -0.16943
 Alpha  occ. eigenvalues --   -0.15735
 Alpha virt. eigenvalues --   -0.11296  -0.06706  -0.05559  -0.03990  -0.03196
 Alpha virt. eigenvalues --   -0.02914  -0.02209  -0.01412  -0.01087   0.00430
 Alpha virt. eigenvalues --    0.01617   0.01661   0.02181   0.02914   0.02982

 Mulliken charges:
               1
     1  Mg   0.711396
     2  C   -0.004522
     3  C   -0.076870
     4  C   -0.061174
     5  C   -0.078069
     6  N   -0.237781
     7  C   -0.093718
     8  C    0.054656
     9  C    0.012046
    10  C    0.022484
    11  C    0.129176
    12  C    0.127573
    13  C    0.099414
    14  C    0.068853
    15  O   -0.193424
    16  O   -0.294458
    17  N   -0.251152
    18  C    0.128040
    19  C   -0.145732
    20  C   -0.003956
    21  C    0.170066
    22  C    0.189034
    23  C   -0.043184
    24  O   -0.126045
    25  C    0.130894
    26  N   -0.206716
    27  C   -0.108309
    28  C    0.097249
    29  C   -0.004682
    30  C    0.008010
    31  C    0.173607
    32  C    0.072895
    33  C    0.095590
    34  N   -0.284045
    35  C    0.127494
    36  C   -0.142125
    37  C    0.153547
    38  C    0.061275
    39  C    0.170471
    40  C   -0.172169
    41  O   -0.163191
    42  C    0.149296
    43  C    0.109575
    44  O   -0.150639
    45  O   -0.261559
    46  C    0.225345
    47  C    0.309999
    48  C   -0.105668
    49  C   -0.189544
    50  C    0.151415
    51  C    0.149729
    52  C    0.093594
    53  C    0.048317
    54  C   -0.079638
    55  C    0.084476
    56  C    0.105734
    57  C    0.138699
    58  C    0.066581
    59  C   -0.100496
    60  C    0.128211
    61  C    0.128476
    62  C    0.048098
    63  C    0.139439
    64  C   -0.109721
    65  C    0.146908
    66  C    0.063341
    67  H   -0.068786
    68  H   -0.108026
    69  H   -0.070814
    70  H   -0.021596
    71  H   -0.030136
    72  H    0.005203
    73  H   -0.007423
    74  H   -0.008971
    75  H   -0.009040
    76  H   -0.023238
    77  H    0.003174
    78  H    0.036064
    79  H   -0.026317
    80  H    0.008898
    81  H    0.004518
    82  H    0.005776
    83  H    0.013612
    84  H   -0.014206
    85  H   -0.039902
    86  H   -0.031007
    87  H   -0.020486
    88  H    0.009762
    89  H   -0.008503
    90  H   -0.025616
    91  H   -0.019916
    92  H    0.005942
    93  H   -0.012779
    94  H   -0.016228
    95  H    0.004742
    96  H   -0.021864
    97  H   -0.004387
    98  H    0.000365
    99  H    0.002475
   100  H    0.006522
   101  H    0.013129
   102  H   -0.016929
   103  H    0.013672
   104  H   -0.032097
   105  H    0.003833
   106  H    0.022130
   107  H    0.015683
   108  H   -0.022450
   109  H   -0.042343
   110  H   -0.014704
   111  H   -0.020841
   112  H   -0.025729
   113  H   -0.016647
   114  H   -0.043342
   115  H   -0.035262
   116  H   -0.026629
   117  H   -0.013851
   118  H   -0.055058
   119  H   -0.030702
   120  H   -0.023458
   121  H   -0.049947
   122  H   -0.038816
   123  H   -0.039637
   124  H   -0.041968
   125  H   -0.024148
   126  H   -0.009890
   127  H   -0.008161
   128  H   -0.025296
   129  H   -0.043669
   130  H   -0.043802
   131  H   -0.023312
   132  H   -0.044770
   133  H   -0.048260
   134  H   -0.023965
   135  H   -0.024624
   136  H   -0.012283
   137  H   -0.018437
   138  H   -0.025492
   139  H   -0.003508
   140  H   -0.018649
 Sum of Mulliken charges =  -0.00000

 Dipole moment (field-independent basis, Debye):
    X=             -1.0641    Y=              3.6142    Z=             -1.0437  Tot=              3.9095
 Quadrupole moment (field-independent basis, Debye-Ang):
   XX=           -388.4063   YY=           -412.4463   ZZ=           -404.3212
   XY=             19.6782   XZ=             -1.0502   YZ=             48.2599

 Normal termination of Gaussian 16 at Wed May  4 15:45:57 2022.
