 Gaussian 16, Revision A.03,
 Gaussian 16:  ES64L-G16RevA.03 25-Dec-2016

 -----------------------------------
 #p cam-b3lyp/Def2SVP td=(nstates=5)
 -----------------------------------

 -------------------------------------------------------
 step_1851_chromophore_8 TDDFT with cam-b3lyp functional
 -------------------------------------------------------
 Symbolic Z-matrix:
 Charge =  0 Multiplicity = 1

                         Standard orientation:
 ---------------------------------------------------------------------
 Center     Atomic      Atomic             Coordinates (Angstroms)
 Number     Number       Type             X           Y           Z
 ---------------------------------------------------------------------
      1         12           0        4.910558    0.865648    0.184760
      2          6           0        4.007390   -2.501542    0.414592
      3          6           0        4.460895    0.563610   -3.344483
      4          6           0        4.946052    4.236863   -0.215389
      5          6           0        4.516181    1.220878    3.517266
      6          7           0        4.404433   -0.780675   -1.241095
      7          6           0        4.139472   -2.122326   -0.912273
      8          6           0        4.041402   -3.026835   -2.124481
      9          6           0        4.464673   -2.044192   -3.255185
     10          6           0        4.451341   -0.675411   -2.626528
     11          6           0        5.846697   -2.354515   -3.946217
     12          6           0        2.596421   -3.712638   -2.381683
     13          6           0        1.330774   -3.036121   -1.735460
     14          6           0        0.231000   -3.881161   -0.937308
     15          8           0        0.392347   -5.024076   -0.534292
     16          8           0       -0.906445   -3.141667   -0.682629
     17          7           0        4.802660    2.166536   -1.489040
     18          6           0        4.558493    1.857623   -2.805097
     19          6           0        4.577160    3.071725   -3.610704
     20          6           0        4.786974    4.136005   -2.731218
     21          6           0        4.851360    3.513722   -1.391213
     22          6           0        4.370486    3.122271   -5.109924
     23          6           0        4.893628    5.664194   -3.202150
     24          8           0        4.768325    5.995144   -4.342188
     25          6           0        5.230912    6.746385   -2.255438
     26          7           0        4.735750    2.544423    1.518228
     27          6           0        4.873202    3.843436    1.124539
     28          6           0        5.045860    4.755266    2.314631
     29          6           0        4.616454    3.753519    3.442107
     30          6           0        4.554165    2.424706    2.825940
     31          6           0        6.352704    5.540550    2.355170
     32          6           0        3.244421    4.033915    4.186267
     33          6           0        3.436247    5.102257    5.260590
     34          7           0        4.527808   -0.378349    1.725242
     35          6           0        4.382145   -0.135112    3.064806
     36          6           0        4.069309   -1.267581    3.802835
     37          6           0        3.958360   -2.276718    2.809033
     38          6           0        4.268399   -1.688210    1.540153
     39          6           0        4.056158   -1.322952    5.313699
     40          6           0        3.714562   -3.609638    2.511385
     41          8           0        3.505384   -4.466110    3.379726
     42          6           0        3.817976   -3.906501    1.023260
     43          6           0        4.932689   -4.825110    0.666089
     44          8           0        6.090400   -4.531694    0.687539
     45          8           0        4.398887   -5.964547    0.095298
     46          6           0        5.316264   -6.897234   -0.468448
     47          6           0       -1.843044   -3.749733    0.325615
     48          6           0       -3.227776   -3.075194    0.433939
     49          6           0       -4.326118   -3.573827   -0.168156
     50          6           0       -4.463441   -4.865450   -0.986127
     51          6           0       -5.615667   -2.775268   -0.072882
     52          6           0       -5.814168   -1.547565   -1.081386
     53          6           0       -6.129737   -0.243304   -0.206824
     54          6           0       -6.254699    1.027702   -1.099847
     55          6           0       -4.915375    1.598260   -1.535337
     56          6           0       -7.211312    2.043007   -0.415139
     57          6           0       -8.623384    1.871253   -0.958743
     58          6           0       -9.510328    1.468060    0.192216
     59          6           0      -10.861939    2.116897    0.213109
     60          6           0      -10.698619    3.656246    0.550748
     61          6           0      -11.750831    1.487821    1.258766
     62          6           0      -12.136105    0.046905    0.860387
     63          6           0      -13.633157   -0.228823    1.017625
     64          6           0      -14.395050    0.583829   -0.031176
     65          6           0      -14.949410   -0.275274   -1.162991
     66          6           0      -15.580799    1.427580    0.678284
     67          1           0        4.425350    0.529146   -4.435476
     68          1           0        5.086709    5.318508   -0.270389
     69          1           0        4.372706    1.428904    4.579865
     70          1           0        4.818997   -3.788351   -2.072358
     71          1           0        3.666293   -2.038128   -3.996315
     72          1           0        6.258179   -3.335828   -3.712577
     73          1           0        6.593304   -1.595934   -3.712116
     74          1           0        5.710416   -2.169189   -5.011781
     75          1           0        2.649298   -4.739625   -2.019984
     76          1           0        2.557735   -3.848114   -3.462447
     77          1           0        0.663150   -2.648908   -2.505571
     78          1           0        1.561713   -2.333317   -0.934987
     79          1           0        4.253269    2.177732   -5.640942
     80          1           0        5.140102    3.698890   -5.623570
     81          1           0        3.428066    3.650040   -5.258262
     82          1           0        6.103656    6.601165   -1.619890
     83          1           0        4.414778    6.881074   -1.546079
     84          1           0        5.481554    7.717293   -2.682967
     85          1           0        4.194761    5.417722    2.158169
     86          1           0        5.406775    3.688857    4.190331
     87          1           0        7.004923    4.903519    2.953293
     88          1           0        6.252729    6.543390    2.771982
     89          1           0        6.855865    5.514011    1.388812
     90          1           0        2.990211    3.053575    4.587790
     91          1           0        2.428052    4.354913    3.538678
     92          1           0        3.306853    4.734895    6.278200
     93          1           0        2.761737    5.904890    4.961227
     94          1           0        4.441238    5.505046    5.132774
     95          1           0        3.601878   -2.213932    5.747482
     96          1           0        3.548493   -0.477440    5.776485
     97          1           0        5.051643   -1.226549    5.748484
     98          1           0        2.853212   -4.406268    0.934747
     99          1           0        4.824006   -7.695799   -1.022145
    100          1           0        5.691795   -7.469417    0.380179
    101          1           0        6.053457   -6.440012   -1.128105
    102          1           0       -1.333301   -3.396251    1.221305
    103          1           0       -1.962614   -4.833053    0.287542
    104          1           0       -3.315792   -2.189849    1.063112
    105          1           0       -5.376064   -4.943132   -1.577693
    106          1           0       -4.298254   -5.620877   -0.218410
    107          1           0       -3.578040   -4.805162   -1.618858
    108          1           0       -5.651180   -2.452547    0.967298
    109          1           0       -6.411707   -3.512004   -0.185229
    110          1           0       -6.557936   -1.651059   -1.872099
    111          1           0       -4.863693   -1.229545   -1.511400
    112          1           0       -5.245529   -0.015582    0.388131
    113          1           0       -6.962172   -0.378153    0.484944
    114          1           0       -6.593378    0.874648   -2.125464
    115          1           0       -4.512717    2.397078   -0.912605
    116          1           0       -5.038898    2.132654   -2.477200
    117          1           0       -4.088822    0.895867   -1.641806
    118          1           0       -6.814210    3.023517   -0.677440
    119          1           0       -7.031785    1.913424    0.652537
    120          1           0       -8.721853    1.358138   -1.915829
    121          1           0       -8.828661    2.914800   -1.195102
    122          1           0       -9.031926    1.524029    1.170621
    123          1           0       -9.654080    0.405920   -0.003995
    124          1           0      -11.254201    1.919035   -0.784099
    125          1           0      -11.236110    3.917135    1.461811
    126          1           0      -11.188976    4.168184   -0.277962
    127          1           0       -9.643274    3.877820    0.713623
    128          1           0      -12.618172    2.136796    1.384976
    129          1           0      -11.223417    1.418201    2.209783
    130          1           0      -11.627698   -0.605558    1.569127
    131          1           0      -11.800586   -0.198696   -0.147100
    132          1           0      -13.912272   -0.034053    2.052730
    133          1           0      -13.773871   -1.308609    0.972173
    134          1           0      -13.785277    1.395445   -0.429205
    135          1           0      -15.947691    0.128025   -1.331619
    136          1           0      -14.994918   -1.335525   -0.910699
    137          1           0      -14.345058   -0.114744   -2.055424
    138          1           0      -15.170013    2.109470    1.424330
    139          1           0      -16.310388    0.808480    1.200001
    140          1           0      -15.956418    2.143742   -0.052897
 ---------------------------------------------------------------------

 SCF Done:  E(RCAM-B3LYP) =  -3007.16209107     A.U. after   18 cycles

 Excitation energies and oscillator strengths:

 Excited State   1:      Singlet-A      1.7839 eV  695.02 nm  f=0.3606  <S**2>=0.000
     245 -> 248       -0.17678
     246 -> 247        0.68637
     245 <- 248       -0.10464
 This state for optimization and/or second-order correction.
 Total Energy, E(TD-HF/TD-DFT) =  -3007.09653377
 Copying the excited state density for this state as the 1-particle RhoCI density.

 Excited State   2:      Singlet-A      2.3051 eV  537.88 nm  f=0.1071  <S**2>=0.000
     245 -> 247        0.63210
     246 -> 248        0.30327

 Excited State   3:      Singlet-A      3.2600 eV  380.32 nm  f=0.0001  <S**2>=0.000
     243 -> 247        0.26179
     243 -> 249       -0.14362
     243 -> 251        0.13778
     244 -> 247        0.54063
     244 -> 249       -0.21199
     244 -> 251        0.18182

 Excited State   4:      Singlet-A      3.4810 eV  356.18 nm  f=0.0027  <S**2>=0.000
     241 -> 247       -0.24395
     243 -> 247        0.55994
     244 -> 247       -0.30550
     246 -> 248       -0.12020

 Excited State   5:      Singlet-A      3.5786 eV  346.46 nm  f=0.2683  <S**2>=0.000
     240 -> 247        0.21733
     241 -> 247        0.46250
     245 -> 247        0.16530
     246 -> 248       -0.43922

 The electronic state is 1-A.
 Alpha  occ. eigenvalues --  -46.88558 -19.24284 -19.24209 -19.19954 -19.19653
 Alpha  occ. eigenvalues --  -19.19007 -19.16105 -14.42373 -14.41286 -14.40041
 Alpha  occ. eigenvalues --  -14.38577 -10.38956 -10.38797 -10.36284 -10.32159
 Alpha  occ. eigenvalues --  -10.31812 -10.31566 -10.31201 -10.31070 -10.30943
 Alpha  occ. eigenvalues --  -10.30572 -10.30560 -10.29438 -10.28694 -10.28502
 Alpha  occ. eigenvalues --  -10.28407 -10.28252 -10.28036 -10.28008 -10.27894
 Alpha  occ. eigenvalues --  -10.27738 -10.27650 -10.27574 -10.27542 -10.27451
 Alpha  occ. eigenvalues --  -10.27389 -10.27204 -10.27044 -10.26756 -10.26671
 Alpha  occ. eigenvalues --  -10.26581 -10.26578 -10.26421 -10.26195 -10.26188
 Alpha  occ. eigenvalues --  -10.26157 -10.26144 -10.25744 -10.25711 -10.25525
 Alpha  occ. eigenvalues --  -10.25486 -10.25324 -10.25244 -10.24896 -10.24804
 Alpha  occ. eigenvalues --  -10.24510 -10.24356 -10.24351 -10.24262 -10.24207
 Alpha  occ. eigenvalues --  -10.24197 -10.24167 -10.24081 -10.23966 -10.23774
 Alpha  occ. eigenvalues --  -10.23686  -3.17122  -1.92014  -1.91557  -1.91442
 Alpha  occ. eigenvalues --   -1.16539  -1.14716  -1.12692  -1.08745  -1.07100
 Alpha  occ. eigenvalues --   -1.06373  -1.05050  -1.03847  -1.03304  -1.02048
 Alpha  occ. eigenvalues --   -0.92285  -0.90881  -0.89914  -0.89455  -0.89155
 Alpha  occ. eigenvalues --   -0.88905  -0.88285  -0.87491  -0.87410  -0.86746
 Alpha  occ. eigenvalues --   -0.85905  -0.84953  -0.84056  -0.83734  -0.83390
 Alpha  occ. eigenvalues --   -0.82636  -0.82115  -0.81270  -0.80803  -0.80355
 Alpha  occ. eigenvalues --   -0.79680  -0.78065  -0.77841  -0.77551  -0.76148
 Alpha  occ. eigenvalues --   -0.75742  -0.75559  -0.75093  -0.74862  -0.74195
 Alpha  occ. eigenvalues --   -0.73322  -0.72759  -0.72093  -0.70522  -0.69356
 Alpha  occ. eigenvalues --   -0.68457  -0.68266  -0.67204  -0.66735  -0.65981
 Alpha  occ. eigenvalues --   -0.65456  -0.65093  -0.64671  -0.64335  -0.63702
 Alpha  occ. eigenvalues --   -0.62822  -0.62494  -0.62442  -0.61551  -0.60438
 Alpha  occ. eigenvalues --   -0.59547  -0.59356  -0.58732  -0.58439  -0.58064
 Alpha  occ. eigenvalues --   -0.57413  -0.57001  -0.55982  -0.55748  -0.55348
 Alpha  occ. eigenvalues --   -0.55158  -0.54976  -0.54781  -0.54342  -0.54009
 Alpha  occ. eigenvalues --   -0.53536  -0.53236  -0.53092  -0.52815  -0.52802
 Alpha  occ. eigenvalues --   -0.52623  -0.52261  -0.52183  -0.51964  -0.51374
 Alpha  occ. eigenvalues --   -0.51170  -0.51030  -0.50980  -0.50893  -0.50733
 Alpha  occ. eigenvalues --   -0.50627  -0.50226  -0.50028  -0.49995  -0.49826
 Alpha  occ. eigenvalues --   -0.49351  -0.49163  -0.48967  -0.48589  -0.48340
 Alpha  occ. eigenvalues --   -0.48192  -0.48119  -0.47870  -0.47646  -0.47418
 Alpha  occ. eigenvalues --   -0.47388  -0.47092  -0.46804  -0.46680  -0.46448
 Alpha  occ. eigenvalues --   -0.46351  -0.46153  -0.45859  -0.45813  -0.45554
 Alpha  occ. eigenvalues --   -0.45466  -0.45331  -0.45063  -0.44822  -0.44736
 Alpha  occ. eigenvalues --   -0.44696  -0.44280  -0.44236  -0.43962  -0.43758
 Alpha  occ. eigenvalues --   -0.43642  -0.43434  -0.43314  -0.43047  -0.43029
 Alpha  occ. eigenvalues --   -0.42762  -0.42657  -0.42540  -0.42380  -0.42312
 Alpha  occ. eigenvalues --   -0.42090  -0.41677  -0.41467  -0.41327  -0.41070
 Alpha  occ. eigenvalues --   -0.41014  -0.40668  -0.40484  -0.40420  -0.40357
 Alpha  occ. eigenvalues --   -0.40023  -0.39971  -0.39206  -0.39098  -0.38956
 Alpha  occ. eigenvalues --   -0.38687  -0.38651  -0.37836  -0.37762  -0.37188
 Alpha  occ. eigenvalues --   -0.37063  -0.36875  -0.36510  -0.36180  -0.35696
 Alpha  occ. eigenvalues --   -0.35438  -0.34733  -0.34636  -0.34265  -0.34223
 Alpha  occ. eigenvalues --   -0.33411  -0.32916  -0.32805  -0.31897  -0.31387
 Alpha  occ. eigenvalues --   -0.30578  -0.29976  -0.29128  -0.28684  -0.24112
 Alpha  occ. eigenvalues --   -0.21170
 Alpha virt. eigenvalues --   -0.08371  -0.01630   0.00982   0.02105   0.03095
 Alpha virt. eigenvalues --    0.04310   0.05546   0.05756   0.06803   0.07192
 Alpha virt. eigenvalues --    0.07971   0.08654   0.08678   0.09156   0.09287

 Mulliken charges:
               1
     1  Mg   0.843313
     2  C   -0.031638
     3  C   -0.090273
     4  C   -0.092932
     5  C   -0.079583
     6  N   -0.303302
     7  C   -0.065305
     8  C    0.014238
     9  C   -0.046416
    10  C    0.045699
    11  C    0.071084
    12  C    0.076250
    13  C    0.029984
    14  C    0.151089
    15  O   -0.235475
    16  O   -0.358996
    17  N   -0.340744
    18  C    0.142797
    19  C   -0.153931
    20  C   -0.066587
    21  C    0.205639
    22  C    0.132860
    23  C    0.038556
    24  O   -0.162928
    25  C    0.040666
    26  N   -0.281643
    27  C   -0.067500
    28  C    0.033643
    29  C   -0.068573
    30  C    0.025628
    31  C    0.109219
    32  C    0.023819
    33  C    0.032706
    34  N   -0.375699
    35  C    0.130200
    36  C   -0.142752
    37  C    0.076677
    38  C    0.098409
    39  C    0.120221
    40  C   -0.076488
    41  O   -0.207793
    42  C    0.070223
    43  C    0.199503
    44  O   -0.185774
    45  O   -0.325070
    46  C    0.181947
    47  C    0.274906
    48  C   -0.128764
    49  C   -0.200416
    50  C    0.084525
    51  C    0.085167
    52  C    0.043291
    53  C   -0.000848
    54  C   -0.131570
    55  C    0.026503
    56  C    0.047525
    57  C    0.077599
    58  C    0.014797
    59  C   -0.152545
    60  C    0.066267
    61  C    0.071739
    62  C   -0.006475
    63  C    0.083629
    64  C   -0.173906
    65  C    0.087410
    66  C    0.009687
    67  H   -0.031662
    68  H   -0.070462
    69  H   -0.038032
    70  H    0.011883
    71  H    0.005817
    72  H    0.030414
    73  H    0.019280
    74  H    0.015208
    75  H    0.025341
    76  H    0.006806
    77  H    0.034690
    78  H    0.065708
    79  H    0.002626
    80  H    0.038616
    81  H    0.033835
    82  H    0.033546
    83  H    0.040613
    84  H    0.023776
    85  H   -0.003424
    86  H    0.006012
    87  H    0.006386
    88  H    0.034764
    89  H    0.016798
    90  H    0.004634
    91  H    0.008182
    92  H    0.029846
    93  H    0.010585
    94  H    0.005006
    95  H    0.031926
    96  H    0.000459
    97  H    0.020523
    98  H    0.043578
    99  H    0.026044
   100  H    0.030049
   101  H    0.034361
   102  H    0.014049
   103  H    0.043214
   104  H    0.000418
   105  H    0.029326
   106  H    0.045587
   107  H    0.039232
   108  H    0.008102
   109  H   -0.011476
   110  H    0.012308
   111  H    0.005048
   112  H    0.000324
   113  H    0.008454
   114  H   -0.013053
   115  H   -0.010298
   116  H   -0.001948
   117  H    0.011425
   118  H   -0.022377
   119  H   -0.001856
   120  H    0.006338
   121  H   -0.018428
   122  H   -0.010101
   123  H   -0.010600
   124  H   -0.011928
   125  H    0.001924
   126  H    0.014022
   127  H    0.014126
   128  H    0.000178
   129  H   -0.012629
   130  H   -0.012860
   131  H    0.002483
   132  H   -0.014454
   133  H   -0.017115
   134  H    0.005454
   135  H    0.000681
   136  H    0.011383
   137  H    0.005675
   138  H   -0.002717
   139  H    0.019347
   140  H    0.005518
 Sum of Mulliken charges =  -0.00000

 Dipole moment (field-independent basis, Debye):
    X=             -0.6773    Y=              4.6241    Z=             -2.0695  Tot=              5.1112
 Quadrupole moment (field-independent basis, Debye-Ang):
   XX=           -387.5592   YY=           -408.6665   ZZ=           -402.2374
   XY=             24.4473   XZ=             -6.2492   YZ=             49.2891

 Normal termination of Gaussian 16 at Wed May  4 14:47:36 2022.
