 Gaussian 16, Revision A.03,
 Gaussian 16:  ES64L-G16RevA.03 25-Dec-2016

 ---------------------------------
 #p PBE1PBE/Def2SVP td=(nstates=5)
 ---------------------------------

 -----------------------------------------------------
 step_1851_chromophore_8 TDDFT with PBE1PBE functional
 -----------------------------------------------------
 Symbolic Z-matrix:
 Charge =  0 Multiplicity = 1

                         Standard orientation:
 ---------------------------------------------------------------------
 Center     Atomic      Atomic             Coordinates (Angstroms)
 Number     Number       Type             X           Y           Z
 ---------------------------------------------------------------------
      1         12           0        4.910558    0.865648    0.184760
      2          6           0        4.007390   -2.501542    0.414592
      3          6           0        4.460895    0.563610   -3.344483
      4          6           0        4.946052    4.236863   -0.215389
      5          6           0        4.516181    1.220878    3.517266
      6          7           0        4.404433   -0.780675   -1.241095
      7          6           0        4.139472   -2.122326   -0.912273
      8          6           0        4.041402   -3.026835   -2.124481
      9          6           0        4.464673   -2.044192   -3.255185
     10          6           0        4.451341   -0.675411   -2.626528
     11          6           0        5.846697   -2.354515   -3.946217
     12          6           0        2.596421   -3.712638   -2.381683
     13          6           0        1.330774   -3.036121   -1.735460
     14          6           0        0.231000   -3.881161   -0.937308
     15          8           0        0.392347   -5.024076   -0.534292
     16          8           0       -0.906445   -3.141667   -0.682629
     17          7           0        4.802660    2.166536   -1.489040
     18          6           0        4.558493    1.857623   -2.805097
     19          6           0        4.577160    3.071725   -3.610704
     20          6           0        4.786974    4.136005   -2.731218
     21          6           0        4.851360    3.513722   -1.391213
     22          6           0        4.370486    3.122271   -5.109924
     23          6           0        4.893628    5.664194   -3.202150
     24          8           0        4.768325    5.995144   -4.342188
     25          6           0        5.230912    6.746385   -2.255438
     26          7           0        4.735750    2.544423    1.518228
     27          6           0        4.873202    3.843436    1.124539
     28          6           0        5.045860    4.755266    2.314631
     29          6           0        4.616454    3.753519    3.442107
     30          6           0        4.554165    2.424706    2.825940
     31          6           0        6.352704    5.540550    2.355170
     32          6           0        3.244421    4.033915    4.186267
     33          6           0        3.436247    5.102257    5.260590
     34          7           0        4.527808   -0.378349    1.725242
     35          6           0        4.382145   -0.135112    3.064806
     36          6           0        4.069309   -1.267581    3.802835
     37          6           0        3.958360   -2.276718    2.809033
     38          6           0        4.268399   -1.688210    1.540153
     39          6           0        4.056158   -1.322952    5.313699
     40          6           0        3.714562   -3.609638    2.511385
     41          8           0        3.505384   -4.466110    3.379726
     42          6           0        3.817976   -3.906501    1.023260
     43          6           0        4.932689   -4.825110    0.666089
     44          8           0        6.090400   -4.531694    0.687539
     45          8           0        4.398887   -5.964547    0.095298
     46          6           0        5.316264   -6.897234   -0.468448
     47          6           0       -1.843044   -3.749733    0.325615
     48          6           0       -3.227776   -3.075194    0.433939
     49          6           0       -4.326118   -3.573827   -0.168156
     50          6           0       -4.463441   -4.865450   -0.986127
     51          6           0       -5.615667   -2.775268   -0.072882
     52          6           0       -5.814168   -1.547565   -1.081386
     53          6           0       -6.129737   -0.243304   -0.206824
     54          6           0       -6.254699    1.027702   -1.099847
     55          6           0       -4.915375    1.598260   -1.535337
     56          6           0       -7.211312    2.043007   -0.415139
     57          6           0       -8.623384    1.871253   -0.958743
     58          6           0       -9.510328    1.468060    0.192216
     59          6           0      -10.861939    2.116897    0.213109
     60          6           0      -10.698619    3.656246    0.550748
     61          6           0      -11.750831    1.487821    1.258766
     62          6           0      -12.136105    0.046905    0.860387
     63          6           0      -13.633157   -0.228823    1.017625
     64          6           0      -14.395050    0.583829   -0.031176
     65          6           0      -14.949410   -0.275274   -1.162991
     66          6           0      -15.580799    1.427580    0.678284
     67          1           0        4.425350    0.529146   -4.435476
     68          1           0        5.086709    5.318508   -0.270389
     69          1           0        4.372706    1.428904    4.579865
     70          1           0        4.818997   -3.788351   -2.072358
     71          1           0        3.666293   -2.038128   -3.996315
     72          1           0        6.258179   -3.335828   -3.712577
     73          1           0        6.593304   -1.595934   -3.712116
     74          1           0        5.710416   -2.169189   -5.011781
     75          1           0        2.649298   -4.739625   -2.019984
     76          1           0        2.557735   -3.848114   -3.462447
     77          1           0        0.663150   -2.648908   -2.505571
     78          1           0        1.561713   -2.333317   -0.934987
     79          1           0        4.253269    2.177732   -5.640942
     80          1           0        5.140102    3.698890   -5.623570
     81          1           0        3.428066    3.650040   -5.258262
     82          1           0        6.103656    6.601165   -1.619890
     83          1           0        4.414778    6.881074   -1.546079
     84          1           0        5.481554    7.717293   -2.682967
     85          1           0        4.194761    5.417722    2.158169
     86          1           0        5.406775    3.688857    4.190331
     87          1           0        7.004923    4.903519    2.953293
     88          1           0        6.252729    6.543390    2.771982
     89          1           0        6.855865    5.514011    1.388812
     90          1           0        2.990211    3.053575    4.587790
     91          1           0        2.428052    4.354913    3.538678
     92          1           0        3.306853    4.734895    6.278200
     93          1           0        2.761737    5.904890    4.961227
     94          1           0        4.441238    5.505046    5.132774
     95          1           0        3.601878   -2.213932    5.747482
     96          1           0        3.548493   -0.477440    5.776485
     97          1           0        5.051643   -1.226549    5.748484
     98          1           0        2.853212   -4.406268    0.934747
     99          1           0        4.824006   -7.695799   -1.022145
    100          1           0        5.691795   -7.469417    0.380179
    101          1           0        6.053457   -6.440012   -1.128105
    102          1           0       -1.333301   -3.396251    1.221305
    103          1           0       -1.962614   -4.833053    0.287542
    104          1           0       -3.315792   -2.189849    1.063112
    105          1           0       -5.376064   -4.943132   -1.577693
    106          1           0       -4.298254   -5.620877   -0.218410
    107          1           0       -3.578040   -4.805162   -1.618858
    108          1           0       -5.651180   -2.452547    0.967298
    109          1           0       -6.411707   -3.512004   -0.185229
    110          1           0       -6.557936   -1.651059   -1.872099
    111          1           0       -4.863693   -1.229545   -1.511400
    112          1           0       -5.245529   -0.015582    0.388131
    113          1           0       -6.962172   -0.378153    0.484944
    114          1           0       -6.593378    0.874648   -2.125464
    115          1           0       -4.512717    2.397078   -0.912605
    116          1           0       -5.038898    2.132654   -2.477200
    117          1           0       -4.088822    0.895867   -1.641806
    118          1           0       -6.814210    3.023517   -0.677440
    119          1           0       -7.031785    1.913424    0.652537
    120          1           0       -8.721853    1.358138   -1.915829
    121          1           0       -8.828661    2.914800   -1.195102
    122          1           0       -9.031926    1.524029    1.170621
    123          1           0       -9.654080    0.405920   -0.003995
    124          1           0      -11.254201    1.919035   -0.784099
    125          1           0      -11.236110    3.917135    1.461811
    126          1           0      -11.188976    4.168184   -0.277962
    127          1           0       -9.643274    3.877820    0.713623
    128          1           0      -12.618172    2.136796    1.384976
    129          1           0      -11.223417    1.418201    2.209783
    130          1           0      -11.627698   -0.605558    1.569127
    131          1           0      -11.800586   -0.198696   -0.147100
    132          1           0      -13.912272   -0.034053    2.052730
    133          1           0      -13.773871   -1.308609    0.972173
    134          1           0      -13.785277    1.395445   -0.429205
    135          1           0      -15.947691    0.128025   -1.331619
    136          1           0      -14.994918   -1.335525   -0.910699
    137          1           0      -14.345058   -0.114744   -2.055424
    138          1           0      -15.170013    2.109470    1.424330
    139          1           0      -16.310388    0.808480    1.200001
    140          1           0      -15.956418    2.143742   -0.052897
 ---------------------------------------------------------------------

 SCF Done:  E(RPBE1PBE) =  -3005.35017322     A.U. after   18 cycles

 Excitation energies and oscillator strengths:

 Excited State   1:      Singlet-A      1.8995 eV  652.74 nm  f=0.3468  <S**2>=0.000
     245 -> 248       -0.17763
     246 -> 247        0.69126
     246 <- 247       -0.10055
 This state for optimization and/or second-order correction.
 Total Energy, E(TD-HF/TD-DFT) =  -3005.28036955
 Copying the excited state density for this state as the 1-particle RhoCI density.

 Excited State   2:      Singlet-A      2.3114 eV  536.41 nm  f=0.1067  <S**2>=0.000
     245 -> 247        0.64343
     246 -> 248        0.28319

 Excited State   3:      Singlet-A      2.6519 eV  467.53 nm  f=0.0005  <S**2>=0.000
     244 -> 247        0.67953
     244 -> 249       -0.14029

 Excited State   4:      Singlet-A      3.0878 eV  401.53 nm  f=0.0022  <S**2>=0.000
     241 -> 247       -0.11750
     243 -> 247        0.68351

 Excited State   5:      Singlet-A      3.2616 eV  380.14 nm  f=0.0052  <S**2>=0.000
     241 -> 247        0.67983
     243 -> 247        0.10083

 The electronic state is 1-A.
 Alpha  occ. eigenvalues --  -46.91927 -19.25014 -19.24926 -19.19920 -19.19908
 Alpha  occ. eigenvalues --  -19.19305 -19.16687 -14.41851 -14.40778 -14.39478
 Alpha  occ. eigenvalues --  -14.38388 -10.36035 -10.35865 -10.33199 -10.29556
 Alpha  occ. eigenvalues --  -10.29228 -10.28980 -10.28624 -10.28491 -10.28307
 Alpha  occ. eigenvalues --  -10.28215 -10.27811 -10.27313 -10.26573 -10.26239
 Alpha  occ. eigenvalues --  -10.25969 -10.25963 -10.25893 -10.25725 -10.25532
 Alpha  occ. eigenvalues --  -10.25529 -10.25340 -10.25245 -10.25123 -10.25060
 Alpha  occ. eigenvalues --  -10.25013 -10.24824 -10.24797 -10.24607 -10.24286
 Alpha  occ. eigenvalues --  -10.24126 -10.24062 -10.23952 -10.23747 -10.23587
 Alpha  occ. eigenvalues --  -10.23580 -10.23384 -10.23383 -10.23321 -10.23082
 Alpha  occ. eigenvalues --  -10.23000 -10.22982 -10.22829 -10.22616 -10.22477
 Alpha  occ. eigenvalues --  -10.21945 -10.21932 -10.21805 -10.21761 -10.21753
 Alpha  occ. eigenvalues --  -10.21744 -10.21704 -10.21630 -10.21557 -10.21353
 Alpha  occ. eigenvalues --  -10.21319  -3.14070  -1.86902  -1.86423  -1.86312
 Alpha  occ. eigenvalues --   -1.11382  -1.09536  -1.07226  -1.03656  -1.02117
 Alpha  occ. eigenvalues --   -1.01267  -0.99631  -0.98237  -0.98195  -0.96610
 Alpha  occ. eigenvalues --   -0.86805  -0.84966  -0.84048  -0.83696  -0.83426
 Alpha  occ. eigenvalues --   -0.83009  -0.82508  -0.81709  -0.81516  -0.80865
 Alpha  occ. eigenvalues --   -0.80380  -0.79159  -0.78247  -0.78048  -0.77587
 Alpha  occ. eigenvalues --   -0.76735  -0.76272  -0.75567  -0.75128  -0.74581
 Alpha  occ. eigenvalues --   -0.73867  -0.72422  -0.72147  -0.71632  -0.70548
 Alpha  occ. eigenvalues --   -0.70033  -0.69784  -0.69164  -0.68970  -0.68361
 Alpha  occ. eigenvalues --   -0.67756  -0.67121  -0.66475  -0.64802  -0.63729
 Alpha  occ. eigenvalues --   -0.62893  -0.62609  -0.61529  -0.60929  -0.60380
 Alpha  occ. eigenvalues --   -0.59679  -0.59561  -0.59195  -0.58861  -0.57811
 Alpha  occ. eigenvalues --   -0.57094  -0.56968  -0.56680  -0.56165  -0.54850
 Alpha  occ. eigenvalues --   -0.54098  -0.53828  -0.53184  -0.52917  -0.52633
 Alpha  occ. eigenvalues --   -0.52129  -0.51490  -0.50369  -0.50129  -0.49947
 Alpha  occ. eigenvalues --   -0.49632  -0.49526  -0.49122  -0.48980  -0.48442
 Alpha  occ. eigenvalues --   -0.48125  -0.47688  -0.47579  -0.47347  -0.47253
 Alpha  occ. eigenvalues --   -0.46987  -0.46789  -0.46654  -0.46599  -0.45930
 Alpha  occ. eigenvalues --   -0.45740  -0.45576  -0.45485  -0.45363  -0.45259
 Alpha  occ. eigenvalues --   -0.45209  -0.44760  -0.44556  -0.44524  -0.44342
 Alpha  occ. eigenvalues --   -0.43934  -0.43769  -0.43539  -0.43272  -0.42931
 Alpha  occ. eigenvalues --   -0.42850  -0.42700  -0.42555  -0.42274  -0.42127
 Alpha  occ. eigenvalues --   -0.41961  -0.41746  -0.41340  -0.41262  -0.41215
 Alpha  occ. eigenvalues --   -0.41004  -0.40754  -0.40584  -0.40452  -0.40233
 Alpha  occ. eigenvalues --   -0.40174  -0.40060  -0.39763  -0.39587  -0.39553
 Alpha  occ. eigenvalues --   -0.39375  -0.39097  -0.38962  -0.38775  -0.38624
 Alpha  occ. eigenvalues --   -0.38335  -0.38264  -0.38097  -0.37711  -0.37674
 Alpha  occ. eigenvalues --   -0.37503  -0.37442  -0.37341  -0.37252  -0.37078
 Alpha  occ. eigenvalues --   -0.36878  -0.36576  -0.36236  -0.36204  -0.36020
 Alpha  occ. eigenvalues --   -0.35910  -0.35554  -0.35315  -0.35214  -0.35153
 Alpha  occ. eigenvalues --   -0.34862  -0.34733  -0.34030  -0.33960  -0.33726
 Alpha  occ. eigenvalues --   -0.33682  -0.33416  -0.32832  -0.32566  -0.32121
 Alpha  occ. eigenvalues --   -0.31938  -0.31843  -0.31319  -0.31166  -0.30604
 Alpha  occ. eigenvalues --   -0.30362  -0.29799  -0.29649  -0.29201  -0.29138
 Alpha  occ. eigenvalues --   -0.28477  -0.28365  -0.27708  -0.26920  -0.26472
 Alpha  occ. eigenvalues --   -0.25919  -0.25290  -0.24930  -0.23844  -0.20985
 Alpha  occ. eigenvalues --   -0.18738
 Alpha virt. eigenvalues --   -0.10887  -0.05102  -0.03224  -0.01365  -0.00655
 Alpha virt. eigenvalues --   -0.00192   0.00987   0.01392   0.02362   0.03318
 Alpha virt. eigenvalues --    0.04352   0.04736   0.04941   0.05719   0.05950

 Mulliken charges:
               1
     1  Mg   0.987023
     2  C   -0.049930
     3  C   -0.075277
     4  C   -0.084737
     5  C   -0.070325
     6  N   -0.401096
     7  C   -0.008094
     8  C   -0.044920
     9  C   -0.126245
    10  C    0.080678
    11  C    0.014837
    12  C    0.026857
    13  C   -0.049696
    14  C    0.214351
    15  O   -0.267501
    16  O   -0.386818
    17  N   -0.457959
    18  C    0.159595
    19  C   -0.182728
    20  C   -0.104857
    21  C    0.219881
    22  C    0.075605
    23  C    0.089324
    24  O   -0.200453
    25  C   -0.035914
    26  N   -0.389336
    27  C   -0.022824
    28  C   -0.040757
    29  C   -0.154738
    30  C    0.071791
    31  C    0.046035
    32  C   -0.033345
    33  C   -0.040187
    34  N   -0.504574
    35  C    0.151888
    36  C   -0.152736
    37  C    0.016880
    38  C    0.167341
    39  C    0.069865
    40  C    0.022898
    41  O   -0.250578
    42  C   -0.040406
    43  C    0.296212
    44  O   -0.222115
    45  O   -0.359491
    46  C    0.126508
    47  C    0.229618
    48  C   -0.139477
    49  C   -0.233422
    50  C    0.014916
    51  C    0.021860
    52  C   -0.021446
    53  C   -0.058448
    54  C   -0.212706
    55  C   -0.032092
    56  C   -0.008195
    57  C    0.015112
    58  C   -0.035390
    59  C   -0.243512
    60  C    0.004795
    61  C    0.016586
    62  C   -0.075507
    63  C    0.033573
    64  C   -0.269119
    65  C    0.028942
    66  C   -0.054377
    67  H    0.000759
    68  H   -0.034944
    69  H   -0.006312
    70  H    0.052298
    71  H    0.042747
    72  H    0.055073
    73  H    0.047189
    74  H    0.042323
    75  H    0.056965
    76  H    0.039344
    77  H    0.067126
    78  H    0.099674
    79  H    0.027708
    80  H    0.064403
    81  H    0.060763
    82  H    0.059221
    83  H    0.066591
    84  H    0.051211
    85  H    0.036092
    86  H    0.043742
    87  H    0.034659
    88  H    0.060631
    89  H    0.044877
    90  H    0.038367
    91  H    0.041039
    92  H    0.056618
    93  H    0.038807
    94  H    0.034704
    95  H    0.060087
    96  H    0.028607
    97  H    0.049890
    98  H    0.082114
    99  H    0.048566
   100  H    0.052915
   101  H    0.055535
   102  H    0.042792
   103  H    0.067960
   104  H    0.028891
   105  H    0.055350
   106  H    0.073347
   107  H    0.067803
   108  H    0.039753
   109  H    0.022117
   110  H    0.043540
   111  H    0.040373
   112  H    0.034910
   113  H    0.041253
   114  H    0.024615
   115  H    0.017949
   116  H    0.026272
   117  H    0.038277
   118  H    0.011621
   119  H    0.029425
   120  H    0.035738
   121  H    0.016985
   122  H    0.020514
   123  H    0.024891
   124  H    0.025206
   125  H    0.029483
   126  H    0.041956
   127  H    0.041995
   128  H    0.034198
   129  H    0.021004
   130  H    0.021216
   131  H    0.035299
   132  H    0.018022
   133  H    0.015245
   134  H    0.045286
   135  H    0.028616
   136  H    0.037655
   137  H    0.033307
   138  H    0.025501
   139  H    0.046858
   140  H    0.033745
 Sum of Mulliken charges =  -0.00000

 Dipole moment (field-independent basis, Debye):
    X=             -0.7388    Y=              4.2654    Z=             -1.4669  Tot=              4.5707
 Quadrupole moment (field-independent basis, Debye-Ang):
   XX=           -385.2357   YY=           -405.6174   ZZ=           -397.6796
   XY=             22.4978   XZ=             -3.6127   YZ=             50.6203

 Normal termination of Gaussian 16 at Wed May  4 15:06:48 2022.
