 Gaussian 16, Revision A.03,
 Gaussian 16:  ES64L-G16RevA.03 25-Dec-2016

 --------------------------------
 #p wB97XD/Def2SVP td=(nstates=5)
 --------------------------------

 ----------------------------------------------------
 step_1851_chromophore_8 TDDFT with wB97XD functional
 ----------------------------------------------------
 Symbolic Z-matrix:
 Charge =  0 Multiplicity = 1

                         Standard orientation:
 ---------------------------------------------------------------------
 Center     Atomic      Atomic             Coordinates (Angstroms)
 Number     Number       Type             X           Y           Z
 ---------------------------------------------------------------------
      1         12           0        4.910558    0.865648    0.184760
      2          6           0        4.007390   -2.501542    0.414592
      3          6           0        4.460895    0.563610   -3.344483
      4          6           0        4.946052    4.236863   -0.215389
      5          6           0        4.516181    1.220878    3.517266
      6          7           0        4.404433   -0.780675   -1.241095
      7          6           0        4.139472   -2.122326   -0.912273
      8          6           0        4.041402   -3.026835   -2.124481
      9          6           0        4.464673   -2.044192   -3.255185
     10          6           0        4.451341   -0.675411   -2.626528
     11          6           0        5.846697   -2.354515   -3.946217
     12          6           0        2.596421   -3.712638   -2.381683
     13          6           0        1.330774   -3.036121   -1.735460
     14          6           0        0.231000   -3.881161   -0.937308
     15          8           0        0.392347   -5.024076   -0.534292
     16          8           0       -0.906445   -3.141667   -0.682629
     17          7           0        4.802660    2.166536   -1.489040
     18          6           0        4.558493    1.857623   -2.805097
     19          6           0        4.577160    3.071725   -3.610704
     20          6           0        4.786974    4.136005   -2.731218
     21          6           0        4.851360    3.513722   -1.391213
     22          6           0        4.370486    3.122271   -5.109924
     23          6           0        4.893628    5.664194   -3.202150
     24          8           0        4.768325    5.995144   -4.342188
     25          6           0        5.230912    6.746385   -2.255438
     26          7           0        4.735750    2.544423    1.518228
     27          6           0        4.873202    3.843436    1.124539
     28          6           0        5.045860    4.755266    2.314631
     29          6           0        4.616454    3.753519    3.442107
     30          6           0        4.554165    2.424706    2.825940
     31          6           0        6.352704    5.540550    2.355170
     32          6           0        3.244421    4.033915    4.186267
     33          6           0        3.436247    5.102257    5.260590
     34          7           0        4.527808   -0.378349    1.725242
     35          6           0        4.382145   -0.135112    3.064806
     36          6           0        4.069309   -1.267581    3.802835
     37          6           0        3.958360   -2.276718    2.809033
     38          6           0        4.268399   -1.688210    1.540153
     39          6           0        4.056158   -1.322952    5.313699
     40          6           0        3.714562   -3.609638    2.511385
     41          8           0        3.505384   -4.466110    3.379726
     42          6           0        3.817976   -3.906501    1.023260
     43          6           0        4.932689   -4.825110    0.666089
     44          8           0        6.090400   -4.531694    0.687539
     45          8           0        4.398887   -5.964547    0.095298
     46          6           0        5.316264   -6.897234   -0.468448
     47          6           0       -1.843044   -3.749733    0.325615
     48          6           0       -3.227776   -3.075194    0.433939
     49          6           0       -4.326118   -3.573827   -0.168156
     50          6           0       -4.463441   -4.865450   -0.986127
     51          6           0       -5.615667   -2.775268   -0.072882
     52          6           0       -5.814168   -1.547565   -1.081386
     53          6           0       -6.129737   -0.243304   -0.206824
     54          6           0       -6.254699    1.027702   -1.099847
     55          6           0       -4.915375    1.598260   -1.535337
     56          6           0       -7.211312    2.043007   -0.415139
     57          6           0       -8.623384    1.871253   -0.958743
     58          6           0       -9.510328    1.468060    0.192216
     59          6           0      -10.861939    2.116897    0.213109
     60          6           0      -10.698619    3.656246    0.550748
     61          6           0      -11.750831    1.487821    1.258766
     62          6           0      -12.136105    0.046905    0.860387
     63          6           0      -13.633157   -0.228823    1.017625
     64          6           0      -14.395050    0.583829   -0.031176
     65          6           0      -14.949410   -0.275274   -1.162991
     66          6           0      -15.580799    1.427580    0.678284
     67          1           0        4.425350    0.529146   -4.435476
     68          1           0        5.086709    5.318508   -0.270389
     69          1           0        4.372706    1.428904    4.579865
     70          1           0        4.818997   -3.788351   -2.072358
     71          1           0        3.666293   -2.038128   -3.996315
     72          1           0        6.258179   -3.335828   -3.712577
     73          1           0        6.593304   -1.595934   -3.712116
     74          1           0        5.710416   -2.169189   -5.011781
     75          1           0        2.649298   -4.739625   -2.019984
     76          1           0        2.557735   -3.848114   -3.462447
     77          1           0        0.663150   -2.648908   -2.505571
     78          1           0        1.561713   -2.333317   -0.934987
     79          1           0        4.253269    2.177732   -5.640942
     80          1           0        5.140102    3.698890   -5.623570
     81          1           0        3.428066    3.650040   -5.258262
     82          1           0        6.103656    6.601165   -1.619890
     83          1           0        4.414778    6.881074   -1.546079
     84          1           0        5.481554    7.717293   -2.682967
     85          1           0        4.194761    5.417722    2.158169
     86          1           0        5.406775    3.688857    4.190331
     87          1           0        7.004923    4.903519    2.953293
     88          1           0        6.252729    6.543390    2.771982
     89          1           0        6.855865    5.514011    1.388812
     90          1           0        2.990211    3.053575    4.587790
     91          1           0        2.428052    4.354913    3.538678
     92          1           0        3.306853    4.734895    6.278200
     93          1           0        2.761737    5.904890    4.961227
     94          1           0        4.441238    5.505046    5.132774
     95          1           0        3.601878   -2.213932    5.747482
     96          1           0        3.548493   -0.477440    5.776485
     97          1           0        5.051643   -1.226549    5.748484
     98          1           0        2.853212   -4.406268    0.934747
     99          1           0        4.824006   -7.695799   -1.022145
    100          1           0        5.691795   -7.469417    0.380179
    101          1           0        6.053457   -6.440012   -1.128105
    102          1           0       -1.333301   -3.396251    1.221305
    103          1           0       -1.962614   -4.833053    0.287542
    104          1           0       -3.315792   -2.189849    1.063112
    105          1           0       -5.376064   -4.943132   -1.577693
    106          1           0       -4.298254   -5.620877   -0.218410
    107          1           0       -3.578040   -4.805162   -1.618858
    108          1           0       -5.651180   -2.452547    0.967298
    109          1           0       -6.411707   -3.512004   -0.185229
    110          1           0       -6.557936   -1.651059   -1.872099
    111          1           0       -4.863693   -1.229545   -1.511400
    112          1           0       -5.245529   -0.015582    0.388131
    113          1           0       -6.962172   -0.378153    0.484944
    114          1           0       -6.593378    0.874648   -2.125464
    115          1           0       -4.512717    2.397078   -0.912605
    116          1           0       -5.038898    2.132654   -2.477200
    117          1           0       -4.088822    0.895867   -1.641806
    118          1           0       -6.814210    3.023517   -0.677440
    119          1           0       -7.031785    1.913424    0.652537
    120          1           0       -8.721853    1.358138   -1.915829
    121          1           0       -8.828661    2.914800   -1.195102
    122          1           0       -9.031926    1.524029    1.170621
    123          1           0       -9.654080    0.405920   -0.003995
    124          1           0      -11.254201    1.919035   -0.784099
    125          1           0      -11.236110    3.917135    1.461811
    126          1           0      -11.188976    4.168184   -0.277962
    127          1           0       -9.643274    3.877820    0.713623
    128          1           0      -12.618172    2.136796    1.384976
    129          1           0      -11.223417    1.418201    2.209783
    130          1           0      -11.627698   -0.605558    1.569127
    131          1           0      -11.800586   -0.198696   -0.147100
    132          1           0      -13.912272   -0.034053    2.052730
    133          1           0      -13.773871   -1.308609    0.972173
    134          1           0      -13.785277    1.395445   -0.429205
    135          1           0      -15.947691    0.128025   -1.331619
    136          1           0      -14.994918   -1.335525   -0.910699
    137          1           0      -14.345058   -0.114744   -2.055424
    138          1           0      -15.170013    2.109470    1.424330
    139          1           0      -16.310388    0.808480    1.200001
    140          1           0      -15.956418    2.143742   -0.052897
 ---------------------------------------------------------------------

 SCF Done:  E(RwB97XD) =  -3007.86202212     A.U. after   19 cycles

 Excitation energies and oscillator strengths:

 Excited State   1:      Singlet-A      1.7501 eV  708.45 nm  f=0.3607  <S**2>=0.000
     245 -> 248       -0.17896
     246 -> 247        0.68481
     245 <- 248       -0.11173
 This state for optimization and/or second-order correction.
 Total Energy, E(TD-HF/TD-DFT) =  -3007.79770806
 Copying the excited state density for this state as the 1-particle RhoCI density.

 Excited State   2:      Singlet-A      2.2563 eV  549.51 nm  f=0.1046  <S**2>=0.000
     245 -> 247        0.62990
     246 -> 248        0.30440

 Excited State   3:      Singlet-A      3.3207 eV  373.36 nm  f=0.0001  <S**2>=0.000
     243 -> 247        0.14204
     243 -> 249        0.10468
     243 -> 250       -0.10217
     244 -> 247        0.56027
     244 -> 249        0.26099
     244 -> 250       -0.21845

 Excited State   4:      Singlet-A      3.5263 eV  351.59 nm  f=0.0043  <S**2>=0.000
     241 -> 247       -0.34447
     243 -> 247        0.55836
     244 -> 247       -0.16916
     246 -> 248       -0.11346

 Excited State   5:      Singlet-A      3.5848 eV  345.86 nm  f=0.2681  <S**2>=0.000
     240 -> 247       -0.21412
     241 -> 247       -0.42757
     243 -> 247       -0.16152
     245 -> 247       -0.16052
     246 -> 248        0.44797

 The electronic state is 1-A.
 Alpha  occ. eigenvalues --  -46.94893 -19.29481 -19.29425 -19.25013 -19.24542
 Alpha  occ. eigenvalues --  -19.23897 -19.21083 -14.47013 -14.45850 -14.44684
 Alpha  occ. eigenvalues --  -14.43119 -10.42744 -10.42602 -10.40308 -10.36077
 Alpha  occ. eigenvalues --  -10.35938 -10.35452 -10.35289 -10.35208 -10.34726
 Alpha  occ. eigenvalues --  -10.34650 -10.34547 -10.33356 -10.32926 -10.32479
 Alpha  occ. eigenvalues --  -10.32409 -10.32300 -10.32108 -10.31934 -10.31920
 Alpha  occ. eigenvalues --  -10.31814 -10.31749 -10.31645 -10.31572 -10.31475
 Alpha  occ. eigenvalues --  -10.31358 -10.31089 -10.31054 -10.30764 -10.30641
 Alpha  occ. eigenvalues --  -10.30575 -10.30498 -10.30336 -10.30185 -10.30143
 Alpha  occ. eigenvalues --  -10.30095 -10.29993 -10.29668 -10.29653 -10.29409
 Alpha  occ. eigenvalues --  -10.29320 -10.29173 -10.29141 -10.28869 -10.28753
 Alpha  occ. eigenvalues --  -10.28347 -10.28277 -10.28176 -10.28170 -10.28103
 Alpha  occ. eigenvalues --  -10.28061 -10.27992 -10.27980 -10.27780 -10.27685
 Alpha  occ. eigenvalues --  -10.27622  -3.20900  -1.94480  -1.94002  -1.93885
 Alpha  occ. eigenvalues --   -1.18673  -1.16856  -1.14965  -1.10911  -1.09239
 Alpha  occ. eigenvalues --   -1.08543  -1.07049  -1.05952  -1.05283  -1.04067
 Alpha  occ. eigenvalues --   -0.94227  -0.92615  -0.91698  -0.91403  -0.91013
 Alpha  occ. eigenvalues --   -0.90659  -0.90161  -0.89449  -0.89166  -0.88771
 Alpha  occ. eigenvalues --   -0.87809  -0.86827  -0.85882  -0.85587  -0.85281
 Alpha  occ. eigenvalues --   -0.84573  -0.83957  -0.83163  -0.82746  -0.82204
 Alpha  occ. eigenvalues --   -0.81508  -0.79968  -0.79743  -0.79532  -0.78066
 Alpha  occ. eigenvalues --   -0.77643  -0.77436  -0.76866  -0.76652  -0.76011
 Alpha  occ. eigenvalues --   -0.75258  -0.74697  -0.74065  -0.72436  -0.71278
 Alpha  occ. eigenvalues --   -0.70366  -0.70168  -0.69244  -0.68573  -0.67880
 Alpha  occ. eigenvalues --   -0.67300  -0.67117  -0.66642  -0.66340  -0.65486
 Alpha  occ. eigenvalues --   -0.64618  -0.64411  -0.64308  -0.63541  -0.62485
 Alpha  occ. eigenvalues --   -0.61532  -0.61319  -0.60631  -0.60380  -0.60010
 Alpha  occ. eigenvalues --   -0.59390  -0.59019  -0.57853  -0.57600  -0.57288
 Alpha  occ. eigenvalues --   -0.57026  -0.56911  -0.56609  -0.56277  -0.55880
 Alpha  occ. eigenvalues --   -0.55407  -0.55106  -0.54971  -0.54787  -0.54733
 Alpha  occ. eigenvalues --   -0.54576  -0.54160  -0.54031  -0.53891  -0.53321
 Alpha  occ. eigenvalues --   -0.53061  -0.53016  -0.52859  -0.52828  -0.52595
 Alpha  occ. eigenvalues --   -0.52526  -0.52135  -0.52010  -0.51887  -0.51739
 Alpha  occ. eigenvalues --   -0.51237  -0.51044  -0.50861  -0.50485  -0.50218
 Alpha  occ. eigenvalues --   -0.50133  -0.49964  -0.49771  -0.49536  -0.49332
 Alpha  occ. eigenvalues --   -0.49304  -0.49045  -0.48787  -0.48523  -0.48356
 Alpha  occ. eigenvalues --   -0.48211  -0.47993  -0.47824  -0.47701  -0.47479
 Alpha  occ. eigenvalues --   -0.47322  -0.47206  -0.46964  -0.46759  -0.46643
 Alpha  occ. eigenvalues --   -0.46590  -0.46147  -0.46112  -0.45905  -0.45625
 Alpha  occ. eigenvalues --   -0.45482  -0.45365  -0.45183  -0.45072  -0.44871
 Alpha  occ. eigenvalues --   -0.44647  -0.44566  -0.44425  -0.44334  -0.44195
 Alpha  occ. eigenvalues --   -0.43973  -0.43580  -0.43331  -0.43243  -0.43023
 Alpha  occ. eigenvalues --   -0.42933  -0.42569  -0.42369  -0.42310  -0.42220
 Alpha  occ. eigenvalues --   -0.41887  -0.41804  -0.41049  -0.40986  -0.40781
 Alpha  occ. eigenvalues --   -0.40584  -0.40458  -0.39755  -0.39597  -0.39159
 Alpha  occ. eigenvalues --   -0.38988  -0.38882  -0.38335  -0.38166  -0.37599
 Alpha  occ. eigenvalues --   -0.37330  -0.36613  -0.36555  -0.36144  -0.36076
 Alpha  occ. eigenvalues --   -0.35243  -0.35104  -0.34740  -0.33907  -0.33618
 Alpha  occ. eigenvalues --   -0.32817  -0.31980  -0.31164  -0.30614  -0.26053
 Alpha  occ. eigenvalues --   -0.22998
 Alpha virt. eigenvalues --   -0.06691   0.00287   0.03053   0.05197   0.05283
 Alpha virt. eigenvalues --    0.06525   0.07918   0.08036   0.09318   0.09773
 Alpha virt. eigenvalues --    0.10845   0.11553   0.11654   0.12348   0.12702

 Mulliken charges:
               1
     1  Mg   0.977673
     2  C   -0.045135
     3  C   -0.097878
     4  C   -0.103424
     5  C   -0.087403
     6  N   -0.369415
     7  C   -0.032472
     8  C   -0.026347
     9  C   -0.100105
    10  C    0.070965
    11  C    0.024398
    12  C    0.037978
    13  C   -0.029237
    14  C    0.204382
    15  O   -0.264686
    16  O   -0.387400
    17  N   -0.425031
    18  C    0.160250
    19  C   -0.171365
    20  C   -0.104068
    21  C    0.227071
    22  C    0.084404
    23  C    0.087553
    24  O   -0.194149
    25  C   -0.023842
    26  N   -0.354708
    27  C   -0.032043
    28  C   -0.019409
    29  C   -0.123679
    30  C    0.058020
    31  C    0.058103
    32  C   -0.020697
    33  C   -0.022955
    34  N   -0.466552
    35  C    0.141417
    36  C   -0.154589
    37  C    0.026011
    38  C    0.136824
    39  C    0.079359
    40  C    0.001099
    41  O   -0.244365
    42  C    0.000056
    43  C    0.268302
    44  O   -0.216113
    45  O   -0.356836
    46  C    0.140902
    47  C    0.243686
    48  C   -0.151906
    49  C   -0.220085
    50  C    0.028596
    51  C    0.039107
    52  C   -0.002558
    53  C   -0.038977
    54  C   -0.182767
    55  C   -0.022788
    56  C    0.007347
    57  C    0.029364
    58  C   -0.020415
    59  C   -0.206247
    60  C    0.015666
    61  C    0.031309
    62  C   -0.053693
    63  C    0.043812
    64  C   -0.238318
    65  C    0.039560
    66  C   -0.039356
    67  H   -0.005580
    68  H   -0.050719
    69  H   -0.014662
    70  H    0.039182
    71  H    0.032243
    72  H    0.052064
    73  H    0.040647
    74  H    0.037056
    75  H    0.050025
    76  H    0.031923
    77  H    0.061209
    78  H    0.089291
    79  H    0.025584
    80  H    0.062305
    81  H    0.057735
    82  H    0.053940
    83  H    0.061871
    84  H    0.051378
    85  H    0.024552
    86  H    0.031547
    87  H    0.028687
    88  H    0.057470
    89  H    0.037824
    90  H    0.028707
    91  H    0.033537
    92  H    0.052494
    93  H    0.032701
    94  H    0.024727
    95  H    0.056395
    96  H    0.020818
    97  H    0.043104
    98  H    0.073904
    99  H    0.044619
   100  H    0.048689
   101  H    0.051196
   102  H    0.038945
   103  H    0.063478
   104  H    0.026860
   105  H    0.051915
   106  H    0.067532
   107  H    0.061440
   108  H    0.031104
   109  H    0.014702
   110  H    0.037174
   111  H    0.025857
   112  H    0.022719
   113  H    0.030449
   114  H    0.009792
   115  H    0.011414
   116  H    0.020460
   117  H    0.032870
   118  H    0.003713
   119  H    0.019515
   120  H    0.030409
   121  H    0.005821
   122  H    0.009740
   123  H    0.012922
   124  H    0.011290
   125  H    0.024381
   126  H    0.036645
   127  H    0.034305
   128  H    0.019351
   129  H    0.012641
   130  H    0.013882
   131  H    0.023103
   132  H    0.009879
   133  H    0.007948
   134  H    0.029810
   135  H    0.022153
   136  H    0.032057
   137  H    0.028145
   138  H    0.018217
   139  H    0.041161
   140  H    0.027537
 Sum of Mulliken charges =  -0.00000

 Dipole moment (field-independent basis, Debye):
    X=             -0.5891    Y=              4.8297    Z=             -2.2514  Tot=              5.3611
 Quadrupole moment (field-independent basis, Debye-Ang):
   XX=           -383.6311   YY=           -404.1054   ZZ=           -397.7703
   XY=             25.3656   XZ=             -7.1957   YZ=             49.8522

 Normal termination of Gaussian 16 at Wed May  4 15:33:28 2022.
