 Gaussian 16, Revision A.03,
 Gaussian 16:  ES64L-G16RevA.03 25-Dec-2016

 --------------------
 #p ZINDO=(nstates=5)
 --------------------

 -----------------------------
 step_1851_chromophore_8 ZINDO
 -----------------------------
 Symbolic Z-matrix:
 Charge =  0 Multiplicity = 1

                         Standard orientation:
 ---------------------------------------------------------------------
 Center     Atomic      Atomic             Coordinates (Angstroms)
 Number     Number       Type             X           Y           Z
 ---------------------------------------------------------------------
      1         12           0        4.910558    0.865648    0.184760
      2          6           0        4.007390   -2.501542    0.414592
      3          6           0        4.460895    0.563610   -3.344483
      4          6           0        4.946052    4.236863   -0.215389
      5          6           0        4.516181    1.220878    3.517266
      6          7           0        4.404433   -0.780675   -1.241095
      7          6           0        4.139472   -2.122326   -0.912273
      8          6           0        4.041402   -3.026835   -2.124481
      9          6           0        4.464673   -2.044192   -3.255185
     10          6           0        4.451341   -0.675411   -2.626528
     11          6           0        5.846697   -2.354515   -3.946217
     12          6           0        2.596421   -3.712638   -2.381683
     13          6           0        1.330774   -3.036121   -1.735460
     14          6           0        0.231000   -3.881161   -0.937308
     15          8           0        0.392347   -5.024076   -0.534292
     16          8           0       -0.906445   -3.141667   -0.682629
     17          7           0        4.802660    2.166536   -1.489040
     18          6           0        4.558493    1.857623   -2.805097
     19          6           0        4.577160    3.071725   -3.610704
     20          6           0        4.786974    4.136005   -2.731218
     21          6           0        4.851360    3.513722   -1.391213
     22          6           0        4.370486    3.122271   -5.109924
     23          6           0        4.893628    5.664194   -3.202150
     24          8           0        4.768325    5.995144   -4.342188
     25          6           0        5.230912    6.746385   -2.255438
     26          7           0        4.735750    2.544423    1.518228
     27          6           0        4.873202    3.843436    1.124539
     28          6           0        5.045860    4.755266    2.314631
     29          6           0        4.616454    3.753519    3.442107
     30          6           0        4.554165    2.424706    2.825940
     31          6           0        6.352704    5.540550    2.355170
     32          6           0        3.244421    4.033915    4.186267
     33          6           0        3.436247    5.102257    5.260590
     34          7           0        4.527808   -0.378349    1.725242
     35          6           0        4.382145   -0.135112    3.064806
     36          6           0        4.069309   -1.267581    3.802835
     37          6           0        3.958360   -2.276718    2.809033
     38          6           0        4.268399   -1.688210    1.540153
     39          6           0        4.056158   -1.322952    5.313699
     40          6           0        3.714562   -3.609638    2.511385
     41          8           0        3.505384   -4.466110    3.379726
     42          6           0        3.817976   -3.906501    1.023260
     43          6           0        4.932689   -4.825110    0.666089
     44          8           0        6.090400   -4.531694    0.687539
     45          8           0        4.398887   -5.964547    0.095298
     46          6           0        5.316264   -6.897234   -0.468448
     47          6           0       -1.843044   -3.749733    0.325615
     48          6           0       -3.227776   -3.075194    0.433939
     49          6           0       -4.326118   -3.573827   -0.168156
     50          6           0       -4.463441   -4.865450   -0.986127
     51          6           0       -5.615667   -2.775268   -0.072882
     52          6           0       -5.814168   -1.547565   -1.081386
     53          6           0       -6.129737   -0.243304   -0.206824
     54          6           0       -6.254699    1.027702   -1.099847
     55          6           0       -4.915375    1.598260   -1.535337
     56          6           0       -7.211312    2.043007   -0.415139
     57          6           0       -8.623384    1.871253   -0.958743
     58          6           0       -9.510328    1.468060    0.192216
     59          6           0      -10.861939    2.116897    0.213109
     60          6           0      -10.698619    3.656246    0.550748
     61          6           0      -11.750831    1.487821    1.258766
     62          6           0      -12.136105    0.046905    0.860387
     63          6           0      -13.633157   -0.228823    1.017625
     64          6           0      -14.395050    0.583829   -0.031176
     65          6           0      -14.949410   -0.275274   -1.162991
     66          6           0      -15.580799    1.427580    0.678284
     67          1           0        4.425350    0.529146   -4.435476
     68          1           0        5.086709    5.318508   -0.270389
     69          1           0        4.372706    1.428904    4.579865
     70          1           0        4.818997   -3.788351   -2.072358
     71          1           0        3.666293   -2.038128   -3.996315
     72          1           0        6.258179   -3.335828   -3.712577
     73          1           0        6.593304   -1.595934   -3.712116
     74          1           0        5.710416   -2.169189   -5.011781
     75          1           0        2.649298   -4.739625   -2.019984
     76          1           0        2.557735   -3.848114   -3.462447
     77          1           0        0.663150   -2.648908   -2.505571
     78          1           0        1.561713   -2.333317   -0.934987
     79          1           0        4.253269    2.177732   -5.640942
     80          1           0        5.140102    3.698890   -5.623570
     81          1           0        3.428066    3.650040   -5.258262
     82          1           0        6.103656    6.601165   -1.619890
     83          1           0        4.414778    6.881074   -1.546079
     84          1           0        5.481554    7.717293   -2.682967
     85          1           0        4.194761    5.417722    2.158169
     86          1           0        5.406775    3.688857    4.190331
     87          1           0        7.004923    4.903519    2.953293
     88          1           0        6.252729    6.543390    2.771982
     89          1           0        6.855865    5.514011    1.388812
     90          1           0        2.990211    3.053575    4.587790
     91          1           0        2.428052    4.354913    3.538678
     92          1           0        3.306853    4.734895    6.278200
     93          1           0        2.761737    5.904890    4.961227
     94          1           0        4.441238    5.505046    5.132774
     95          1           0        3.601878   -2.213932    5.747482
     96          1           0        3.548493   -0.477440    5.776485
     97          1           0        5.051643   -1.226549    5.748484
     98          1           0        2.853212   -4.406268    0.934747
     99          1           0        4.824006   -7.695799   -1.022145
    100          1           0        5.691795   -7.469417    0.380179
    101          1           0        6.053457   -6.440012   -1.128105
    102          1           0       -1.333301   -3.396251    1.221305
    103          1           0       -1.962614   -4.833053    0.287542
    104          1           0       -3.315792   -2.189849    1.063112
    105          1           0       -5.376064   -4.943132   -1.577693
    106          1           0       -4.298254   -5.620877   -0.218410
    107          1           0       -3.578040   -4.805162   -1.618858
    108          1           0       -5.651180   -2.452547    0.967298
    109          1           0       -6.411707   -3.512004   -0.185229
    110          1           0       -6.557936   -1.651059   -1.872099
    111          1           0       -4.863693   -1.229545   -1.511400
    112          1           0       -5.245529   -0.015582    0.388131
    113          1           0       -6.962172   -0.378153    0.484944
    114          1           0       -6.593378    0.874648   -2.125464
    115          1           0       -4.512717    2.397078   -0.912605
    116          1           0       -5.038898    2.132654   -2.477200
    117          1           0       -4.088822    0.895867   -1.641806
    118          1           0       -6.814210    3.023517   -0.677440
    119          1           0       -7.031785    1.913424    0.652537
    120          1           0       -8.721853    1.358138   -1.915829
    121          1           0       -8.828661    2.914800   -1.195102
    122          1           0       -9.031926    1.524029    1.170621
    123          1           0       -9.654080    0.405920   -0.003995
    124          1           0      -11.254201    1.919035   -0.784099
    125          1           0      -11.236110    3.917135    1.461811
    126          1           0      -11.188976    4.168184   -0.277962
    127          1           0       -9.643274    3.877820    0.713623
    128          1           0      -12.618172    2.136796    1.384976
    129          1           0      -11.223417    1.418201    2.209783
    130          1           0      -11.627698   -0.605558    1.569127
    131          1           0      -11.800586   -0.198696   -0.147100
    132          1           0      -13.912272   -0.034053    2.052730
    133          1           0      -13.773871   -1.308609    0.972173
    134          1           0      -13.785277    1.395445   -0.429205
    135          1           0      -15.947691    0.128025   -1.331619
    136          1           0      -14.994918   -1.335525   -0.910699
    137          1           0      -14.345058   -0.114744   -2.055424
    138          1           0      -15.170013    2.109470    1.424330
    139          1           0      -16.310388    0.808480    1.200001
    140          1           0      -15.956418    2.143742   -0.052897
 ---------------------------------------------------------------------

 SCF Done:  E(RZINDO/S) =  -474.471096118     A.U. after   19 cycles

 Excitation energies and oscillator strengths:

 Excited State   1:      Singlet-A      1.3580 eV  913.01 nm  f=0.5433  <S**2>=0.000
     175 ->178         0.15470
     176 ->177         0.67362
 This state for optimization and/or second-order correction.
 Total Energy, E(CIS/TDA) =  -474.421191333
 Copying the excited state density for this state as the 1-particle RhoCI density.

 Excited State   2:      Singlet-A      1.9739 eV  628.12 nm  f=0.0306  <S**2>=0.000
     175 ->177         0.52662
     176 ->178        -0.43635

 Excited State   3:      Singlet-A      2.8585 eV  433.74 nm  f=0.0119  <S**2>=0.000
     172 ->177         0.31280
     172 ->178        -0.12638
     172 ->179         0.27771
     172 ->181        -0.32208
     172 ->184        -0.10286
     172 ->185         0.20714
     172 ->188         0.19096
     172 ->205        -0.11681
     174 ->177         0.10691

 Excited State   4:      Singlet-A      3.0398 eV  407.86 nm  f=1.0749  <S**2>=0.000
     175 ->177         0.40993
     176 ->178         0.49791
     176 ->180         0.10951

 Excited State   5:      Singlet-A      3.0753 eV  403.15 nm  f=0.0301  <S**2>=0.000
     167 ->177        -0.13282
     167 ->179         0.23501
     167 ->181         0.15112
     167 ->185         0.11876
     168 ->177        -0.23134
     168 ->178         0.12323
     168 ->179         0.37873
     168 ->181         0.24528
     168 ->183         0.12499
     168 ->185         0.18896

 The electronic state is 1-A.
 Alpha  occ. eigenvalues --   -1.85590  -1.83383  -1.80580  -1.72792  -1.72231
 Alpha  occ. eigenvalues --   -1.69648  -1.68983  -1.62232  -1.61789  -1.59527
 Alpha  occ. eigenvalues --   -1.54994  -1.51196  -1.48392  -1.48195  -1.45833
 Alpha  occ. eigenvalues --   -1.44168  -1.41578  -1.41307  -1.38712  -1.38617
 Alpha  occ. eigenvalues --   -1.35245  -1.32363  -1.31946  -1.31065  -1.28905
 Alpha  occ. eigenvalues --   -1.27761  -1.27445  -1.23541  -1.21040  -1.18053
 Alpha  occ. eigenvalues --   -1.17174  -1.15388  -1.15303  -1.14602  -1.13602
 Alpha  occ. eigenvalues --   -1.13134  -1.10793  -1.10444  -1.05996  -1.04156
 Alpha  occ. eigenvalues --   -1.03102  -1.01660  -1.00411  -0.98464  -0.96365
 Alpha  occ. eigenvalues --   -0.95293  -0.94413  -0.93927  -0.92527  -0.92041
 Alpha  occ. eigenvalues --   -0.91084  -0.90404  -0.89132  -0.88428  -0.86748
 Alpha  occ. eigenvalues --   -0.85244  -0.83499  -0.82767  -0.80530  -0.80115
 Alpha  occ. eigenvalues --   -0.78180  -0.78045  -0.77732  -0.77284  -0.76627
 Alpha  occ. eigenvalues --   -0.76200  -0.75956  -0.74741  -0.74191  -0.73085
 Alpha  occ. eigenvalues --   -0.72946  -0.72884  -0.72123  -0.71633  -0.70857
 Alpha  occ. eigenvalues --   -0.70436  -0.70004  -0.69020  -0.68969  -0.68185
 Alpha  occ. eigenvalues --   -0.66625  -0.66157  -0.65923  -0.65685  -0.65249
 Alpha  occ. eigenvalues --   -0.65186  -0.64806  -0.64373  -0.63887  -0.63148
 Alpha  occ. eigenvalues --   -0.62826  -0.62623  -0.62249  -0.62147  -0.61773
 Alpha  occ. eigenvalues --   -0.60810  -0.60666  -0.60591  -0.60257  -0.59874
 Alpha  occ. eigenvalues --   -0.59824  -0.59593  -0.59389  -0.58770  -0.58601
 Alpha  occ. eigenvalues --   -0.57934  -0.57402  -0.56685  -0.56545  -0.56263
 Alpha  occ. eigenvalues --   -0.56157  -0.55665  -0.55380  -0.54757  -0.54509
 Alpha  occ. eigenvalues --   -0.54275  -0.53815  -0.53455  -0.53148  -0.52948
 Alpha  occ. eigenvalues --   -0.52743  -0.52396  -0.52123  -0.52021  -0.51932
 Alpha  occ. eigenvalues --   -0.51447  -0.51164  -0.50984  -0.50459  -0.49966
 Alpha  occ. eigenvalues --   -0.49681  -0.49502  -0.49307  -0.49074  -0.49004
 Alpha  occ. eigenvalues --   -0.48744  -0.48206  -0.48115  -0.47762  -0.47594
 Alpha  occ. eigenvalues --   -0.47248  -0.47234  -0.47056  -0.46864  -0.46680
 Alpha  occ. eigenvalues --   -0.46177  -0.45957  -0.45648  -0.45373  -0.45275
 Alpha  occ. eigenvalues --   -0.44862  -0.44493  -0.44243  -0.43908  -0.43259
 Alpha  occ. eigenvalues --   -0.43220  -0.42624  -0.42504  -0.41601  -0.41462
 Alpha  occ. eigenvalues --   -0.41342  -0.41127  -0.40530  -0.39164  -0.38360
 Alpha  occ. eigenvalues --   -0.37758  -0.37091  -0.36509  -0.34745  -0.34370
 Alpha  occ. eigenvalues --   -0.32658  -0.32328  -0.32194  -0.31118  -0.26948
 Alpha  occ. eigenvalues --   -0.21939
 Alpha virt. eigenvalues --   -0.08186  -0.02189  -0.00232   0.01374   0.01725
 Alpha virt. eigenvalues --    0.02591   0.03163   0.03516   0.04610   0.04897
 Alpha virt. eigenvalues --    0.05554   0.06800   0.07172   0.07550   0.07681

 Mulliken charges:
               1
     1  Mg   0.429238
     2  C   -0.025497
     3  C   -0.092352
     4  C   -0.098968
     5  C   -0.078143
     6  N   -0.303982
     7  C    0.094678
     8  C    0.000891
     9  C    0.009285
    10  C    0.178295
    11  C   -0.048408
    12  C   -0.024361
    13  C    0.004409
    14  C    0.453051
    15  O   -0.515434
    16  O   -0.274037
    17  N   -0.329813
    18  C    0.145837
    19  C    0.049402
    20  C   -0.055244
    21  C    0.164903
    22  C   -0.036164
    23  C    0.338837
    24  O   -0.492488
    25  C   -0.024315
    26  N   -0.277132
    27  C    0.162449
    28  C    0.006438
    29  C    0.008827
    30  C    0.103081
    31  C   -0.044380
    32  C   -0.033127
    33  C   -0.061381
    34  N   -0.311851
    35  C    0.079620
    36  C    0.013872
    37  C   -0.057711
    38  C    0.091370
    39  C   -0.036291
    40  C    0.330303
    41  O   -0.567317
    42  C    0.052697
    43  C    0.498870
    44  O   -0.512241
    45  O   -0.269685
    46  C    0.074590
    47  C    0.095445
    48  C   -0.109307
    49  C    0.007043
    50  C   -0.046741
    51  C   -0.028886
    52  C   -0.038583
    53  C   -0.038961
    54  C   -0.022862
    55  C   -0.057222
    56  C   -0.034400
    57  C   -0.035032
    58  C   -0.026301
    59  C   -0.014033
    60  C   -0.065623
    61  C   -0.031276
    62  C   -0.038870
    63  C   -0.029708
    64  C   -0.010956
    65  C   -0.055261
    66  C   -0.070015
    67  H    0.031829
    68  H    0.020273
    69  H    0.013791
    70  H    0.041725
    71  H    0.024291
    72  H    0.036905
    73  H    0.023895
    74  H    0.017720
    75  H    0.033485
    76  H    0.024998
    77  H    0.039977
    78  H    0.057905
    79  H    0.022903
    80  H    0.042467
    81  H    0.035561
    82  H    0.028770
    83  H    0.035479
    84  H    0.035712
    85  H    0.023877
    86  H    0.027062
    87  H    0.021894
    88  H    0.031838
    89  H    0.025809
    90  H    0.027419
    91  H    0.025330
    92  H    0.031137
    93  H    0.017802
    94  H    0.015032
    95  H    0.030419
    96  H    0.015871
    97  H    0.027133
    98  H    0.065682
    99  H    0.025277
   100  H    0.042068
   101  H    0.045746
   102  H    0.034650
   103  H    0.065233
   104  H    0.037867
   105  H    0.034960
   106  H    0.040023
   107  H    0.029424
   108  H    0.023608
   109  H    0.014089
   110  H    0.032969
   111  H    0.025961
   112  H    0.018678
   113  H    0.024048
   114  H    0.018533
   115  H    0.008084
   116  H    0.007837
   117  H    0.018502
   118  H    0.009144
   119  H    0.026677
   120  H    0.035715
   121  H    0.005990
   122  H    0.024621
   123  H    0.002825
   124  H    0.023352
   125  H    0.018020
   126  H    0.020816
   127  H    0.027023
   128  H    0.018534
   129  H    0.018207
   130  H    0.006625
   131  H    0.023465
   132  H    0.015904
   133  H    0.011969
   134  H    0.024822
   135  H    0.018316
   136  H    0.025903
   137  H    0.017989
   138  H    0.007258
   139  H    0.028901
   140  H    0.017304
 Sum of Mulliken charges =  -0.00000

 Dipole moment (field-independent basis, Debye):
    X=             -0.4397    Y=              8.3098    Z=             -4.9459  Tot=              9.6803
 N-N= 4.385571444873D+03 E-N= 0.000000000000D+00  KE=-9.445904850460D+03
 Leave Link  601 at Wed May  4 15:46:05 2022, MaxMem=  6710886400 cpu:               1.4 elap:               0.1
 (Enter /sw/apps/gaussian-16.0/g16/l9999.exe)
 1\1\GINC-BP1-COMPUTE168\SP\RZINDO CIS\STO-3G\C55H74Mg1N4O6\OF15641\04-
 May-2022\0\\#p ZINDO=(nstates=5)\\step_1851_chromophore_8 ZINDO\\0,1\M
 g,0,44.122,4.403,48.978\C,0,41.864,6.914,48.082\C,0,41.428,2.09,48.602
 \C,0,46.249,1.757,49.01\C,0,46.702,6.528,48.514\N,0,41.94,4.532,48.507
 \C,0,41.208,5.703,48.24\C,0,39.712,5.47,48.17\C,0,39.629,3.98,48.613\C
 ,0,41.046,3.47,48.582\C,0,38.947,3.721,50.01\C,0,39.018,5.749,46.733\C
 ,0,39.932,5.721,45.452\C,0,39.869,6.869,44.339\O,0,39.338,7.959,44.496

 Normal termination of Gaussian 16 at Wed May  4 15:46:05 2022.
