 Gaussian 16, Revision A.03,
 Gaussian 16:  ES64L-G16RevA.03 25-Dec-2016

 ------------------------------
 #p blyp/Def2SVP td=(nstates=5)
 ------------------------------

 --------------------------------------------------
 step_851_chromophore_19 TDDFT with blyp functional
 --------------------------------------------------
 Symbolic Z-matrix:
 Charge =  0 Multiplicity = 1

                         Standard orientation:
 ---------------------------------------------------------------------
 Center     Atomic      Atomic             Coordinates (Angstroms)
 Number     Number       Type             X           Y           Z
 ---------------------------------------------------------------------
      1         12           0       -5.972082    0.444185   -0.203998
      2          6           0       -3.470702   -2.249363   -0.369209
      3          6           0       -3.483774    2.594817    0.575003
      4          6           0       -8.300065    2.683419    0.399992
      5          6           0       -8.371208   -2.107548   -0.556472
      6          7           0       -3.668385    0.285591   -0.163592
      7          6           0       -2.934470   -0.931655   -0.153715
      8          6           0       -1.471624   -0.599044    0.131722
      9          6           0       -1.549029    0.919644    0.553017
     10          6           0       -3.001424    1.328173    0.327716
     11          6           0       -1.039768    1.314206    1.983902
     12          6           0       -0.595264   -0.757890   -1.136268
     13          6           0        0.746559   -1.570475   -0.915456
     14          6           0        1.784041   -1.032799    0.057718
     15          8           0        1.620817   -0.879141    1.277601
     16          8           0        3.046537   -0.970768   -0.513055
     17          7           0       -5.941490    2.354706    0.366937
     18          6           0       -4.806644    3.107824    0.628463
     19          6           0       -5.189232    4.478627    0.655869
     20          6           0       -6.627471    4.543174    0.697675
     21          6           0       -7.020754    3.188232    0.429788
     22          6           0       -4.171362    5.597151    0.767655
     23          6           0       -7.477922    5.715062    1.012841
     24          8           0       -8.697470    5.703212    1.000658
     25          6           0       -6.881776    7.073153    1.152200
     26          7           0       -7.988378    0.266256   -0.044435
     27          6           0       -8.780244    1.365955    0.188862
     28          6           0      -10.284333    0.930337    0.133506
     29          6           0      -10.259078   -0.545039   -0.435716
     30          6           0       -8.782262   -0.802308   -0.352000
     31          6           0      -11.065534    1.160194    1.497707
     32          6           0      -10.894904   -0.676270   -1.882166
     33          6           0      -12.433308   -1.000135   -1.892103
     34          7           0       -5.953339   -1.714668   -0.482420
     35          6           0       -7.033246   -2.544413   -0.609143
     36          6           0       -6.568428   -3.873763   -0.768870
     37          6           0       -5.189146   -3.848703   -0.619342
     38          6           0       -4.871136   -2.474489   -0.489980
     39          6           0       -7.386863   -5.095281   -0.906955
     40          6           0       -3.971613   -4.606036   -0.588908
     41          8           0       -3.783652   -5.832924   -0.687992
     42          6           0       -2.772158   -3.565633   -0.562434
     43          6           0       -1.832458   -3.960307    0.419311
     44          8           0       -1.867666   -3.609293    1.618622
     45          8           0       -0.937237   -4.806570   -0.152295
     46          6           0        0.020702   -5.305403    0.854217
     47          6           0        4.196669   -0.573957    0.443160
     48          6           0        5.573441   -0.401596   -0.206773
     49          6           0        6.768350    0.008085    0.289699
     50          6           0        7.223905    0.278078    1.751697
     51          6           0        7.941213    0.178039   -0.743161
     52          6           0        8.212240    1.643622   -1.239665
     53          6           0        8.494271    1.683967   -2.760886
     54          6           0        9.919160    2.290056   -3.124550
     55          6           0        9.896475    3.257664   -4.239890
     56          6           0       10.994014    1.224868   -3.429712
     57          6           0       12.339809    1.551289   -2.738954
     58          6           0       12.621539    0.509112   -1.713440
     59          6           0       13.683304    0.980520   -0.696714
     60          6           0       14.977663    0.217201   -0.569529
     61          6           0       13.068690    1.239291    0.715907
     62          6           0       12.930202    0.018768    1.679045
     63          6           0       11.565498   -0.248655    2.370866
     64          6           0       11.602889   -1.475666    3.289117
     65          6           0       10.374798   -2.283136    3.056441
     66          6           0       11.630386   -1.106098    4.770941
     67          1           0       -2.701647    3.303485    0.855483
     68          1           0       -9.032512    3.492328    0.428694
     69          1           0       -9.147230   -2.875158   -0.601534
     70          1           0       -1.041454   -1.221512    0.916856
     71          1           0       -1.012962    1.589661   -0.118605
     72          1           0       -1.754056    1.984753    2.459961
     73          1           0       -0.022768    1.703748    1.937464
     74          1           0       -0.939870    0.358449    2.497662
     75          1           0       -0.330618    0.127076   -1.714289
     76          1           0       -1.152748   -1.381030   -1.834493
     77          1           0        1.188902   -1.903172   -1.854285
     78          1           0        0.480904   -2.487291   -0.388919
     79          1           0       -4.130963    6.300315   -0.063615
     80          1           0       -3.163734    5.329783    1.085997
     81          1           0       -4.319380    6.285971    1.600008
     82          1           0       -6.285939    7.161807    2.060720
     83          1           0       -7.682066    7.812448    1.113010
     84          1           0       -6.206136    7.303448    0.329507
     85          1           0      -10.701690    1.507316   -0.691758
     86          1           0      -10.827348   -1.187720    0.236699
     87          1           0      -11.725327    0.368868    1.852540
     88          1           0      -11.708026    1.999020    1.230417
     89          1           0      -10.369769    1.538220    2.247216
     90          1           0      -10.505414   -1.499047   -2.481090
     91          1           0      -10.688749    0.256428   -2.406582
     92          1           0      -12.943673   -0.288239   -2.541471
     93          1           0      -13.002818   -0.869821   -0.972186
     94          1           0      -12.600750   -1.993425   -2.310150
     95          1           0       -8.107482   -5.260742   -0.105483
     96          1           0       -6.767404   -5.983514   -1.031774
     97          1           0       -8.045516   -4.953610   -1.763953
     98          1           0       -2.189874   -3.537261   -1.482973
     99          1           0       -0.542876   -5.761945    1.667487
    100          1           0        0.656123   -4.515325    1.254429
    101          1           0        0.624373   -6.077006    0.374513
    102          1           0        4.418318   -1.373310    1.150216
    103          1           0        3.977029    0.359160    0.962217
    104          1           0        5.541727   -0.489206   -1.292201
    105          1           0        7.637088    1.283881    1.829292
    106          1           0        8.081061   -0.371618    1.928307
    107          1           0        6.534730    0.128986    2.582380
    108          1           0        7.605838   -0.570785   -1.460891
    109          1           0        8.871787   -0.137068   -0.270415
    110          1           0        9.078986    1.953939   -0.656191
    111          1           0        7.500470    2.406826   -0.923301
    112          1           0        7.836909    2.445437   -3.180967
    113          1           0        8.315626    0.734534   -3.266660
    114          1           0       10.147646    2.949610   -2.287127
    115          1           0       10.697125    3.176804   -4.974863
    116          1           0       10.104704    4.246034   -3.829408
    117          1           0        8.971914    3.256070   -4.815953
    118          1           0       11.261671    1.209562   -4.486765
    119          1           0       10.617467    0.240718   -3.149515
    120          1           0       12.312919    2.540306   -2.281277
    121          1           0       13.138671    1.565736   -3.480119
    122          1           0       12.929852   -0.447353   -2.136852
    123          1           0       11.762105    0.343259   -1.065286
    124          1           0       14.009879    2.006919   -0.866277
    125          1           0       15.441893    0.386130    0.402334
    126          1           0       15.623674    0.825794   -1.202354
    127          1           0       15.022745   -0.803699   -0.948576
    128          1           0       12.064692    1.662599    0.721526
    129          1           0       13.736815    1.981635    1.151516
    130          1           0       13.656631    0.058432    2.491524
    131          1           0       13.233652   -0.857822    1.108069
    132          1           0       10.918220   -0.460425    1.520194
    133          1           0       11.209024    0.672938    2.831189
    134          1           0       12.455452   -2.084872    2.988467
    135          1           0        9.875603   -2.197756    2.092338
    136          1           0        9.585129   -2.128031    3.791495
    137          1           0       10.544815   -3.325983    3.324258
    138          1           0       10.897483   -1.530023    5.457493
    139          1           0       11.688250   -0.019846    4.834773
    140          1           0       12.576669   -1.443543    5.193936
 ---------------------------------------------------------------------

 SCF Done:  E(RB-LYP) =  -3007.36221227     A.U. after   21 cycles

 Excitation energies and oscillator strengths:

 Excited State   1:      Singlet-A      1.7901 eV  692.59 nm  f=0.3104  <S**2>=0.000
     245 -> 248        0.17604
     246 -> 247        0.68717
     246 <- 247       -0.15243
 This state for optimization and/or second-order correction.
 Total Energy, E(TD-HF/TD-DFT) =  -3007.29642570
 Copying the excited state density for this state as the 1-particle RhoCI density.

 Excited State   2:      Singlet-A      1.8588 eV  667.03 nm  f=0.0089  <S**2>=0.000
     244 -> 247        0.66237
     245 -> 247        0.23504

 Excited State   3:      Singlet-A      2.0020 eV  619.29 nm  f=0.0722  <S**2>=0.000
     243 -> 247        0.13100
     244 -> 247       -0.23619
     245 -> 247        0.60097
     246 -> 248       -0.21545

 Excited State   4:      Singlet-A      2.0167 eV  614.78 nm  f=0.0080  <S**2>=0.000
     243 -> 247        0.69014
     245 -> 247       -0.11570

 Excited State   5:      Singlet-A      2.2975 eV  539.65 nm  f=0.0000  <S**2>=0.000
     242 -> 247        0.70710

 The electronic state is 1-A.
 Alpha  occ. eigenvalues --  -46.26634 -18.82760 -18.82457 -18.76848 -18.76161
 Alpha  occ. eigenvalues --  -18.75898 -18.75216 -14.03358 -14.03003 -14.00817
 Alpha  occ. eigenvalues --  -14.00680 -10.04502 -10.03200 -10.00089  -9.99400
 Alpha  occ. eigenvalues --   -9.98701  -9.97387  -9.96974  -9.96880  -9.96109
 Alpha  occ. eigenvalues --   -9.95911  -9.95660  -9.95326  -9.94860  -9.94283
 Alpha  occ. eigenvalues --   -9.94173  -9.94162  -9.94041  -9.94006  -9.93837
 Alpha  occ. eigenvalues --   -9.93675  -9.93648  -9.93644  -9.93441  -9.93371
 Alpha  occ. eigenvalues --   -9.92994  -9.92967  -9.92935  -9.92615  -9.92609
 Alpha  occ. eigenvalues --   -9.92570  -9.92434  -9.92362  -9.92335  -9.92273
 Alpha  occ. eigenvalues --   -9.92176  -9.92089  -9.91931  -9.91811  -9.91801
 Alpha  occ. eigenvalues --   -9.91567  -9.91527  -9.91349  -9.91337  -9.91115
 Alpha  occ. eigenvalues --   -9.91036  -9.91013  -9.90951  -9.90900  -9.90863
 Alpha  occ. eigenvalues --   -9.90814  -9.90795  -9.90777  -9.90755  -9.90346
 Alpha  occ. eigenvalues --   -9.90295  -2.91381  -1.71812  -1.71241  -1.71116
 Alpha  occ. eigenvalues --   -0.98002  -0.96337  -0.91762  -0.90322  -0.88766
 Alpha  occ. eigenvalues --   -0.88432  -0.87020  -0.86011  -0.85412  -0.84657
 Alpha  occ. eigenvalues --   -0.75804  -0.73806  -0.72993  -0.72508  -0.72327
 Alpha  occ. eigenvalues --   -0.72145  -0.71529  -0.71316  -0.70648  -0.70376
 Alpha  occ. eigenvalues --   -0.70139  -0.68760  -0.68379  -0.67788  -0.67087
 Alpha  occ. eigenvalues --   -0.66584  -0.66088  -0.65302  -0.65248  -0.64580
 Alpha  occ. eigenvalues --   -0.64332  -0.62906  -0.62187  -0.62113  -0.60717
 Alpha  occ. eigenvalues --   -0.60448  -0.60354  -0.59889  -0.59832  -0.59136
 Alpha  occ. eigenvalues --   -0.58048  -0.57569  -0.56713  -0.55882  -0.54726
 Alpha  occ. eigenvalues --   -0.54406  -0.53784  -0.53255  -0.52756  -0.51548
 Alpha  occ. eigenvalues --   -0.51323  -0.51275  -0.50895  -0.50380  -0.49911
 Alpha  occ. eigenvalues --   -0.49720  -0.49084  -0.48196  -0.47465  -0.47316
 Alpha  occ. eigenvalues --   -0.46161  -0.45840  -0.45649  -0.44977  -0.44645
 Alpha  occ. eigenvalues --   -0.44311  -0.43124  -0.42794  -0.42426  -0.41990
 Alpha  occ. eigenvalues --   -0.41722  -0.41613  -0.41451  -0.41328  -0.41255
 Alpha  occ. eigenvalues --   -0.41032  -0.40524  -0.40414  -0.40365  -0.40322
 Alpha  occ. eigenvalues --   -0.40091  -0.39855  -0.39650  -0.39429  -0.39295
 Alpha  occ. eigenvalues --   -0.39087  -0.38847  -0.38437  -0.38291  -0.38138
 Alpha  occ. eigenvalues --   -0.37900  -0.37803  -0.37709  -0.37261  -0.37202
 Alpha  occ. eigenvalues --   -0.37064  -0.36937  -0.36630  -0.36527  -0.36391
 Alpha  occ. eigenvalues --   -0.36178  -0.35786  -0.35675  -0.35456  -0.35434
 Alpha  occ. eigenvalues --   -0.35250  -0.35084  -0.34925  -0.34835  -0.34597
 Alpha  occ. eigenvalues --   -0.34468  -0.34385  -0.34202  -0.33914  -0.33808
 Alpha  occ. eigenvalues --   -0.33758  -0.33579  -0.33472  -0.33292  -0.33190
 Alpha  occ. eigenvalues --   -0.32864  -0.32844  -0.32630  -0.32589  -0.32408
 Alpha  occ. eigenvalues --   -0.32180  -0.32056  -0.31865  -0.31472  -0.31416
 Alpha  occ. eigenvalues --   -0.31158  -0.31063  -0.30906  -0.30678  -0.30638
 Alpha  occ. eigenvalues --   -0.30459  -0.30310  -0.30167  -0.29959  -0.29746
 Alpha  occ. eigenvalues --   -0.29622  -0.29546  -0.29246  -0.29136  -0.28932
 Alpha  occ. eigenvalues --   -0.28510  -0.28288  -0.28243  -0.27867  -0.27821
 Alpha  occ. eigenvalues --   -0.26855  -0.26852  -0.26768  -0.26652  -0.26548
 Alpha  occ. eigenvalues --   -0.26531  -0.26236  -0.25691  -0.25411  -0.25382
 Alpha  occ. eigenvalues --   -0.25306  -0.25009  -0.24249  -0.23983  -0.23502
 Alpha  occ. eigenvalues --   -0.23008  -0.22002  -0.21650  -0.21266  -0.20897
 Alpha  occ. eigenvalues --   -0.20515  -0.20161  -0.19005  -0.18505  -0.17300
 Alpha  occ. eigenvalues --   -0.15908
 Alpha virt. eigenvalues --   -0.11718  -0.07028  -0.06331  -0.04786  -0.03576
 Alpha virt. eigenvalues --   -0.02848  -0.01790  -0.01624  -0.01079   0.00113
 Alpha virt. eigenvalues --    0.01017   0.01050   0.01846   0.02310   0.02866

 Mulliken charges:
               1
     1  Mg   0.705278
     2  C    0.046167
     3  C   -0.051541
     4  C   -0.057799
     5  C   -0.115814
     6  N   -0.202208
     7  C   -0.071340
     8  C    0.031130
     9  C   -0.004005
    10  C    0.010338
    11  C    0.130501
    12  C    0.119821
    13  C    0.103023
    14  C    0.100592
    15  O   -0.219381
    16  O   -0.295694
    17  N   -0.335030
    18  C    0.134017
    19  C   -0.098910
    20  C    0.076827
    21  C    0.086483
    22  C    0.145181
    23  C   -0.089576
    24  O   -0.160624
    25  C    0.129671
    26  N   -0.259126
    27  C    0.051359
    28  C    0.026253
    29  C    0.013556
    30  C    0.069601
    31  C    0.131413
    32  C    0.081936
    33  C    0.045994
    34  N   -0.187082
    35  C    0.136252
    36  C   -0.199867
    37  C    0.137894
    38  C   -0.000778
    39  C    0.184739
    40  C   -0.053118
    41  O   -0.149660
    42  C    0.110706
    43  C    0.071841
    44  O   -0.213636
    45  O   -0.258059
    46  C    0.226660
    47  C    0.309522
    48  C   -0.121090
    49  C   -0.147576
    50  C    0.132142
    51  C    0.074942
    52  C    0.090587
    53  C    0.128426
    54  C   -0.099408
    55  C    0.118773
    56  C    0.140642
    57  C    0.062496
    58  C    0.151063
    59  C   -0.085975
    60  C    0.141838
    61  C    0.072624
    62  C    0.012464
    63  C    0.096892
    64  C   -0.046261
    65  C    0.085856
    66  C    0.121725
    67  H   -0.064877
    68  H   -0.047750
    69  H   -0.060603
    70  H    0.015783
    71  H   -0.027060
    72  H   -0.006119
    73  H   -0.011302
    74  H    0.001022
    75  H   -0.011319
    76  H   -0.025702
    77  H   -0.011188
    78  H    0.007360
    79  H    0.004960
    80  H   -0.019149
    81  H   -0.024735
    82  H    0.006708
    83  H   -0.007754
    84  H   -0.005821
    85  H   -0.024038
    86  H   -0.028278
    87  H    0.002492
    88  H   -0.005229
    89  H    0.006126
    90  H   -0.017657
    91  H   -0.015722
    92  H   -0.013211
    93  H   -0.007566
    94  H   -0.000371
    95  H   -0.005307
    96  H    0.009262
    97  H   -0.018396
    98  H    0.004612
    99  H    0.020543
   100  H    0.022665
   101  H    0.010365
   102  H    0.017942
   103  H    0.022348
   104  H   -0.027992
   105  H   -0.009046
   106  H   -0.006750
   107  H   -0.008514
   108  H   -0.010827
   109  H   -0.021128
   110  H   -0.028912
   111  H   -0.025268
   112  H   -0.048295
   113  H   -0.021684
   114  H   -0.040088
   115  H   -0.030837
   116  H   -0.030519
   117  H   -0.017438
   118  H   -0.037194
   119  H   -0.031007
   120  H   -0.026258
   121  H   -0.035556
   122  H   -0.036186
   123  H   -0.036654
   124  H   -0.046291
   125  H   -0.028310
   126  H   -0.032542
   127  H   -0.006982
   128  H   -0.043223
   129  H   -0.041348
   130  H   -0.037701
   131  H   -0.031266
   132  H   -0.035784
   133  H   -0.024856
   134  H   -0.030336
   135  H   -0.006969
   136  H   -0.029801
   137  H   -0.033510
   138  H   -0.007679
   139  H   -0.021467
   140  H   -0.028484
 Sum of Mulliken charges =  -0.00000

 Dipole moment (field-independent basis, Debye):
    X=              3.1806    Y=              2.6611    Z=             -2.3079  Tot=              4.7460
 Quadrupole moment (field-independent basis, Debye-Ang):
   XX=           -358.6324   YY=           -421.5046   ZZ=           -407.5942
   XY=             14.6621   XZ=             14.6645   YZ=             -1.0093

 Normal termination of Gaussian 16 at Thu May  5 12:51:25 2022.
