 Gaussian 16, Revision A.03,
 Gaussian 16:  ES64L-G16RevA.03 25-Dec-2016

 -----------------------------------
 #p cam-b3lyp/Def2SVP td=(nstates=5)
 -----------------------------------

 -------------------------------------------------------
 step_851_chromophore_19 TDDFT with cam-b3lyp functional
 -------------------------------------------------------
 Symbolic Z-matrix:
 Charge =  0 Multiplicity = 1

                         Standard orientation:
 ---------------------------------------------------------------------
 Center     Atomic      Atomic             Coordinates (Angstroms)
 Number     Number       Type             X           Y           Z
 ---------------------------------------------------------------------
      1         12           0       -5.972082    0.444185   -0.203998
      2          6           0       -3.470702   -2.249363   -0.369209
      3          6           0       -3.483774    2.594817    0.575003
      4          6           0       -8.300065    2.683419    0.399992
      5          6           0       -8.371208   -2.107548   -0.556472
      6          7           0       -3.668385    0.285591   -0.163592
      7          6           0       -2.934470   -0.931655   -0.153715
      8          6           0       -1.471624   -0.599044    0.131722
      9          6           0       -1.549029    0.919644    0.553017
     10          6           0       -3.001424    1.328173    0.327716
     11          6           0       -1.039768    1.314206    1.983902
     12          6           0       -0.595264   -0.757890   -1.136268
     13          6           0        0.746559   -1.570475   -0.915456
     14          6           0        1.784041   -1.032799    0.057718
     15          8           0        1.620817   -0.879141    1.277601
     16          8           0        3.046537   -0.970768   -0.513055
     17          7           0       -5.941490    2.354706    0.366937
     18          6           0       -4.806644    3.107824    0.628463
     19          6           0       -5.189232    4.478627    0.655869
     20          6           0       -6.627471    4.543174    0.697675
     21          6           0       -7.020754    3.188232    0.429788
     22          6           0       -4.171362    5.597151    0.767655
     23          6           0       -7.477922    5.715062    1.012841
     24          8           0       -8.697470    5.703212    1.000658
     25          6           0       -6.881776    7.073153    1.152200
     26          7           0       -7.988378    0.266256   -0.044435
     27          6           0       -8.780244    1.365955    0.188862
     28          6           0      -10.284333    0.930337    0.133506
     29          6           0      -10.259078   -0.545039   -0.435716
     30          6           0       -8.782262   -0.802308   -0.352000
     31          6           0      -11.065534    1.160194    1.497707
     32          6           0      -10.894904   -0.676270   -1.882166
     33          6           0      -12.433308   -1.000135   -1.892103
     34          7           0       -5.953339   -1.714668   -0.482420
     35          6           0       -7.033246   -2.544413   -0.609143
     36          6           0       -6.568428   -3.873763   -0.768870
     37          6           0       -5.189146   -3.848703   -0.619342
     38          6           0       -4.871136   -2.474489   -0.489980
     39          6           0       -7.386863   -5.095281   -0.906955
     40          6           0       -3.971613   -4.606036   -0.588908
     41          8           0       -3.783652   -5.832924   -0.687992
     42          6           0       -2.772158   -3.565633   -0.562434
     43          6           0       -1.832458   -3.960307    0.419311
     44          8           0       -1.867666   -3.609293    1.618622
     45          8           0       -0.937237   -4.806570   -0.152295
     46          6           0        0.020702   -5.305403    0.854217
     47          6           0        4.196669   -0.573957    0.443160
     48          6           0        5.573441   -0.401596   -0.206773
     49          6           0        6.768350    0.008085    0.289699
     50          6           0        7.223905    0.278078    1.751697
     51          6           0        7.941213    0.178039   -0.743161
     52          6           0        8.212240    1.643622   -1.239665
     53          6           0        8.494271    1.683967   -2.760886
     54          6           0        9.919160    2.290056   -3.124550
     55          6           0        9.896475    3.257664   -4.239890
     56          6           0       10.994014    1.224868   -3.429712
     57          6           0       12.339809    1.551289   -2.738954
     58          6           0       12.621539    0.509112   -1.713440
     59          6           0       13.683304    0.980520   -0.696714
     60          6           0       14.977663    0.217201   -0.569529
     61          6           0       13.068690    1.239291    0.715907
     62          6           0       12.930202    0.018768    1.679045
     63          6           0       11.565498   -0.248655    2.370866
     64          6           0       11.602889   -1.475666    3.289117
     65          6           0       10.374798   -2.283136    3.056441
     66          6           0       11.630386   -1.106098    4.770941
     67          1           0       -2.701647    3.303485    0.855483
     68          1           0       -9.032512    3.492328    0.428694
     69          1           0       -9.147230   -2.875158   -0.601534
     70          1           0       -1.041454   -1.221512    0.916856
     71          1           0       -1.012962    1.589661   -0.118605
     72          1           0       -1.754056    1.984753    2.459961
     73          1           0       -0.022768    1.703748    1.937464
     74          1           0       -0.939870    0.358449    2.497662
     75          1           0       -0.330618    0.127076   -1.714289
     76          1           0       -1.152748   -1.381030   -1.834493
     77          1           0        1.188902   -1.903172   -1.854285
     78          1           0        0.480904   -2.487291   -0.388919
     79          1           0       -4.130963    6.300315   -0.063615
     80          1           0       -3.163734    5.329783    1.085997
     81          1           0       -4.319380    6.285971    1.600008
     82          1           0       -6.285939    7.161807    2.060720
     83          1           0       -7.682066    7.812448    1.113010
     84          1           0       -6.206136    7.303448    0.329507
     85          1           0      -10.701690    1.507316   -0.691758
     86          1           0      -10.827348   -1.187720    0.236699
     87          1           0      -11.725327    0.368868    1.852540
     88          1           0      -11.708026    1.999020    1.230417
     89          1           0      -10.369769    1.538220    2.247216
     90          1           0      -10.505414   -1.499047   -2.481090
     91          1           0      -10.688749    0.256428   -2.406582
     92          1           0      -12.943673   -0.288239   -2.541471
     93          1           0      -13.002818   -0.869821   -0.972186
     94          1           0      -12.600750   -1.993425   -2.310150
     95          1           0       -8.107482   -5.260742   -0.105483
     96          1           0       -6.767404   -5.983514   -1.031774
     97          1           0       -8.045516   -4.953610   -1.763953
     98          1           0       -2.189874   -3.537261   -1.482973
     99          1           0       -0.542876   -5.761945    1.667487
    100          1           0        0.656123   -4.515325    1.254429
    101          1           0        0.624373   -6.077006    0.374513
    102          1           0        4.418318   -1.373310    1.150216
    103          1           0        3.977029    0.359160    0.962217
    104          1           0        5.541727   -0.489206   -1.292201
    105          1           0        7.637088    1.283881    1.829292
    106          1           0        8.081061   -0.371618    1.928307
    107          1           0        6.534730    0.128986    2.582380
    108          1           0        7.605838   -0.570785   -1.460891
    109          1           0        8.871787   -0.137068   -0.270415
    110          1           0        9.078986    1.953939   -0.656191
    111          1           0        7.500470    2.406826   -0.923301
    112          1           0        7.836909    2.445437   -3.180967
    113          1           0        8.315626    0.734534   -3.266660
    114          1           0       10.147646    2.949610   -2.287127
    115          1           0       10.697125    3.176804   -4.974863
    116          1           0       10.104704    4.246034   -3.829408
    117          1           0        8.971914    3.256070   -4.815953
    118          1           0       11.261671    1.209562   -4.486765
    119          1           0       10.617467    0.240718   -3.149515
    120          1           0       12.312919    2.540306   -2.281277
    121          1           0       13.138671    1.565736   -3.480119
    122          1           0       12.929852   -0.447353   -2.136852
    123          1           0       11.762105    0.343259   -1.065286
    124          1           0       14.009879    2.006919   -0.866277
    125          1           0       15.441893    0.386130    0.402334
    126          1           0       15.623674    0.825794   -1.202354
    127          1           0       15.022745   -0.803699   -0.948576
    128          1           0       12.064692    1.662599    0.721526
    129          1           0       13.736815    1.981635    1.151516
    130          1           0       13.656631    0.058432    2.491524
    131          1           0       13.233652   -0.857822    1.108069
    132          1           0       10.918220   -0.460425    1.520194
    133          1           0       11.209024    0.672938    2.831189
    134          1           0       12.455452   -2.084872    2.988467
    135          1           0        9.875603   -2.197756    2.092338
    136          1           0        9.585129   -2.128031    3.791495
    137          1           0       10.544815   -3.325983    3.324258
    138          1           0       10.897483   -1.530023    5.457493
    139          1           0       11.688250   -0.019846    4.834773
    140          1           0       12.576669   -1.443543    5.193936
 ---------------------------------------------------------------------

 SCF Done:  E(RCAM-B3LYP) =  -3007.15496796     A.U. after   17 cycles

 Excitation energies and oscillator strengths:

 Excited State   1:      Singlet-A      1.6819 eV  737.19 nm  f=0.3979  <S**2>=0.000
     245 -> 248        0.17702
     246 -> 247        0.68609
     245 <- 248        0.10716
 This state for optimization and/or second-order correction.
 Total Energy, E(TD-HF/TD-DFT) =  -3007.09316095
 Copying the excited state density for this state as the 1-particle RhoCI density.

 Excited State   2:      Singlet-A      2.1984 eV  563.98 nm  f=0.1261  <S**2>=0.000
     245 -> 247        0.64522
     246 -> 248       -0.27539

 Excited State   3:      Singlet-A      3.3798 eV  366.84 nm  f=0.0089  <S**2>=0.000
     242 -> 247       -0.30507
     244 -> 247        0.61350
     246 -> 248       -0.11531

 Excited State   4:      Singlet-A      3.4920 eV  355.05 nm  f=0.1447  <S**2>=0.000
     240 -> 247       -0.16974
     240 -> 249       -0.10771
     242 -> 247        0.40811
     244 -> 247        0.28411
     245 -> 247        0.12759
     246 -> 248        0.39648

 Excited State   5:      Singlet-A      3.5163 eV  352.60 nm  f=0.0814  <S**2>=0.000
     239 -> 247       -0.10721
     240 -> 247        0.41304
     240 -> 249        0.26422
     240 -> 250       -0.12942
     241 -> 247       -0.29784
     241 -> 249       -0.13997
     246 -> 248        0.24586

 The electronic state is 1-A.
 Alpha  occ. eigenvalues --  -46.88135 -19.25817 -19.25347 -19.19848 -19.19334
 Alpha  occ. eigenvalues --  -19.18994 -19.18550 -14.42226 -14.41863 -14.39280
 Alpha  occ. eigenvalues --  -14.38992 -10.39893 -10.38742 -10.35471 -10.34667
 Alpha  occ. eigenvalues --  -10.32905 -10.31489 -10.31482 -10.31438 -10.30350
 Alpha  occ. eigenvalues --  -10.30336 -10.30107 -10.29780 -10.28954 -10.28860
 Alpha  occ. eigenvalues --  -10.28470 -10.28327 -10.28175 -10.27986 -10.27962
 Alpha  occ. eigenvalues --  -10.27905 -10.27774 -10.27538 -10.27442 -10.27177
 Alpha  occ. eigenvalues --  -10.27089 -10.27070 -10.27034 -10.26908 -10.26701
 Alpha  occ. eigenvalues --  -10.26444 -10.26441 -10.26345 -10.26166 -10.25940
 Alpha  occ. eigenvalues --  -10.25876 -10.25806 -10.25771 -10.25565 -10.25475
 Alpha  occ. eigenvalues --  -10.25390 -10.25263 -10.25207 -10.25071 -10.24810
 Alpha  occ. eigenvalues --  -10.24680 -10.24669 -10.24636 -10.24582 -10.24573
 Alpha  occ. eigenvalues --  -10.24519 -10.24465 -10.24428 -10.24324 -10.23921
 Alpha  occ. eigenvalues --  -10.23836  -3.16792  -1.91696  -1.91229  -1.91119
 Alpha  occ. eigenvalues --   -1.16602  -1.14751  -1.10309  -1.08595  -1.06793
 Alpha  occ. eigenvalues --   -1.06205  -1.04616  -1.03678  -1.03034  -1.02217
 Alpha  occ. eigenvalues --   -0.92960  -0.90670  -0.89795  -0.89287  -0.89076
 Alpha  occ. eigenvalues --   -0.88862  -0.88177  -0.87905  -0.87263  -0.86931
 Alpha  occ. eigenvalues --   -0.86752  -0.85108  -0.84662  -0.84017  -0.83224
 Alpha  occ. eigenvalues --   -0.82652  -0.82059  -0.81454  -0.81181  -0.80477
 Alpha  occ. eigenvalues --   -0.80192  -0.78725  -0.77796  -0.77598  -0.76106
 Alpha  occ. eigenvalues --   -0.75820  -0.75707  -0.75203  -0.75097  -0.74402
 Alpha  occ. eigenvalues --   -0.73089  -0.72577  -0.71597  -0.70728  -0.69263
 Alpha  occ. eigenvalues --   -0.69119  -0.68382  -0.67820  -0.67188  -0.65786
 Alpha  occ. eigenvalues --   -0.65442  -0.65286  -0.65062  -0.64343  -0.63939
 Alpha  occ. eigenvalues --   -0.63709  -0.62750  -0.61943  -0.61230  -0.61024
 Alpha  occ. eigenvalues --   -0.59783  -0.59381  -0.59111  -0.58398  -0.58075
 Alpha  occ. eigenvalues --   -0.57812  -0.56536  -0.56037  -0.55743  -0.55129
 Alpha  occ. eigenvalues --   -0.54886  -0.54579  -0.54443  -0.54248  -0.53997
 Alpha  occ. eigenvalues --   -0.53968  -0.53395  -0.53134  -0.53038  -0.52996
 Alpha  occ. eigenvalues --   -0.52931  -0.52500  -0.52273  -0.52123  -0.51976
 Alpha  occ. eigenvalues --   -0.51833  -0.51191  -0.51014  -0.50746  -0.50578
 Alpha  occ. eigenvalues --   -0.50294  -0.50100  -0.49961  -0.49736  -0.49456
 Alpha  occ. eigenvalues --   -0.49435  -0.49263  -0.49121  -0.48951  -0.48754
 Alpha  occ. eigenvalues --   -0.48399  -0.48199  -0.48023  -0.47651  -0.47462
 Alpha  occ. eigenvalues --   -0.47322  -0.47050  -0.47014  -0.46803  -0.46636
 Alpha  occ. eigenvalues --   -0.46404  -0.46231  -0.46072  -0.46004  -0.45650
 Alpha  occ. eigenvalues --   -0.45467  -0.45351  -0.45290  -0.44950  -0.44822
 Alpha  occ. eigenvalues --   -0.44454  -0.44413  -0.44300  -0.44090  -0.44083
 Alpha  occ. eigenvalues --   -0.43942  -0.43663  -0.43561  -0.43188  -0.43032
 Alpha  occ. eigenvalues --   -0.42801  -0.42611  -0.42534  -0.42296  -0.42090
 Alpha  occ. eigenvalues --   -0.41918  -0.41711  -0.41581  -0.41268  -0.41111
 Alpha  occ. eigenvalues --   -0.40785  -0.40554  -0.40421  -0.40268  -0.40051
 Alpha  occ. eigenvalues --   -0.39541  -0.39308  -0.39283  -0.38867  -0.38807
 Alpha  occ. eigenvalues --   -0.37905  -0.37729  -0.37655  -0.37593  -0.37427
 Alpha  occ. eigenvalues --   -0.37305  -0.37053  -0.36914  -0.36713  -0.36482
 Alpha  occ. eigenvalues --   -0.36171  -0.35597  -0.34738  -0.34268  -0.34081
 Alpha  occ. eigenvalues --   -0.33892  -0.33557  -0.33251  -0.31283  -0.30983
 Alpha  occ. eigenvalues --   -0.30726  -0.30194  -0.29857  -0.29788  -0.24021
 Alpha  occ. eigenvalues --   -0.21198
 Alpha virt. eigenvalues --   -0.08921  -0.01755   0.00088   0.02058   0.03166
 Alpha virt. eigenvalues --    0.04084   0.04807   0.05670   0.05971   0.06810
 Alpha virt. eigenvalues --    0.07086   0.07861   0.08617   0.09084   0.09313

 Mulliken charges:
               1
     1  Mg   0.839076
     2  C    0.021375
     3  C   -0.071252
     4  C   -0.076480
     5  C   -0.112659
     6  N   -0.270957
     7  C   -0.021155
     8  C   -0.030844
     9  C   -0.054870
    10  C    0.035075
    11  C    0.073190
    12  C    0.071995
    13  C    0.035414
    14  C    0.183641
    15  O   -0.260201
    16  O   -0.362465
    17  N   -0.426358
    18  C    0.150786
    19  C   -0.106641
    20  C    0.003217
    21  C    0.117184
    22  C    0.083933
    23  C   -0.008084
    24  O   -0.201623
    25  C    0.045840
    26  N   -0.334522
    27  C    0.067251
    28  C   -0.025302
    29  C   -0.039976
    30  C    0.081079
    31  C    0.071573
    32  C    0.029456
    33  C   -0.014334
    34  N   -0.276147
    35  C    0.134787
    36  C   -0.188106
    37  C    0.050332
    38  C    0.036204
    39  C    0.125531
    40  C    0.048706
    41  O   -0.188703
    42  C    0.028428
    43  C    0.158463
    44  O   -0.248743
    45  O   -0.319176
    46  C    0.183511
    47  C    0.286921
    48  C   -0.147568
    49  C   -0.169365
    50  C    0.080525
    51  C    0.025128
    52  C    0.039369
    53  C    0.069529
    54  C   -0.153212
    55  C    0.057068
    56  C    0.081178
    57  C    0.011458
    58  C    0.098230
    59  C   -0.141025
    60  C    0.073821
    61  C    0.024576
    62  C   -0.035432
    63  C    0.047576
    64  C   -0.110312
    65  C    0.026252
    66  C    0.059291
    67  H   -0.031204
    68  H   -0.005851
    69  H   -0.023798
    70  H    0.050857
    71  H    0.006551
    72  H    0.018348
    73  H    0.013573
    74  H    0.026383
    75  H    0.019060
    76  H    0.005209
    77  H    0.026569
    78  H    0.029877
    79  H    0.032544
    80  H    0.011043
    81  H    0.003000
    82  H    0.034244
    83  H    0.028566
    84  H    0.022003
    85  H    0.010422
    86  H    0.006717
    87  H    0.026013
    88  H    0.018150
    89  H    0.031867
    90  H    0.011932
    91  H    0.010909
    92  H    0.010646
    93  H    0.014468
    94  H    0.022345
    95  H    0.020753
    96  H    0.037708
    97  H    0.006879
    98  H    0.047204
    99  H    0.046516
   100  H    0.043247
   101  H    0.036136
   102  H    0.043578
   103  H    0.048324
   104  H    0.006245
   105  H    0.014397
   106  H    0.012212
   107  H    0.016706
   108  H    0.016882
   109  H    0.002078
   110  H   -0.004112
   111  H    0.004273
   112  H   -0.015750
   113  H    0.006160
   114  H   -0.008022
   115  H   -0.005024
   116  H   -0.005185
   117  H    0.007394
   118  H   -0.006359
   119  H   -0.003005
   120  H    0.000114
   121  H   -0.006307
   122  H   -0.006690
   123  H   -0.013363
   124  H   -0.012100
   125  H   -0.000773
   126  H   -0.006317
   127  H    0.017120
   128  H   -0.016557
   129  H   -0.011443
   130  H   -0.010863
   131  H   -0.004678
   132  H   -0.013836
   133  H    0.001548
   134  H    0.002986
   135  H    0.014473
   136  H   -0.005507
   137  H   -0.005790
   138  H    0.017277
   139  H    0.003007
   140  H   -0.003428
 Sum of Mulliken charges =  -0.00000

 Dipole moment (field-independent basis, Debye):
    X=              3.3313    Y=              3.3799    Z=             -2.2702  Tot=              5.2607
 Quadrupole moment (field-independent basis, Debye-Ang):
   XX=           -357.3371   YY=           -416.7779   ZZ=           -407.6662
   XY=             11.6120   XZ=             14.9875   YZ=             -0.3084

 Normal termination of Gaussian 16 at Thu May  5 11:22:03 2022.
