 Gaussian 16, Revision A.03,
 Gaussian 16:  ES64L-G16RevA.03 25-Dec-2016

 ---------------------------------
 #p PBE1PBE/Def2SVP td=(nstates=5)
 ---------------------------------

 -----------------------------------------------------
 step_851_chromophore_19 TDDFT with PBE1PBE functional
 -----------------------------------------------------
 Symbolic Z-matrix:
 Charge =  0 Multiplicity = 1

                         Standard orientation:
 ---------------------------------------------------------------------
 Center     Atomic      Atomic             Coordinates (Angstroms)
 Number     Number       Type             X           Y           Z
 ---------------------------------------------------------------------
      1         12           0       -5.972082    0.444185   -0.203998
      2          6           0       -3.470702   -2.249363   -0.369209
      3          6           0       -3.483774    2.594817    0.575003
      4          6           0       -8.300065    2.683419    0.399992
      5          6           0       -8.371208   -2.107548   -0.556472
      6          7           0       -3.668385    0.285591   -0.163592
      7          6           0       -2.934470   -0.931655   -0.153715
      8          6           0       -1.471624   -0.599044    0.131722
      9          6           0       -1.549029    0.919644    0.553017
     10          6           0       -3.001424    1.328173    0.327716
     11          6           0       -1.039768    1.314206    1.983902
     12          6           0       -0.595264   -0.757890   -1.136268
     13          6           0        0.746559   -1.570475   -0.915456
     14          6           0        1.784041   -1.032799    0.057718
     15          8           0        1.620817   -0.879141    1.277601
     16          8           0        3.046537   -0.970768   -0.513055
     17          7           0       -5.941490    2.354706    0.366937
     18          6           0       -4.806644    3.107824    0.628463
     19          6           0       -5.189232    4.478627    0.655869
     20          6           0       -6.627471    4.543174    0.697675
     21          6           0       -7.020754    3.188232    0.429788
     22          6           0       -4.171362    5.597151    0.767655
     23          6           0       -7.477922    5.715062    1.012841
     24          8           0       -8.697470    5.703212    1.000658
     25          6           0       -6.881776    7.073153    1.152200
     26          7           0       -7.988378    0.266256   -0.044435
     27          6           0       -8.780244    1.365955    0.188862
     28          6           0      -10.284333    0.930337    0.133506
     29          6           0      -10.259078   -0.545039   -0.435716
     30          6           0       -8.782262   -0.802308   -0.352000
     31          6           0      -11.065534    1.160194    1.497707
     32          6           0      -10.894904   -0.676270   -1.882166
     33          6           0      -12.433308   -1.000135   -1.892103
     34          7           0       -5.953339   -1.714668   -0.482420
     35          6           0       -7.033246   -2.544413   -0.609143
     36          6           0       -6.568428   -3.873763   -0.768870
     37          6           0       -5.189146   -3.848703   -0.619342
     38          6           0       -4.871136   -2.474489   -0.489980
     39          6           0       -7.386863   -5.095281   -0.906955
     40          6           0       -3.971613   -4.606036   -0.588908
     41          8           0       -3.783652   -5.832924   -0.687992
     42          6           0       -2.772158   -3.565633   -0.562434
     43          6           0       -1.832458   -3.960307    0.419311
     44          8           0       -1.867666   -3.609293    1.618622
     45          8           0       -0.937237   -4.806570   -0.152295
     46          6           0        0.020702   -5.305403    0.854217
     47          6           0        4.196669   -0.573957    0.443160
     48          6           0        5.573441   -0.401596   -0.206773
     49          6           0        6.768350    0.008085    0.289699
     50          6           0        7.223905    0.278078    1.751697
     51          6           0        7.941213    0.178039   -0.743161
     52          6           0        8.212240    1.643622   -1.239665
     53          6           0        8.494271    1.683967   -2.760886
     54          6           0        9.919160    2.290056   -3.124550
     55          6           0        9.896475    3.257664   -4.239890
     56          6           0       10.994014    1.224868   -3.429712
     57          6           0       12.339809    1.551289   -2.738954
     58          6           0       12.621539    0.509112   -1.713440
     59          6           0       13.683304    0.980520   -0.696714
     60          6           0       14.977663    0.217201   -0.569529
     61          6           0       13.068690    1.239291    0.715907
     62          6           0       12.930202    0.018768    1.679045
     63          6           0       11.565498   -0.248655    2.370866
     64          6           0       11.602889   -1.475666    3.289117
     65          6           0       10.374798   -2.283136    3.056441
     66          6           0       11.630386   -1.106098    4.770941
     67          1           0       -2.701647    3.303485    0.855483
     68          1           0       -9.032512    3.492328    0.428694
     69          1           0       -9.147230   -2.875158   -0.601534
     70          1           0       -1.041454   -1.221512    0.916856
     71          1           0       -1.012962    1.589661   -0.118605
     72          1           0       -1.754056    1.984753    2.459961
     73          1           0       -0.022768    1.703748    1.937464
     74          1           0       -0.939870    0.358449    2.497662
     75          1           0       -0.330618    0.127076   -1.714289
     76          1           0       -1.152748   -1.381030   -1.834493
     77          1           0        1.188902   -1.903172   -1.854285
     78          1           0        0.480904   -2.487291   -0.388919
     79          1           0       -4.130963    6.300315   -0.063615
     80          1           0       -3.163734    5.329783    1.085997
     81          1           0       -4.319380    6.285971    1.600008
     82          1           0       -6.285939    7.161807    2.060720
     83          1           0       -7.682066    7.812448    1.113010
     84          1           0       -6.206136    7.303448    0.329507
     85          1           0      -10.701690    1.507316   -0.691758
     86          1           0      -10.827348   -1.187720    0.236699
     87          1           0      -11.725327    0.368868    1.852540
     88          1           0      -11.708026    1.999020    1.230417
     89          1           0      -10.369769    1.538220    2.247216
     90          1           0      -10.505414   -1.499047   -2.481090
     91          1           0      -10.688749    0.256428   -2.406582
     92          1           0      -12.943673   -0.288239   -2.541471
     93          1           0      -13.002818   -0.869821   -0.972186
     94          1           0      -12.600750   -1.993425   -2.310150
     95          1           0       -8.107482   -5.260742   -0.105483
     96          1           0       -6.767404   -5.983514   -1.031774
     97          1           0       -8.045516   -4.953610   -1.763953
     98          1           0       -2.189874   -3.537261   -1.482973
     99          1           0       -0.542876   -5.761945    1.667487
    100          1           0        0.656123   -4.515325    1.254429
    101          1           0        0.624373   -6.077006    0.374513
    102          1           0        4.418318   -1.373310    1.150216
    103          1           0        3.977029    0.359160    0.962217
    104          1           0        5.541727   -0.489206   -1.292201
    105          1           0        7.637088    1.283881    1.829292
    106          1           0        8.081061   -0.371618    1.928307
    107          1           0        6.534730    0.128986    2.582380
    108          1           0        7.605838   -0.570785   -1.460891
    109          1           0        8.871787   -0.137068   -0.270415
    110          1           0        9.078986    1.953939   -0.656191
    111          1           0        7.500470    2.406826   -0.923301
    112          1           0        7.836909    2.445437   -3.180967
    113          1           0        8.315626    0.734534   -3.266660
    114          1           0       10.147646    2.949610   -2.287127
    115          1           0       10.697125    3.176804   -4.974863
    116          1           0       10.104704    4.246034   -3.829408
    117          1           0        8.971914    3.256070   -4.815953
    118          1           0       11.261671    1.209562   -4.486765
    119          1           0       10.617467    0.240718   -3.149515
    120          1           0       12.312919    2.540306   -2.281277
    121          1           0       13.138671    1.565736   -3.480119
    122          1           0       12.929852   -0.447353   -2.136852
    123          1           0       11.762105    0.343259   -1.065286
    124          1           0       14.009879    2.006919   -0.866277
    125          1           0       15.441893    0.386130    0.402334
    126          1           0       15.623674    0.825794   -1.202354
    127          1           0       15.022745   -0.803699   -0.948576
    128          1           0       12.064692    1.662599    0.721526
    129          1           0       13.736815    1.981635    1.151516
    130          1           0       13.656631    0.058432    2.491524
    131          1           0       13.233652   -0.857822    1.108069
    132          1           0       10.918220   -0.460425    1.520194
    133          1           0       11.209024    0.672938    2.831189
    134          1           0       12.455452   -2.084872    2.988467
    135          1           0        9.875603   -2.197756    2.092338
    136          1           0        9.585129   -2.128031    3.791495
    137          1           0       10.544815   -3.325983    3.324258
    138          1           0       10.897483   -1.530023    5.457493
    139          1           0       11.688250   -0.019846    4.834773
    140          1           0       12.576669   -1.443543    5.193936
 ---------------------------------------------------------------------

 SCF Done:  E(RPBE1PBE) =  -3005.34421021     A.U. after   15 cycles

 Excitation energies and oscillator strengths:

 Excited State   1:      Singlet-A      1.8393 eV  674.07 nm  f=0.3840  <S**2>=0.000
     245 -> 248        0.16868
     246 -> 247        0.69360
     246 <- 247       -0.11076
 This state for optimization and/or second-order correction.
 Total Energy, E(TD-HF/TD-DFT) =  -3005.27661591
 Copying the excited state density for this state as the 1-particle RhoCI density.

 Excited State   2:      Singlet-A      2.2056 eV  562.13 nm  f=0.1188  <S**2>=0.000
     245 -> 247        0.65545
     246 -> 248       -0.24921

 Excited State   3:      Singlet-A      3.0007 eV  413.18 nm  f=0.0011  <S**2>=0.000
     242 -> 247        0.55434
     243 -> 247       -0.36086

 Excited State   4:      Singlet-A      3.0328 eV  408.80 nm  f=0.0008  <S**2>=0.000
     240 -> 247        0.35077
     240 -> 249        0.11957
     241 -> 247        0.56173
     241 -> 249        0.14752

 Excited State   5:      Singlet-A      3.0690 eV  403.99 nm  f=0.0003  <S**2>=0.000
     241 -> 247       -0.13445
     242 -> 247        0.33408
     243 -> 247        0.59696

 The electronic state is 1-A.
 Alpha  occ. eigenvalues --  -46.91542 -19.26440 -19.26044 -19.20113 -19.19578
 Alpha  occ. eigenvalues --  -19.19309 -19.18688 -14.41762 -14.41374 -14.38933
 Alpha  occ. eigenvalues --  -14.38682 -10.36926 -10.35704 -10.32675 -10.31688
 Alpha  occ. eigenvalues --  -10.30314 -10.29338 -10.29189 -10.28654 -10.28154
 Alpha  occ. eigenvalues --  -10.27977 -10.27704 -10.27349 -10.26690 -10.26509
 Alpha  occ. eigenvalues --  -10.26231 -10.26167 -10.25829 -10.25699 -10.25597
 Alpha  occ. eigenvalues --  -10.25579 -10.25440 -10.25423 -10.25288 -10.24934
 Alpha  occ. eigenvalues --  -10.24778 -10.24724 -10.24693 -10.24410 -10.24313
 Alpha  occ. eigenvalues --  -10.24101 -10.23983 -10.23766 -10.23712 -10.23511
 Alpha  occ. eigenvalues --  -10.23432 -10.23367 -10.23255 -10.23209 -10.22916
 Alpha  occ. eigenvalues --  -10.22882 -10.22859 -10.22765 -10.22689 -10.22504
 Alpha  occ. eigenvalues --  -10.22374 -10.22159 -10.22156 -10.22143 -10.22076
 Alpha  occ. eigenvalues --  -10.22045 -10.21996 -10.21857 -10.21716 -10.21304
 Alpha  occ. eigenvalues --  -10.21216  -3.13775  -1.86621  -1.86131  -1.86026
 Alpha  occ. eigenvalues --   -1.11353  -1.09530  -1.04963  -1.03382  -1.01567
 Alpha  occ. eigenvalues --   -1.01060  -0.99375  -0.98311  -0.97645  -0.96836
 Alpha  occ. eigenvalues --   -0.87349  -0.84755  -0.83904  -0.83462  -0.83343
 Alpha  occ. eigenvalues --   -0.83086  -0.82318  -0.82197  -0.81598  -0.81243
 Alpha  occ. eigenvalues --   -0.81075  -0.79374  -0.78876  -0.78253  -0.77466
 Alpha  occ. eigenvalues --   -0.76861  -0.76361  -0.75641  -0.75336  -0.74722
 Alpha  occ. eigenvalues --   -0.74412  -0.72977  -0.72087  -0.71935  -0.70391
 Alpha  occ. eigenvalues --   -0.70004  -0.69810  -0.69456  -0.69339  -0.68572
 Alpha  occ. eigenvalues --   -0.67511  -0.66937  -0.66048  -0.65032  -0.63662
 Alpha  occ. eigenvalues --   -0.63566  -0.62591  -0.62274  -0.61377  -0.60048
 Alpha  occ. eigenvalues --   -0.59944  -0.59733  -0.59490  -0.58937  -0.58083
 Alpha  occ. eigenvalues --   -0.57856  -0.57301  -0.56536  -0.55548  -0.55483
 Alpha  occ. eigenvalues --   -0.54348  -0.53865  -0.53617  -0.52973  -0.52625
 Alpha  occ. eigenvalues --   -0.52342  -0.51039  -0.50577  -0.50315  -0.49489
 Alpha  occ. eigenvalues --   -0.49474  -0.49110  -0.48855  -0.48726  -0.48566
 Alpha  occ. eigenvalues --   -0.48375  -0.48063  -0.47624  -0.47573  -0.47483
 Alpha  occ. eigenvalues --   -0.47412  -0.47012  -0.46689  -0.46645  -0.46520
 Alpha  occ. eigenvalues --   -0.46355  -0.45689  -0.45608  -0.45294  -0.45205
 Alpha  occ. eigenvalues --   -0.44941  -0.44660  -0.44593  -0.44287  -0.44029
 Alpha  occ. eigenvalues --   -0.43981  -0.43869  -0.43698  -0.43540  -0.43364
 Alpha  occ. eigenvalues --   -0.42973  -0.42802  -0.42670  -0.42255  -0.42141
 Alpha  occ. eigenvalues --   -0.41942  -0.41678  -0.41632  -0.41438  -0.41310
 Alpha  occ. eigenvalues --   -0.41070  -0.40879  -0.40840  -0.40763  -0.40389
 Alpha  occ. eigenvalues --   -0.40123  -0.40086  -0.40026  -0.39690  -0.39525
 Alpha  occ. eigenvalues --   -0.39264  -0.39086  -0.39019  -0.38875  -0.38778
 Alpha  occ. eigenvalues --   -0.38713  -0.38429  -0.38351  -0.37988  -0.37884
 Alpha  occ. eigenvalues --   -0.37512  -0.37395  -0.37289  -0.37078  -0.36866
 Alpha  occ. eigenvalues --   -0.36779  -0.36542  -0.36406  -0.36056  -0.35961
 Alpha  occ. eigenvalues --   -0.35524  -0.35484  -0.35387  -0.35181  -0.34805
 Alpha  occ. eigenvalues --   -0.34341  -0.34204  -0.34097  -0.33848  -0.33556
 Alpha  occ. eigenvalues --   -0.32916  -0.32704  -0.32414  -0.32369  -0.32239
 Alpha  occ. eigenvalues --   -0.32116  -0.31975  -0.31878  -0.31791  -0.31537
 Alpha  occ. eigenvalues --   -0.31075  -0.30458  -0.29624  -0.29320  -0.29135
 Alpha  occ. eigenvalues --   -0.28845  -0.28592  -0.28460  -0.26772  -0.25989
 Alpha  occ. eigenvalues --   -0.25774  -0.25569  -0.25455  -0.25124  -0.20981
 Alpha  occ. eigenvalues --   -0.18845
 Alpha virt. eigenvalues --   -0.11351  -0.05311  -0.04114  -0.02286  -0.00442
 Alpha virt. eigenvalues --    0.00090   0.00581   0.01351   0.01701   0.03118
 Alpha virt. eigenvalues --    0.03716   0.03765   0.04741   0.05581   0.05797

 Mulliken charges:
               1
     1  Mg   0.988999
     2  C    0.020965
     3  C   -0.071193
     4  C   -0.065962
     5  C   -0.089369
     6  N   -0.373569
     7  C    0.058244
     8  C   -0.110058
     9  C   -0.123407
    10  C    0.075985
    11  C    0.014027
    12  C    0.030501
    13  C   -0.058738
    14  C    0.255955
    15  O   -0.291662
    16  O   -0.392826
    17  N   -0.543935
    18  C    0.181580
    19  C   -0.135412
    20  C   -0.053155
    21  C    0.148236
    22  C    0.029857
    23  C    0.045397
    24  O   -0.240444
    25  C   -0.029753
    26  N   -0.443229
    27  C    0.096275
    28  C   -0.097313
    29  C   -0.110951
    30  C    0.113385
    31  C    0.011432
    32  C   -0.029936
    33  C   -0.083152
    34  N   -0.409445
    35  C    0.151889
    36  C   -0.204572
    37  C    0.006073
    38  C    0.084125
    39  C    0.072054
    40  C    0.139625
    41  O   -0.232806
    42  C   -0.088314
    43  C    0.246462
    44  O   -0.282200
    45  O   -0.351462
    46  C    0.126261
    47  C    0.249703
    48  C   -0.163852
    49  C   -0.207197
    50  C    0.013201
    51  C   -0.048272
    52  C   -0.017187
    53  C    0.011099
    54  C   -0.238105
    55  C    0.002395
    56  C    0.022710
    57  C   -0.050122
    58  C    0.035299
    59  C   -0.222864
    60  C    0.012119
    61  C   -0.035969
    62  C   -0.092177
    63  C   -0.017760
    64  C   -0.207479
    65  C   -0.032782
    66  C    0.002476
    67  H    0.001159
    68  H    0.026183
    69  H    0.006598
    70  H    0.086912
    71  H    0.043790
    72  H    0.046150
    73  H    0.041308
    74  H    0.054494
    75  H    0.050189
    76  H    0.040275
    77  H    0.057851
    78  H    0.073747
    79  H    0.059431
    80  H    0.036707
    81  H    0.030189
    82  H    0.060881
    83  H    0.055924
    84  H    0.049525
    85  H    0.048322
    86  H    0.043728
    87  H    0.051814
    88  H    0.045654
    89  H    0.059927
    90  H    0.044396
    91  H    0.042951
    92  H    0.038911
    93  H    0.041384
    94  H    0.049432
    95  H    0.048925
    96  H    0.065229
    97  H    0.035638
    98  H    0.083333
    99  H    0.068833
   100  H    0.064373
   101  H    0.058240
   102  H    0.069922
   103  H    0.073607
   104  H    0.036029
   105  H    0.042675
   106  H    0.045951
   107  H    0.043187
   108  H    0.047249
   109  H    0.040512
   110  H    0.028076
   111  H    0.035289
   112  H    0.019599
   113  H    0.036771
   114  H    0.029410
   115  H    0.022296
   116  H    0.022254
   117  H    0.033782
   118  H    0.026680
   119  H    0.029089
   120  H    0.031704
   121  H    0.027024
   122  H    0.025655
   123  H    0.026302
   124  H    0.026157
   125  H    0.027735
   126  H    0.022979
   127  H    0.043424
   128  H    0.018172
   129  H    0.021981
   130  H    0.023043
   131  H    0.029000
   132  H    0.026564
   133  H    0.032397
   134  H    0.039297
   135  H    0.040681
   136  H    0.021763
   137  H    0.023434
   138  H    0.043034
   139  H    0.030296
   140  H    0.024876
 Sum of Mulliken charges =  -0.00000

 Dipole moment (field-independent basis, Debye):
    X=              3.2280    Y=              3.1967    Z=             -2.3324  Tot=              5.1068
 Quadrupole moment (field-independent basis, Debye-Ang):
   XX=           -349.8438   YY=           -414.3062   ZZ=           -405.0675
   XY=             14.0303   XZ=             15.8120   YZ=             -0.2445

 Normal termination of Gaussian 16 at Thu May  5 11:48:51 2022.
