 Gaussian 16, Revision A.03,
 Gaussian 16:  ES64L-G16RevA.03 25-Dec-2016

 --------------------------------
 #p wB97XD/Def2SVP td=(nstates=5)
 --------------------------------

 ----------------------------------------------------
 step_851_chromophore_19 TDDFT with wB97XD functional
 ----------------------------------------------------
 Symbolic Z-matrix:
 Charge =  0 Multiplicity = 1

                         Standard orientation:
 ---------------------------------------------------------------------
 Center     Atomic      Atomic             Coordinates (Angstroms)
 Number     Number       Type             X           Y           Z
 ---------------------------------------------------------------------
      1         12           0       -5.972082    0.444185   -0.203998
      2          6           0       -3.470702   -2.249363   -0.369209
      3          6           0       -3.483774    2.594817    0.575003
      4          6           0       -8.300065    2.683419    0.399992
      5          6           0       -8.371208   -2.107548   -0.556472
      6          7           0       -3.668385    0.285591   -0.163592
      7          6           0       -2.934470   -0.931655   -0.153715
      8          6           0       -1.471624   -0.599044    0.131722
      9          6           0       -1.549029    0.919644    0.553017
     10          6           0       -3.001424    1.328173    0.327716
     11          6           0       -1.039768    1.314206    1.983902
     12          6           0       -0.595264   -0.757890   -1.136268
     13          6           0        0.746559   -1.570475   -0.915456
     14          6           0        1.784041   -1.032799    0.057718
     15          8           0        1.620817   -0.879141    1.277601
     16          8           0        3.046537   -0.970768   -0.513055
     17          7           0       -5.941490    2.354706    0.366937
     18          6           0       -4.806644    3.107824    0.628463
     19          6           0       -5.189232    4.478627    0.655869
     20          6           0       -6.627471    4.543174    0.697675
     21          6           0       -7.020754    3.188232    0.429788
     22          6           0       -4.171362    5.597151    0.767655
     23          6           0       -7.477922    5.715062    1.012841
     24          8           0       -8.697470    5.703212    1.000658
     25          6           0       -6.881776    7.073153    1.152200
     26          7           0       -7.988378    0.266256   -0.044435
     27          6           0       -8.780244    1.365955    0.188862
     28          6           0      -10.284333    0.930337    0.133506
     29          6           0      -10.259078   -0.545039   -0.435716
     30          6           0       -8.782262   -0.802308   -0.352000
     31          6           0      -11.065534    1.160194    1.497707
     32          6           0      -10.894904   -0.676270   -1.882166
     33          6           0      -12.433308   -1.000135   -1.892103
     34          7           0       -5.953339   -1.714668   -0.482420
     35          6           0       -7.033246   -2.544413   -0.609143
     36          6           0       -6.568428   -3.873763   -0.768870
     37          6           0       -5.189146   -3.848703   -0.619342
     38          6           0       -4.871136   -2.474489   -0.489980
     39          6           0       -7.386863   -5.095281   -0.906955
     40          6           0       -3.971613   -4.606036   -0.588908
     41          8           0       -3.783652   -5.832924   -0.687992
     42          6           0       -2.772158   -3.565633   -0.562434
     43          6           0       -1.832458   -3.960307    0.419311
     44          8           0       -1.867666   -3.609293    1.618622
     45          8           0       -0.937237   -4.806570   -0.152295
     46          6           0        0.020702   -5.305403    0.854217
     47          6           0        4.196669   -0.573957    0.443160
     48          6           0        5.573441   -0.401596   -0.206773
     49          6           0        6.768350    0.008085    0.289699
     50          6           0        7.223905    0.278078    1.751697
     51          6           0        7.941213    0.178039   -0.743161
     52          6           0        8.212240    1.643622   -1.239665
     53          6           0        8.494271    1.683967   -2.760886
     54          6           0        9.919160    2.290056   -3.124550
     55          6           0        9.896475    3.257664   -4.239890
     56          6           0       10.994014    1.224868   -3.429712
     57          6           0       12.339809    1.551289   -2.738954
     58          6           0       12.621539    0.509112   -1.713440
     59          6           0       13.683304    0.980520   -0.696714
     60          6           0       14.977663    0.217201   -0.569529
     61          6           0       13.068690    1.239291    0.715907
     62          6           0       12.930202    0.018768    1.679045
     63          6           0       11.565498   -0.248655    2.370866
     64          6           0       11.602889   -1.475666    3.289117
     65          6           0       10.374798   -2.283136    3.056441
     66          6           0       11.630386   -1.106098    4.770941
     67          1           0       -2.701647    3.303485    0.855483
     68          1           0       -9.032512    3.492328    0.428694
     69          1           0       -9.147230   -2.875158   -0.601534
     70          1           0       -1.041454   -1.221512    0.916856
     71          1           0       -1.012962    1.589661   -0.118605
     72          1           0       -1.754056    1.984753    2.459961
     73          1           0       -0.022768    1.703748    1.937464
     74          1           0       -0.939870    0.358449    2.497662
     75          1           0       -0.330618    0.127076   -1.714289
     76          1           0       -1.152748   -1.381030   -1.834493
     77          1           0        1.188902   -1.903172   -1.854285
     78          1           0        0.480904   -2.487291   -0.388919
     79          1           0       -4.130963    6.300315   -0.063615
     80          1           0       -3.163734    5.329783    1.085997
     81          1           0       -4.319380    6.285971    1.600008
     82          1           0       -6.285939    7.161807    2.060720
     83          1           0       -7.682066    7.812448    1.113010
     84          1           0       -6.206136    7.303448    0.329507
     85          1           0      -10.701690    1.507316   -0.691758
     86          1           0      -10.827348   -1.187720    0.236699
     87          1           0      -11.725327    0.368868    1.852540
     88          1           0      -11.708026    1.999020    1.230417
     89          1           0      -10.369769    1.538220    2.247216
     90          1           0      -10.505414   -1.499047   -2.481090
     91          1           0      -10.688749    0.256428   -2.406582
     92          1           0      -12.943673   -0.288239   -2.541471
     93          1           0      -13.002818   -0.869821   -0.972186
     94          1           0      -12.600750   -1.993425   -2.310150
     95          1           0       -8.107482   -5.260742   -0.105483
     96          1           0       -6.767404   -5.983514   -1.031774
     97          1           0       -8.045516   -4.953610   -1.763953
     98          1           0       -2.189874   -3.537261   -1.482973
     99          1           0       -0.542876   -5.761945    1.667487
    100          1           0        0.656123   -4.515325    1.254429
    101          1           0        0.624373   -6.077006    0.374513
    102          1           0        4.418318   -1.373310    1.150216
    103          1           0        3.977029    0.359160    0.962217
    104          1           0        5.541727   -0.489206   -1.292201
    105          1           0        7.637088    1.283881    1.829292
    106          1           0        8.081061   -0.371618    1.928307
    107          1           0        6.534730    0.128986    2.582380
    108          1           0        7.605838   -0.570785   -1.460891
    109          1           0        8.871787   -0.137068   -0.270415
    110          1           0        9.078986    1.953939   -0.656191
    111          1           0        7.500470    2.406826   -0.923301
    112          1           0        7.836909    2.445437   -3.180967
    113          1           0        8.315626    0.734534   -3.266660
    114          1           0       10.147646    2.949610   -2.287127
    115          1           0       10.697125    3.176804   -4.974863
    116          1           0       10.104704    4.246034   -3.829408
    117          1           0        8.971914    3.256070   -4.815953
    118          1           0       11.261671    1.209562   -4.486765
    119          1           0       10.617467    0.240718   -3.149515
    120          1           0       12.312919    2.540306   -2.281277
    121          1           0       13.138671    1.565736   -3.480119
    122          1           0       12.929852   -0.447353   -2.136852
    123          1           0       11.762105    0.343259   -1.065286
    124          1           0       14.009879    2.006919   -0.866277
    125          1           0       15.441893    0.386130    0.402334
    126          1           0       15.623674    0.825794   -1.202354
    127          1           0       15.022745   -0.803699   -0.948576
    128          1           0       12.064692    1.662599    0.721526
    129          1           0       13.736815    1.981635    1.151516
    130          1           0       13.656631    0.058432    2.491524
    131          1           0       13.233652   -0.857822    1.108069
    132          1           0       10.918220   -0.460425    1.520194
    133          1           0       11.209024    0.672938    2.831189
    134          1           0       12.455452   -2.084872    2.988467
    135          1           0        9.875603   -2.197756    2.092338
    136          1           0        9.585129   -2.128031    3.791495
    137          1           0       10.544815   -3.325983    3.324258
    138          1           0       10.897483   -1.530023    5.457493
    139          1           0       11.688250   -0.019846    4.834773
    140          1           0       12.576669   -1.443543    5.193936
 ---------------------------------------------------------------------

 SCF Done:  E(RwB97XD) =  -3007.85185829     A.U. after   20 cycles

 Excitation energies and oscillator strengths:

 Excited State   1:      Singlet-A      1.6224 eV  764.22 nm  f=0.3962  <S**2>=0.000
     245 -> 248        0.18281
     246 -> 247        0.68380
     245 <- 248        0.11672
 This state for optimization and/or second-order correction.
 Total Energy, E(TD-HF/TD-DFT) =  -3007.79223768
 Copying the excited state density for this state as the 1-particle RhoCI density.

 Excited State   2:      Singlet-A      2.1406 eV  579.20 nm  f=0.1221  <S**2>=0.000
     245 -> 247        0.64314
     246 -> 248       -0.27816

 Excited State   3:      Singlet-A      3.3964 eV  365.04 nm  f=0.0143  <S**2>=0.000
     242 -> 247       -0.36388
     243 -> 247        0.56894
     246 -> 248       -0.14121

 Excited State   4:      Singlet-A      3.5123 eV  353.00 nm  f=0.2270  <S**2>=0.000
     242 -> 247        0.34494
     243 -> 247        0.33894
     245 -> 247        0.15446
     246 -> 248        0.45486

 Excited State   5:      Singlet-A      3.5500 eV  349.25 nm  f=0.0509  <S**2>=0.000
     240 -> 247        0.39976
     240 -> 249        0.26478
     240 -> 250       -0.14118
     241 -> 247       -0.33182
     241 -> 249       -0.20800
     241 -> 250        0.11123
     246 -> 248        0.17468

 The electronic state is 1-A.
 Alpha  occ. eigenvalues --  -46.94481 -19.31015 -19.30588 -19.24776 -19.24280
 Alpha  occ. eigenvalues --  -19.24050 -19.23598 -14.46844 -14.46462 -14.43925
 Alpha  occ. eigenvalues --  -14.43574 -10.43697 -10.42559 -10.39498 -10.38641
 Alpha  occ. eigenvalues --  -10.36824 -10.35545 -10.35541 -10.35167 -10.34365
 Alpha  occ. eigenvalues --  -10.34312 -10.34190 -10.33828 -10.33162 -10.32838
 Alpha  occ. eigenvalues --  -10.32472 -10.32433 -10.32100 -10.32039 -10.31972
 Alpha  occ. eigenvalues --  -10.31946 -10.31765 -10.31585 -10.31523 -10.31266
 Alpha  occ. eigenvalues --  -10.31214 -10.31022 -10.31020 -10.30958 -10.30778
 Alpha  occ. eigenvalues --  -10.30459 -10.30401 -10.30181 -10.30139 -10.29939
 Alpha  occ. eigenvalues --  -10.29802 -10.29745 -10.29596 -10.29499 -10.29362
 Alpha  occ. eigenvalues --  -10.29253 -10.29212 -10.29187 -10.29041 -10.28741
 Alpha  occ. eigenvalues --  -10.28692 -10.28547 -10.28529 -10.28510 -10.28469
 Alpha  occ. eigenvalues --  -10.28436 -10.28354 -10.28275 -10.28149 -10.27737
 Alpha  occ. eigenvalues --  -10.27648  -3.20564  -1.94162  -1.93673  -1.93559
 Alpha  occ. eigenvalues --   -1.18759  -1.16911  -1.12543  -1.10822  -1.08959
 Alpha  occ. eigenvalues --   -1.08404  -1.06636  -1.05730  -1.05053  -1.04245
 Alpha  occ. eigenvalues --   -0.94932  -0.92420  -0.91571  -0.91113  -0.90979
 Alpha  occ. eigenvalues --   -0.90713  -0.89971  -0.89795  -0.89219  -0.88871
 Alpha  occ. eigenvalues --   -0.88703  -0.87004  -0.86529  -0.85891  -0.85104
 Alpha  occ. eigenvalues --   -0.84505  -0.83963  -0.83408  -0.83002  -0.82406
 Alpha  occ. eigenvalues --   -0.82079  -0.80698  -0.79709  -0.79511  -0.78013
 Alpha  occ. eigenvalues --   -0.77674  -0.77496  -0.77047  -0.77004  -0.76232
 Alpha  occ. eigenvalues --   -0.75056  -0.74523  -0.73577  -0.72646  -0.71169
 Alpha  occ. eigenvalues --   -0.71130  -0.70237  -0.69841  -0.69036  -0.67642
 Alpha  occ. eigenvalues --   -0.67439  -0.67214  -0.67020  -0.66351  -0.65747
 Alpha  occ. eigenvalues --   -0.65520  -0.64744  -0.63927  -0.63085  -0.63047
 Alpha  occ. eigenvalues --   -0.61763  -0.61316  -0.61069  -0.60367  -0.60037
 Alpha  occ. eigenvalues --   -0.59796  -0.58466  -0.58037  -0.57706  -0.56976
 Alpha  occ. eigenvalues --   -0.56858  -0.56500  -0.56295  -0.56164  -0.55893
 Alpha  occ. eigenvalues --   -0.55833  -0.55362  -0.55032  -0.54933  -0.54886
 Alpha  occ. eigenvalues --   -0.54850  -0.54417  -0.54194  -0.54023  -0.53884
 Alpha  occ. eigenvalues --   -0.53737  -0.53048  -0.52977  -0.52621  -0.52500
 Alpha  occ. eigenvalues --   -0.52254  -0.51989  -0.51883  -0.51700  -0.51401
 Alpha  occ. eigenvalues --   -0.51334  -0.51181  -0.51051  -0.50900  -0.50657
 Alpha  occ. eigenvalues --   -0.50318  -0.50119  -0.49941  -0.49531  -0.49351
 Alpha  occ. eigenvalues --   -0.49226  -0.48969  -0.48906  -0.48711  -0.48556
 Alpha  occ. eigenvalues --   -0.48291  -0.48108  -0.48006  -0.47921  -0.47593
 Alpha  occ. eigenvalues --   -0.47334  -0.47277  -0.47187  -0.46830  -0.46697
 Alpha  occ. eigenvalues --   -0.46370  -0.46290  -0.46215  -0.46046  -0.45933
 Alpha  occ. eigenvalues --   -0.45876  -0.45575  -0.45488  -0.45133  -0.44979
 Alpha  occ. eigenvalues --   -0.44645  -0.44535  -0.44493  -0.44201  -0.43979
 Alpha  occ. eigenvalues --   -0.43891  -0.43646  -0.43500  -0.43146  -0.43005
 Alpha  occ. eigenvalues --   -0.42634  -0.42483  -0.42337  -0.42158  -0.41901
 Alpha  occ. eigenvalues --   -0.41396  -0.41240  -0.41162  -0.40769  -0.40647
 Alpha  occ. eigenvalues --   -0.39838  -0.39627  -0.39498  -0.39427  -0.39275
 Alpha  occ. eigenvalues --   -0.39167  -0.39040  -0.38925  -0.38839  -0.38417
 Alpha  occ. eigenvalues --   -0.38024  -0.37440  -0.36583  -0.36224  -0.36043
 Alpha  occ. eigenvalues --   -0.35722  -0.35485  -0.35461  -0.33414  -0.32959
 Alpha  occ. eigenvalues --   -0.32777  -0.32383  -0.31966  -0.31895  -0.25945
 Alpha  occ. eigenvalues --   -0.23000
 Alpha virt. eigenvalues --   -0.07292   0.00157   0.02130   0.04166   0.06261
 Alpha virt. eigenvalues --    0.06356   0.07017   0.08001   0.08404   0.09556
 Alpha virt. eigenvalues --    0.10216   0.10282   0.11482   0.12324   0.12560

 Mulliken charges:
               1
     1  Mg   0.978828
     2  C    0.011457
     3  C   -0.085962
     4  C   -0.084252
     5  C   -0.111682
     6  N   -0.339601
     7  C    0.026737
     8  C   -0.080322
     9  C   -0.100885
    10  C    0.064760
    11  C    0.025397
    12  C    0.036029
    13  C   -0.024051
    14  C    0.239262
    15  O   -0.287876
    16  O   -0.392667
    17  N   -0.512786
    18  C    0.172797
    19  C   -0.125355
    20  C   -0.044281
    21  C    0.142491
    22  C    0.038776
    23  C    0.041122
    24  O   -0.234055
    25  C   -0.016633
    26  N   -0.410724
    27  C    0.084886
    28  C   -0.072766
    29  C   -0.085595
    30  C    0.100149
    31  C    0.023003
    32  C   -0.016502
    33  C   -0.068744
    34  N   -0.366417
    35  C    0.144136
    36  C   -0.198707
    37  C    0.005850
    38  C    0.069496
    39  C    0.079172
    40  C    0.121747
    41  O   -0.223439
    42  C   -0.043761
    43  C    0.221823
    44  O   -0.275683
    45  O   -0.349619
    46  C    0.141399
    47  C    0.263591
    48  C   -0.171305
    49  C   -0.198726
    50  C    0.035267
    51  C   -0.017970
    52  C   -0.003631
    53  C    0.025781
    54  C   -0.206174
    55  C    0.010211
    56  C    0.039846
    57  C   -0.033575
    58  C    0.057633
    59  C   -0.195165
    60  C    0.021086
    61  C   -0.014558
    62  C   -0.076242
    63  C    0.008915
    64  C   -0.177567
    65  C   -0.019160
    66  C    0.011633
    67  H   -0.008506
    68  H    0.021645
    69  H    0.002688
    70  H    0.071588
    71  H    0.032207
    72  H    0.039138
    73  H    0.037071
    74  H    0.049532
    75  H    0.043965
    76  H    0.029466
    77  H    0.055064
    78  H    0.052488
    79  H    0.055843
    80  H    0.034278
    81  H    0.023922
    82  H    0.055588
    83  H    0.055234
    84  H    0.042900
    85  H    0.036001
    86  H    0.032250
    87  H    0.047445
    88  H    0.039543
    89  H    0.053688
    90  H    0.036689
    91  H    0.034321
    92  H    0.032590
    93  H    0.034716
    94  H    0.044055
    95  H    0.043722
    96  H    0.062548
    97  H    0.029238
    98  H    0.075894
    99  H    0.064505
   100  H    0.060426
   101  H    0.055527
   102  H    0.064583
   103  H    0.068897
   104  H    0.032600
   105  H    0.036305
   106  H    0.031057
   107  H    0.039573
   108  H    0.037620
   109  H    0.026712
   110  H    0.016985
   111  H    0.029012
   112  H    0.010434
   113  H    0.029090
   114  H    0.014085
   115  H    0.015770
   116  H    0.017382
   117  H    0.028184
   118  H    0.018239
   119  H    0.018633
   120  H    0.020389
   121  H    0.019988
   122  H    0.018591
   123  H    0.006290
   124  H    0.013695
   125  H    0.021368
   126  H    0.016815
   127  H    0.038906
   128  H    0.005761
   129  H    0.014063
   130  H    0.012895
   131  H    0.016820
   132  H    0.004855
   133  H    0.023952
   134  H    0.029635
   135  H    0.033777
   136  H    0.014033
   137  H    0.018121
   138  H    0.038111
   139  H    0.023656
   140  H    0.019005
 Sum of Mulliken charges =  -0.00000

 Dipole moment (field-independent basis, Debye):
    X=              3.3359    Y=              3.5340    Z=             -2.2773  Tot=              5.3669
 Quadrupole moment (field-independent basis, Debye-Ang):
   XX=           -351.6049   YY=           -412.2336   ZZ=           -404.6696
   XY=             11.6061   XZ=             15.3026   YZ=             -0.0594

 Normal termination of Gaussian 16 at Thu May  5 12:30:44 2022.
