 Gaussian 16, Revision A.03,
 Gaussian 16:  ES64L-G16RevA.03 25-Dec-2016

 --------------------
 #p ZINDO=(nstates=5)
 --------------------

 -----------------------------
 step_851_chromophore_19 ZINDO
 -----------------------------
 Symbolic Z-matrix:
 Charge =  0 Multiplicity = 1

                         Standard orientation:
 ---------------------------------------------------------------------
 Center     Atomic      Atomic             Coordinates (Angstroms)
 Number     Number       Type             X           Y           Z
 ---------------------------------------------------------------------
      1         12           0       -5.972082    0.444185   -0.203998
      2          6           0       -3.470702   -2.249363   -0.369209
      3          6           0       -3.483774    2.594817    0.575003
      4          6           0       -8.300065    2.683419    0.399992
      5          6           0       -8.371208   -2.107548   -0.556472
      6          7           0       -3.668385    0.285591   -0.163592
      7          6           0       -2.934470   -0.931655   -0.153715
      8          6           0       -1.471624   -0.599044    0.131722
      9          6           0       -1.549029    0.919644    0.553017
     10          6           0       -3.001424    1.328173    0.327716
     11          6           0       -1.039768    1.314206    1.983902
     12          6           0       -0.595264   -0.757890   -1.136268
     13          6           0        0.746559   -1.570475   -0.915456
     14          6           0        1.784041   -1.032799    0.057718
     15          8           0        1.620817   -0.879141    1.277601
     16          8           0        3.046537   -0.970768   -0.513055
     17          7           0       -5.941490    2.354706    0.366937
     18          6           0       -4.806644    3.107824    0.628463
     19          6           0       -5.189232    4.478627    0.655869
     20          6           0       -6.627471    4.543174    0.697675
     21          6           0       -7.020754    3.188232    0.429788
     22          6           0       -4.171362    5.597151    0.767655
     23          6           0       -7.477922    5.715062    1.012841
     24          8           0       -8.697470    5.703212    1.000658
     25          6           0       -6.881776    7.073153    1.152200
     26          7           0       -7.988378    0.266256   -0.044435
     27          6           0       -8.780244    1.365955    0.188862
     28          6           0      -10.284333    0.930337    0.133506
     29          6           0      -10.259078   -0.545039   -0.435716
     30          6           0       -8.782262   -0.802308   -0.352000
     31          6           0      -11.065534    1.160194    1.497707
     32          6           0      -10.894904   -0.676270   -1.882166
     33          6           0      -12.433308   -1.000135   -1.892103
     34          7           0       -5.953339   -1.714668   -0.482420
     35          6           0       -7.033246   -2.544413   -0.609143
     36          6           0       -6.568428   -3.873763   -0.768870
     37          6           0       -5.189146   -3.848703   -0.619342
     38          6           0       -4.871136   -2.474489   -0.489980
     39          6           0       -7.386863   -5.095281   -0.906955
     40          6           0       -3.971613   -4.606036   -0.588908
     41          8           0       -3.783652   -5.832924   -0.687992
     42          6           0       -2.772158   -3.565633   -0.562434
     43          6           0       -1.832458   -3.960307    0.419311
     44          8           0       -1.867666   -3.609293    1.618622
     45          8           0       -0.937237   -4.806570   -0.152295
     46          6           0        0.020702   -5.305403    0.854217
     47          6           0        4.196669   -0.573957    0.443160
     48          6           0        5.573441   -0.401596   -0.206773
     49          6           0        6.768350    0.008085    0.289699
     50          6           0        7.223905    0.278078    1.751697
     51          6           0        7.941213    0.178039   -0.743161
     52          6           0        8.212240    1.643622   -1.239665
     53          6           0        8.494271    1.683967   -2.760886
     54          6           0        9.919160    2.290056   -3.124550
     55          6           0        9.896475    3.257664   -4.239890
     56          6           0       10.994014    1.224868   -3.429712
     57          6           0       12.339809    1.551289   -2.738954
     58          6           0       12.621539    0.509112   -1.713440
     59          6           0       13.683304    0.980520   -0.696714
     60          6           0       14.977663    0.217201   -0.569529
     61          6           0       13.068690    1.239291    0.715907
     62          6           0       12.930202    0.018768    1.679045
     63          6           0       11.565498   -0.248655    2.370866
     64          6           0       11.602889   -1.475666    3.289117
     65          6           0       10.374798   -2.283136    3.056441
     66          6           0       11.630386   -1.106098    4.770941
     67          1           0       -2.701647    3.303485    0.855483
     68          1           0       -9.032512    3.492328    0.428694
     69          1           0       -9.147230   -2.875158   -0.601534
     70          1           0       -1.041454   -1.221512    0.916856
     71          1           0       -1.012962    1.589661   -0.118605
     72          1           0       -1.754056    1.984753    2.459961
     73          1           0       -0.022768    1.703748    1.937464
     74          1           0       -0.939870    0.358449    2.497662
     75          1           0       -0.330618    0.127076   -1.714289
     76          1           0       -1.152748   -1.381030   -1.834493
     77          1           0        1.188902   -1.903172   -1.854285
     78          1           0        0.480904   -2.487291   -0.388919
     79          1           0       -4.130963    6.300315   -0.063615
     80          1           0       -3.163734    5.329783    1.085997
     81          1           0       -4.319380    6.285971    1.600008
     82          1           0       -6.285939    7.161807    2.060720
     83          1           0       -7.682066    7.812448    1.113010
     84          1           0       -6.206136    7.303448    0.329507
     85          1           0      -10.701690    1.507316   -0.691758
     86          1           0      -10.827348   -1.187720    0.236699
     87          1           0      -11.725327    0.368868    1.852540
     88          1           0      -11.708026    1.999020    1.230417
     89          1           0      -10.369769    1.538220    2.247216
     90          1           0      -10.505414   -1.499047   -2.481090
     91          1           0      -10.688749    0.256428   -2.406582
     92          1           0      -12.943673   -0.288239   -2.541471
     93          1           0      -13.002818   -0.869821   -0.972186
     94          1           0      -12.600750   -1.993425   -2.310150
     95          1           0       -8.107482   -5.260742   -0.105483
     96          1           0       -6.767404   -5.983514   -1.031774
     97          1           0       -8.045516   -4.953610   -1.763953
     98          1           0       -2.189874   -3.537261   -1.482973
     99          1           0       -0.542876   -5.761945    1.667487
    100          1           0        0.656123   -4.515325    1.254429
    101          1           0        0.624373   -6.077006    0.374513
    102          1           0        4.418318   -1.373310    1.150216
    103          1           0        3.977029    0.359160    0.962217
    104          1           0        5.541727   -0.489206   -1.292201
    105          1           0        7.637088    1.283881    1.829292
    106          1           0        8.081061   -0.371618    1.928307
    107          1           0        6.534730    0.128986    2.582380
    108          1           0        7.605838   -0.570785   -1.460891
    109          1           0        8.871787   -0.137068   -0.270415
    110          1           0        9.078986    1.953939   -0.656191
    111          1           0        7.500470    2.406826   -0.923301
    112          1           0        7.836909    2.445437   -3.180967
    113          1           0        8.315626    0.734534   -3.266660
    114          1           0       10.147646    2.949610   -2.287127
    115          1           0       10.697125    3.176804   -4.974863
    116          1           0       10.104704    4.246034   -3.829408
    117          1           0        8.971914    3.256070   -4.815953
    118          1           0       11.261671    1.209562   -4.486765
    119          1           0       10.617467    0.240718   -3.149515
    120          1           0       12.312919    2.540306   -2.281277
    121          1           0       13.138671    1.565736   -3.480119
    122          1           0       12.929852   -0.447353   -2.136852
    123          1           0       11.762105    0.343259   -1.065286
    124          1           0       14.009879    2.006919   -0.866277
    125          1           0       15.441893    0.386130    0.402334
    126          1           0       15.623674    0.825794   -1.202354
    127          1           0       15.022745   -0.803699   -0.948576
    128          1           0       12.064692    1.662599    0.721526
    129          1           0       13.736815    1.981635    1.151516
    130          1           0       13.656631    0.058432    2.491524
    131          1           0       13.233652   -0.857822    1.108069
    132          1           0       10.918220   -0.460425    1.520194
    133          1           0       11.209024    0.672938    2.831189
    134          1           0       12.455452   -2.084872    2.988467
    135          1           0        9.875603   -2.197756    2.092338
    136          1           0        9.585129   -2.128031    3.791495
    137          1           0       10.544815   -3.325983    3.324258
    138          1           0       10.897483   -1.530023    5.457493
    139          1           0       11.688250   -0.019846    4.834773
    140          1           0       12.576669   -1.443543    5.193936
 ---------------------------------------------------------------------

 SCF Done:  E(RZINDO/S) =  -474.350324560     A.U. after   19 cycles

 Excitation energies and oscillator strengths:

 Excited State   1:      Singlet-A      1.2253 eV 1011.85 nm  f=0.6277  <S**2>=0.000
     175 ->178         0.18722
     176 ->177         0.66388
 This state for optimization and/or second-order correction.
 Total Energy, E(CIS/TDA) =  -474.305294830
 Copying the excited state density for this state as the 1-particle RhoCI density.

 Excited State   2:      Singlet-A      1.9146 eV  647.56 nm  f=0.0718  <S**2>=0.000
     175 ->177         0.56295
     176 ->178        -0.40166

 Excited State   3:      Singlet-A      2.8397 eV  436.62 nm  f=0.0011  <S**2>=0.000
     168 ->177        -0.17636
     168 ->179         0.18379
     168 ->180         0.18752
     168 ->186         0.11478
     169 ->177         0.27029
     169 ->178        -0.14351
     169 ->179        -0.27880
     169 ->180        -0.28214
     169 ->186        -0.17391
     169 ->187         0.12899

 Excited State   4:      Singlet-A      2.9417 eV  421.48 nm  f=0.0752  <S**2>=0.000
     168 ->177         0.13478
     168 ->179         0.19675
     168 ->180        -0.11460
     170 ->177         0.11910
     170 ->179         0.14511
     170 ->180        -0.12045
     175 ->177        -0.10717
     176 ->178        -0.16103
     176 ->179         0.46615

 Excited State   5:      Singlet-A      3.0164 eV  411.04 nm  f=0.3159  <S**2>=0.000
     168 ->177         0.18643
     168 ->179         0.23324
     168 ->180        -0.16961
     168 ->186         0.10595
     169 ->177         0.10923
     169 ->179         0.14996
     170 ->179         0.11440
     175 ->177         0.19479
     176 ->178         0.28661
     176 ->179        -0.30760

 The electronic state is 1-A.
 Alpha  occ. eigenvalues --   -1.85028  -1.82423  -1.79559  -1.74455  -1.71666
 Alpha  occ. eigenvalues --   -1.68198  -1.66845  -1.61394  -1.60765  -1.57834
 Alpha  occ. eigenvalues --   -1.56588  -1.51098  -1.48778  -1.47279  -1.45691
 Alpha  occ. eigenvalues --   -1.42689  -1.41101  -1.40218  -1.39492  -1.38089
 Alpha  occ. eigenvalues --   -1.35565  -1.34338  -1.32689  -1.31831  -1.29330
 Alpha  occ. eigenvalues --   -1.28553  -1.25431  -1.22592  -1.21035  -1.19958
 Alpha  occ. eigenvalues --   -1.17794  -1.16010  -1.15395  -1.14327  -1.13974
 Alpha  occ. eigenvalues --   -1.13183  -1.11424  -1.11271  -1.04653  -1.03246
 Alpha  occ. eigenvalues --   -1.02798  -1.00878  -0.99116  -0.97853  -0.97479
 Alpha  occ. eigenvalues --   -0.96095  -0.95659  -0.95022  -0.93643  -0.91749
 Alpha  occ. eigenvalues --   -0.91043  -0.90944  -0.89988  -0.88443  -0.86792
 Alpha  occ. eigenvalues --   -0.83887  -0.83232  -0.82897  -0.82273  -0.80602
 Alpha  occ. eigenvalues --   -0.79616  -0.78621  -0.76748  -0.76638  -0.75839
 Alpha  occ. eigenvalues --   -0.75740  -0.75090  -0.74463  -0.73654  -0.73407
 Alpha  occ. eigenvalues --   -0.72819  -0.71700  -0.71543  -0.71171  -0.70889
 Alpha  occ. eigenvalues --   -0.69614  -0.69443  -0.69341  -0.68457  -0.68143
 Alpha  occ. eigenvalues --   -0.67356  -0.66870  -0.66494  -0.66132  -0.65717
 Alpha  occ. eigenvalues --   -0.65409  -0.65084  -0.64344  -0.64267  -0.63725
 Alpha  occ. eigenvalues --   -0.63218  -0.62890  -0.62622  -0.61857  -0.61483
 Alpha  occ. eigenvalues --   -0.61206  -0.60777  -0.60402  -0.60120  -0.59950
 Alpha  occ. eigenvalues --   -0.59450  -0.59011  -0.58840  -0.58669  -0.58609
 Alpha  occ. eigenvalues --   -0.58026  -0.57424  -0.57065  -0.56507  -0.56198
 Alpha  occ. eigenvalues --   -0.56029  -0.55910  -0.55825  -0.55039  -0.54765
 Alpha  occ. eigenvalues --   -0.54659  -0.54411  -0.53755  -0.53009  -0.52583
 Alpha  occ. eigenvalues --   -0.52556  -0.52374  -0.52089  -0.51868  -0.51395
 Alpha  occ. eigenvalues --   -0.51326  -0.50951  -0.50851  -0.50620  -0.50212
 Alpha  occ. eigenvalues --   -0.49897  -0.49486  -0.49295  -0.49091  -0.48765
 Alpha  occ. eigenvalues --   -0.48323  -0.48168  -0.47885  -0.47831  -0.47639
 Alpha  occ. eigenvalues --   -0.47290  -0.47176  -0.46659  -0.46531  -0.46358
 Alpha  occ. eigenvalues --   -0.45953  -0.45815  -0.45499  -0.45359  -0.45153
 Alpha  occ. eigenvalues --   -0.44965  -0.44845  -0.44556  -0.44429  -0.43552
 Alpha  occ. eigenvalues --   -0.42887  -0.42837  -0.42287  -0.42124  -0.42032
 Alpha  occ. eigenvalues --   -0.41839  -0.41325  -0.41151  -0.38886  -0.38826
 Alpha  occ. eigenvalues --   -0.37997  -0.36777  -0.35325  -0.35158  -0.34859
 Alpha  occ. eigenvalues --   -0.33320  -0.32629  -0.32236  -0.32183  -0.26657
 Alpha  occ. eigenvalues --   -0.21879
 Alpha virt. eigenvalues --   -0.08835  -0.02024  -0.00853   0.01048   0.01339
 Alpha virt. eigenvalues --    0.02524   0.02764   0.03056   0.04673   0.04732
 Alpha virt. eigenvalues --    0.06252   0.06808   0.07480   0.07816   0.08134

 Mulliken charges:
               1
     1  Mg   0.426182
     2  C   -0.044071
     3  C   -0.081916
     4  C   -0.062205
     5  C   -0.065151
     6  N   -0.292050
     7  C    0.108130
     8  C    0.016851
     9  C   -0.001912
    10  C    0.162520
    11  C   -0.056529
    12  C   -0.018318
    13  C    0.001038
    14  C    0.468020
    15  O   -0.525368
    16  O   -0.277581
    17  N   -0.334242
    18  C    0.115039
    19  C    0.018338
    20  C   -0.042548
    21  C    0.151269
    22  C   -0.053568
    23  C    0.333274
    24  O   -0.523768
    25  C   -0.028458
    26  N   -0.259659
    27  C    0.140035
    28  C   -0.001919
    29  C   -0.002737
    30  C    0.117569
    31  C   -0.053310
    32  C   -0.028939
    33  C   -0.063859
    34  N   -0.315361
    35  C    0.085709
    36  C    0.037694
    37  C   -0.061416
    38  C    0.116245
    39  C   -0.040541
    40  C    0.338396
    41  O   -0.530251
    42  C    0.067041
    43  C    0.497435
    44  O   -0.546821
    45  O   -0.258819
    46  C    0.073938
    47  C    0.103131
    48  C   -0.084242
    49  C   -0.021954
    50  C   -0.045140
    51  C   -0.032573
    52  C   -0.028547
    53  C   -0.038710
    54  C   -0.011886
    55  C   -0.053211
    56  C   -0.034370
    57  C   -0.028945
    58  C   -0.023629
    59  C   -0.015919
    60  C   -0.057471
    61  C   -0.041216
    62  C   -0.045112
    63  C   -0.032827
    64  C    0.005170
    65  C   -0.057944
    66  C   -0.055996
    67  H    0.021549
    68  H    0.041425
    69  H    0.029903
    70  H    0.058736
    71  H    0.026018
    72  H    0.030053
    73  H    0.024924
    74  H    0.030103
    75  H    0.031385
    76  H    0.013618
    77  H    0.035837
    78  H    0.046206
    79  H    0.034638
    80  H    0.024880
    81  H    0.018285
    82  H    0.036621
    83  H    0.036566
    84  H    0.029752
    85  H    0.030738
    86  H    0.032061
    87  H    0.033296
    88  H    0.016703
    89  H    0.032336
    90  H    0.024048
    91  H    0.025506
    92  H    0.012072
    93  H    0.023557
    94  H    0.021887
    95  H    0.029259
    96  H    0.035099
    97  H    0.020798
    98  H    0.057280
    99  H    0.050106
   100  H    0.046590
   101  H    0.028078
   102  H    0.055095
   103  H    0.057094
   104  H    0.027609
   105  H    0.025796
   106  H    0.024395
   107  H    0.026678
   108  H    0.031075
   109  H    0.021036
   110  H    0.014655
   111  H    0.026985
   112  H    0.013231
   113  H    0.029922
   114  H    0.022840
   115  H    0.012143
   116  H    0.009029
   117  H    0.018158
   118  H    0.018513
   119  H    0.018474
   120  H    0.023184
   121  H    0.016713
   122  H    0.022177
   123  H    0.020038
   124  H    0.012707
   125  H    0.023099
   126  H    0.004086
   127  H    0.029854
   128  H    0.013799
   129  H    0.010740
   130  H    0.011152
   131  H    0.014467
   132  H    0.010906
   133  H    0.024733
   134  H    0.026686
   135  H    0.018875
   136  H    0.010265
   137  H    0.007874
   138  H    0.029432
   139  H    0.018775
   140  H    0.005783
 Sum of Mulliken charges =  -0.00000

 Dipole moment (field-independent basis, Debye):
    X=              3.9500    Y=              6.0604    Z=             -3.6598  Tot=              8.1071
 N-N= 4.273198956624D+03 E-N= 0.000000000000D+00  KE=-9.220922614372D+03
 Leave Link  601 at Thu May  5 12:51:32 2022, MaxMem=  6710886400 cpu:               1.1 elap:               0.1
 (Enter /sw/apps/gaussian-16.0/g16/l9999.exe)
 1\1\GINC-BP1-COMPUTE166\SP\RZINDO CIS\STO-3G\C55H74Mg1N4O6\OF15641\05-
 May-2022\0\\#p ZINDO=(nstates=5)\\step_851_chromophore_19 ZINDO\\0,1\M
 g,0,25.932,50.453,26.785\C,0,23.613,51.456,29.46\C,0,28.172,49.589,29.
 164\C,0,28.116,50.038,24.365\C,0,23.594,51.877,24.572\N,0,25.838,50.26
 6,29.085\C,0,24.834,50.842,29.91\C,0,25.279,50.701,31.364\C,0,26.777,5
 0.229,31.212\C,0,26.983,50.013,29.716\C,0,27.9,51.128,31.839\C,0,24.45
 2,49.623,32.109\C,0,23.906,50.071,33.527\C,0,24.899,50.443,34.617\O,0,

 Normal termination of Gaussian 16 at Thu May  5 12:51:32 2022.
