 Gaussian 16, Revision A.03,
 Gaussian 16:  ES64L-G16RevA.03 25-Dec-2016

 ------------------------------
 #p blyp/Def2SVP td=(nstates=5)
 ------------------------------

 -------------------------------------------------
 step_801_chromophore_9 TDDFT with blyp functional
 -------------------------------------------------
 Symbolic Z-matrix:
 Charge =  0 Multiplicity = 1

                         Standard orientation:
 ---------------------------------------------------------------------
 Center     Atomic      Atomic             Coordinates (Angstroms)
 Number     Number       Type             X           Y           Z
 ---------------------------------------------------------------------
      1         12           0       -5.217661    0.778759   -0.029712
      2          6           0       -4.016831   -2.483537   -0.003990
      3          6           0       -1.980701    1.942488   -0.217140
      4          6           0       -6.335666    3.917986    0.006301
      5          6           0       -8.297460   -0.495577    0.676186
      6          7           0       -3.209976   -0.201423   -0.245855
      7          6           0       -2.971871   -1.572516   -0.216757
      8          6           0       -1.529359   -1.810651   -0.219167
      9          6           0       -0.903163   -0.408353    0.016770
     10          6           0       -2.097810    0.539739   -0.123895
     11          6           0       -0.120729   -0.228851    1.278503
     12          6           0       -1.054787   -2.539383   -1.538403
     13          6           0        0.090644   -3.567724   -1.401458
     14          6           0        1.214423   -3.489087   -0.411019
     15          8           0        1.142007   -3.795372    0.781513
     16          8           0        2.292772   -2.737854   -0.877614
     17          7           0       -4.304331    2.696025   -0.228472
     18          6           0       -2.954217    2.907746   -0.384366
     19          6           0       -2.725654    4.395597   -0.643915
     20          6           0       -4.020387    5.008109   -0.469629
     21          6           0       -4.957302    3.861740   -0.281898
     22          6           0       -1.330953    4.981735   -0.847370
     23          6           0       -4.352401    6.536275   -0.516226
     24          8           0       -5.437888    6.995273   -0.258900
     25          6           0       -3.190483    7.487528   -0.919514
     26          7           0       -7.059691    1.568313    0.117805
     27          6           0       -7.301034    2.895397    0.194337
     28          6           0       -8.803552    3.231982    0.345837
     29          6           0       -9.433218    1.809379    0.413138
     30          6           0       -8.162095    0.866917    0.393711
     31          6           0       -9.188819    4.166005    1.544783
     32          6           0      -10.492261    1.598274   -0.683096
     33          6           0      -10.209757    0.743674   -1.930413
     34          7           0       -6.026278   -1.069789    0.346907
     35          6           0       -7.323942   -1.444770    0.619470
     36          6           0       -7.487381   -2.898435    0.647698
     37          6           0       -6.157798   -3.321329    0.449817
     38          6           0       -5.368825   -2.223137    0.297907
     39          6           0       -8.690597   -3.605067    0.791872
     40          6           0       -5.313202   -4.498321    0.385493
     41          8           0       -5.666778   -5.653595    0.601936
     42          6           0       -3.915238   -4.014641    0.103420
     43          6           0       -2.946328   -4.523329    1.131604
     44          8           0       -3.012957   -4.214321    2.281251
     45          8           0       -2.137295   -5.518541    0.587407
     46          6           0       -1.295465   -6.214064    1.571439
     47          6           0        3.406073   -2.556235    0.099261
     48          6           0        4.615426   -1.874665   -0.553093
     49          6           0        5.744667   -2.521868   -1.121685
     50          6           0        5.792370   -4.022594   -1.215747
     51          6           0        7.094689   -1.807488   -1.442965
     52          6           0        7.141474   -1.204260   -2.834377
     53          6           0        8.553194   -1.196848   -3.418783
     54          6           0        9.037176    0.067024   -4.073051
     55          6           0        9.405177   -0.085303   -5.580141
     56          6           0       10.244990    0.711682   -3.333770
     57          6           0        9.814348    1.402045   -2.069067
     58          6           0       10.695924    1.006912   -0.834070
     59          6           0       11.389115    2.196015   -0.083342
     60          6           0       12.681266    2.694057   -0.867115
     61          6           0       11.824628    1.834015    1.388376
     62          6           0       10.876404    2.493070    2.488555
     63          6           0       10.381757    1.437407    3.501437
     64          6           0       11.119669    1.500304    4.859555
     65          6           0       11.431616    0.159733    5.523579
     66          6           0       10.410496    2.440479    5.893407
     67          1           0       -0.935778    2.234569   -0.338200
     68          1           0       -6.585795    4.980367    0.056110
     69          1           0       -9.305330   -0.882355    0.842342
     70          1           0       -1.304687   -2.567789    0.532320
     71          1           0       -0.175974   -0.243041   -0.778148
     72          1           0        0.919965    0.028231    1.081877
     73          1           0        0.054038   -1.097412    1.912209
     74          1           0       -0.590954    0.558631    1.867120
     75          1           0       -0.869361   -1.828258   -2.343379
     76          1           0       -1.886395   -3.161714   -1.867330
     77          1           0        0.519129   -3.549250   -2.403659
     78          1           0       -0.397166   -4.497927   -1.111168
     79          1           0       -1.320309    5.665303    0.000972
     80          1           0       -1.272774    5.573896   -1.760559
     81          1           0       -0.624891    4.174476   -0.650101
     82          1           0       -2.514018    7.562233   -0.068101
     83          1           0       -3.572913    8.487219   -1.123357
     84          1           0       -2.611664    7.160485   -1.783421
     85          1           0       -9.177436    3.654241   -0.586410
     86          1           0       -9.901826    1.625888    1.379638
     87          1           0       -8.344197    4.717361    1.957347
     88          1           0       -9.517437    3.639822    2.440590
     89          1           0       -9.875193    4.902037    1.126840
     90          1           0      -10.844526    2.591239   -0.959753
     91          1           0      -11.219679    0.987779   -0.146521
     92          1           0      -10.951196   -0.052167   -1.855063
     93          1           0       -9.174016    0.412371   -2.002587
     94          1           0      -10.397556    1.163133   -2.917964
     95          1           0       -9.472490   -3.215418    0.139553
     96          1           0       -9.167224   -3.570785    1.771975
     97          1           0       -8.391184   -4.608201    0.489407
     98          1           0       -3.522251   -4.522475   -0.777075
     99          1           0       -1.396057   -7.291181    1.437174
    100          1           0       -1.597905   -5.970085    2.590011
    101          1           0       -0.261164   -5.885639    1.473536
    102          1           0        3.769316   -3.460076    0.587578
    103          1           0        3.091530   -1.933002    0.936923
    104          1           0        4.669493   -0.789008   -0.479955
    105          1           0        6.002570   -4.226105   -2.265435
    106          1           0        4.871394   -4.543052   -0.950375
    107          1           0        6.607680   -4.395490   -0.595422
    108          1           0        7.890813   -2.500017   -1.169224
    109          1           0        7.230577   -0.984919   -0.742120
    110          1           0        6.900881   -0.143205   -2.763300
    111          1           0        6.384648   -1.716698   -3.427572
    112          1           0        8.616936   -2.029040   -4.119317
    113          1           0        9.280453   -1.343195   -2.619683
    114          1           0        8.212500    0.779841   -4.050839
    115          1           0        8.677019    0.394209   -6.233551
    116          1           0        9.484481   -1.140402   -5.845226
    117          1           0       10.332106    0.433595   -5.823923
    118          1           0       10.896324    1.397893   -3.876132
    119          1           0       10.980104   -0.076192   -3.168584
    120          1           0        8.774164    1.268122   -1.770949
    121          1           0        9.800738    2.478095   -2.243272
    122          1           0       11.445925    0.269359   -1.117981
    123          1           0       10.013418    0.664402   -0.056132
    124          1           0       10.724498    3.059747   -0.113892
    125          1           0       12.605875    3.770236   -1.017608
    126          1           0       12.936065    2.032815   -1.695500
    127          1           0       13.567648    2.620986   -0.237293
    128          1           0       12.771731    2.304324    1.655850
    129          1           0       11.846366    0.745310    1.417323
    130          1           0        9.997988    2.803051    1.924340
    131          1           0       11.299818    3.350485    3.011122
    132          1           0       10.324248    0.462241    3.017786
    133          1           0        9.310909    1.607160    3.608570
    134          1           0       12.101003    1.940720    4.682547
    135          1           0       11.223470   -0.647483    4.821719
    136          1           0       10.831792   -0.117883    6.389945
    137          1           0       12.508571    0.165505    5.692669
    138          1           0       11.265121    2.899162    6.389981
    139          1           0        9.653828    1.949631    6.505243
    140          1           0        9.941749    3.219870    5.292617
 ---------------------------------------------------------------------

 SCF Done:  E(RB-LYP) =  -3007.36523771     A.U. after   21 cycles

 Excitation energies and oscillator strengths:

 Excited State   1:      Singlet-A      1.8226 eV  680.26 nm  f=0.3094  <S**2>=0.000
     245 -> 248       -0.18989
     246 -> 247        0.68837
     246 <- 247       -0.14688
 This state for optimization and/or second-order correction.
 Total Energy, E(TD-HF/TD-DFT) =  -3007.29825796
 Copying the excited state density for this state as the 1-particle RhoCI density.

 Excited State   2:      Singlet-A      2.0431 eV  606.83 nm  f=0.0480  <S**2>=0.000
     245 -> 247        0.63010
     246 -> 248        0.27671

 Excited State   3:      Singlet-A      2.0547 eV  603.41 nm  f=0.0021  <S**2>=0.000
     244 -> 247        0.69938

 Excited State   4:      Singlet-A      2.3708 eV  522.97 nm  f=0.0002  <S**2>=0.000
     243 -> 247        0.70592

 Excited State   5:      Singlet-A      2.5618 eV  483.96 nm  f=0.0001  <S**2>=0.000
     241 -> 247        0.66855
     242 -> 247       -0.21636

 The electronic state is 1-A.
 Alpha  occ. eigenvalues --  -46.26342 -18.82327 -18.81890 -18.77671 -18.76721
 Alpha  occ. eigenvalues --  -18.76648 -18.75153 -14.03124 -14.02885 -14.00989
 Alpha  occ. eigenvalues --  -14.00092 -10.04651 -10.03402 -10.01011  -9.98934
 Alpha  occ. eigenvalues --   -9.98287  -9.96484  -9.96384  -9.96149  -9.96054
 Alpha  occ. eigenvalues --   -9.96042  -9.95881  -9.95638  -9.94893  -9.94574
 Alpha  occ. eigenvalues --   -9.94183  -9.94086  -9.93843  -9.93761  -9.93548
 Alpha  occ. eigenvalues --   -9.93457  -9.93410  -9.93398  -9.93392  -9.93391
 Alpha  occ. eigenvalues --   -9.93325  -9.92904  -9.92855  -9.92840  -9.92830
 Alpha  occ. eigenvalues --   -9.92759  -9.92666  -9.92491  -9.92330  -9.92188
 Alpha  occ. eigenvalues --   -9.92131  -9.92049  -9.91918  -9.91871  -9.91817
 Alpha  occ. eigenvalues --   -9.91732  -9.91651  -9.91591  -9.91533  -9.91419
 Alpha  occ. eigenvalues --   -9.91399  -9.91379  -9.91338  -9.91332  -9.91325
 Alpha  occ. eigenvalues --   -9.90942  -9.90871  -9.90720  -9.90684  -9.90477
 Alpha  occ. eigenvalues --   -9.90135  -2.91120  -1.71559  -1.70961  -1.70866
 Alpha  occ. eigenvalues --   -0.97510  -0.97317  -0.93101  -0.90767  -0.90372
 Alpha  occ. eigenvalues --   -0.89437  -0.87068  -0.86260  -0.85820  -0.84957
 Alpha  occ. eigenvalues --   -0.75782  -0.74244  -0.73101  -0.72627  -0.72041
 Alpha  occ. eigenvalues --   -0.72019  -0.71701  -0.71116  -0.70743  -0.70731
 Alpha  occ. eigenvalues --   -0.70129  -0.69560  -0.68477  -0.67497  -0.67161
 Alpha  occ. eigenvalues --   -0.66583  -0.65741  -0.65200  -0.64946  -0.64485
 Alpha  occ. eigenvalues --   -0.64359  -0.62986  -0.62604  -0.61352  -0.60771
 Alpha  occ. eigenvalues --   -0.60560  -0.60010  -0.59899  -0.59621  -0.58688
 Alpha  occ. eigenvalues --   -0.58279  -0.57385  -0.56722  -0.55930  -0.54894
 Alpha  occ. eigenvalues --   -0.54071  -0.53645  -0.52764  -0.52391  -0.51426
 Alpha  occ. eigenvalues --   -0.51210  -0.51132  -0.50499  -0.50360  -0.49968
 Alpha  occ. eigenvalues --   -0.49685  -0.49263  -0.49037  -0.47864  -0.46605
 Alpha  occ. eigenvalues --   -0.46448  -0.46139  -0.45616  -0.45117  -0.44301
 Alpha  occ. eigenvalues --   -0.43960  -0.43530  -0.43252  -0.42995  -0.42584
 Alpha  occ. eigenvalues --   -0.42089  -0.41841  -0.41560  -0.41467  -0.41049
 Alpha  occ. eigenvalues --   -0.40978  -0.40800  -0.40594  -0.40192  -0.40070
 Alpha  occ. eigenvalues --   -0.39897  -0.39870  -0.39625  -0.39393  -0.39347
 Alpha  occ. eigenvalues --   -0.39135  -0.39022  -0.38879  -0.38463  -0.38239
 Alpha  occ. eigenvalues --   -0.38103  -0.37970  -0.37711  -0.37380  -0.37238
 Alpha  occ. eigenvalues --   -0.37012  -0.36934  -0.36795  -0.36645  -0.36494
 Alpha  occ. eigenvalues --   -0.36347  -0.36080  -0.35903  -0.35763  -0.35469
 Alpha  occ. eigenvalues --   -0.35429  -0.35163  -0.35141  -0.35035  -0.34914
 Alpha  occ. eigenvalues --   -0.34753  -0.34625  -0.34597  -0.34320  -0.34156
 Alpha  occ. eigenvalues --   -0.33931  -0.33639  -0.33481  -0.33198  -0.33130
 Alpha  occ. eigenvalues --   -0.32904  -0.32867  -0.32765  -0.32542  -0.32341
 Alpha  occ. eigenvalues --   -0.32312  -0.32217  -0.31813  -0.31726  -0.31592
 Alpha  occ. eigenvalues --   -0.31461  -0.31309  -0.31251  -0.30931  -0.30724
 Alpha  occ. eigenvalues --   -0.30519  -0.30323  -0.30178  -0.29844  -0.29785
 Alpha  occ. eigenvalues --   -0.29490  -0.29438  -0.29352  -0.29188  -0.28908
 Alpha  occ. eigenvalues --   -0.28821  -0.28136  -0.27988  -0.27889  -0.27873
 Alpha  occ. eigenvalues --   -0.27613  -0.27307  -0.26942  -0.26619  -0.26600
 Alpha  occ. eigenvalues --   -0.26368  -0.26222  -0.25835  -0.25470  -0.25444
 Alpha  occ. eigenvalues --   -0.25152  -0.24830  -0.24469  -0.24024  -0.23349
 Alpha  occ. eigenvalues --   -0.23344  -0.22732  -0.22245  -0.21380  -0.20733
 Alpha  occ. eigenvalues --   -0.20417  -0.20249  -0.19624  -0.18436  -0.17099
 Alpha  occ. eigenvalues --   -0.15341
 Alpha virt. eigenvalues --   -0.10998  -0.06814  -0.06021  -0.04793  -0.04544
 Alpha virt. eigenvalues --   -0.04163  -0.02155  -0.01427  -0.00553  -0.00145
 Alpha virt. eigenvalues --    0.00978   0.01306   0.01520   0.01869   0.02608

 Mulliken charges:
               1
     1  Mg   0.698452
     2  C    0.041764
     3  C   -0.061931
     4  C   -0.045222
     5  C   -0.113819
     6  N   -0.210002
     7  C   -0.080794
     8  C   -0.005847
     9  C    0.046791
    10  C   -0.005756
    11  C    0.124703
    12  C    0.105356
    13  C    0.149240
    14  C    0.084052
    15  O   -0.210513
    16  O   -0.282132
    17  N   -0.254527
    18  C    0.148270
    19  C   -0.176457
    20  C   -0.002534
    21  C    0.038458
    22  C    0.201356
    23  C   -0.045654
    24  O   -0.131086
    25  C    0.104041
    26  N   -0.236521
    27  C    0.070098
    28  C    0.023689
    29  C    0.010567
    30  C    0.035756
    31  C    0.133104
    32  C    0.086744
    33  C    0.062373
    34  N   -0.248341
    35  C    0.147732
    36  C   -0.163147
    37  C    0.091447
    38  C    0.077504
    39  C    0.168763
    40  C   -0.062119
    41  O   -0.134067
    42  C    0.079065
    43  C    0.078284
    44  O   -0.144005
    45  O   -0.289046
    46  C    0.193400
    47  C    0.304712
    48  C   -0.087022
    49  C   -0.174188
    50  C    0.142512
    51  C    0.108240
    52  C    0.098743
    53  C    0.143391
    54  C   -0.097207
    55  C    0.113106
    56  C    0.085845
    57  C    0.093766
    58  C    0.093668
    59  C   -0.118380
    60  C    0.099909
    61  C    0.117689
    62  C    0.047315
    63  C    0.106174
    64  C   -0.095819
    65  C    0.114173
    66  C    0.113249
    67  H   -0.063068
    68  H   -0.051035
    69  H   -0.077221
    70  H   -0.001284
    71  H   -0.030961
    72  H   -0.023981
    73  H    0.005234
    74  H   -0.010359
    75  H   -0.019227
    76  H   -0.017690
    77  H   -0.007332
    78  H    0.009904
    79  H    0.002043
    80  H    0.017071
    81  H   -0.007219
    82  H    0.010011
    83  H   -0.005753
    84  H    0.003544
    85  H   -0.017089
    86  H   -0.032383
    87  H   -0.009778
    88  H   -0.011701
    89  H   -0.001637
    90  H   -0.014730
    91  H   -0.024221
    92  H   -0.011266
    93  H    0.011073
    94  H   -0.018752
    95  H   -0.012434
    96  H    0.001368
    97  H    0.012978
    98  H   -0.013401
    99  H    0.015168
   100  H    0.018990
   101  H    0.022886
   102  H   -0.000305
   103  H   -0.008949
   104  H   -0.038812
   105  H   -0.005060
   106  H   -0.002802
   107  H    0.004678
   108  H   -0.020974
   109  H   -0.026065
   110  H   -0.027891
   111  H   -0.018159
   112  H   -0.031655
   113  H   -0.035403
   114  H   -0.036445
   115  H   -0.020248
   116  H   -0.019577
   117  H   -0.025429
   118  H   -0.032043
   119  H   -0.037305
   120  H   -0.039198
   121  H   -0.033182
   122  H   -0.017354
   123  H   -0.034951
   124  H   -0.032521
   125  H   -0.013333
   126  H   -0.017199
   127  H   -0.034218
   128  H   -0.026470
   129  H   -0.022912
   130  H   -0.038322
   131  H   -0.019041
   132  H   -0.049404
   133  H   -0.052823
   134  H   -0.037242
   135  H   -0.034403
   136  H   -0.014376
   137  H   -0.014639
   138  H   -0.014285
   139  H    0.000475
   140  H   -0.027273
 Sum of Mulliken charges =  -0.00000

 Dipole moment (field-independent basis, Debye):
    X=              4.6086    Y=              2.6394    Z=             -3.0890  Tot=              6.1439
 Quadrupole moment (field-independent basis, Debye-Ang):
   XX=           -376.2447   YY=           -432.9387   ZZ=           -410.4810
   XY=            -11.8775   XZ=              3.6550   YZ=              8.4482

 Normal termination of Gaussian 16 at Thu May  5 11:34:04 2022.
