 Gaussian 16, Revision A.03,
 Gaussian 16:  ES64L-G16RevA.03 25-Dec-2016

 -----------------------------------
 #p cam-b3lyp/Def2SVP td=(nstates=5)
 -----------------------------------

 ------------------------------------------------------
 step_801_chromophore_9 TDDFT with cam-b3lyp functional
 ------------------------------------------------------
 Symbolic Z-matrix:
 Charge =  0 Multiplicity = 1

                         Standard orientation:
 ---------------------------------------------------------------------
 Center     Atomic      Atomic             Coordinates (Angstroms)
 Number     Number       Type             X           Y           Z
 ---------------------------------------------------------------------
      1         12           0       -5.217661    0.778759   -0.029712
      2          6           0       -4.016831   -2.483537   -0.003990
      3          6           0       -1.980701    1.942488   -0.217140
      4          6           0       -6.335666    3.917986    0.006301
      5          6           0       -8.297460   -0.495577    0.676186
      6          7           0       -3.209976   -0.201423   -0.245855
      7          6           0       -2.971871   -1.572516   -0.216757
      8          6           0       -1.529359   -1.810651   -0.219167
      9          6           0       -0.903163   -0.408353    0.016770
     10          6           0       -2.097810    0.539739   -0.123895
     11          6           0       -0.120729   -0.228851    1.278503
     12          6           0       -1.054787   -2.539383   -1.538403
     13          6           0        0.090644   -3.567724   -1.401458
     14          6           0        1.214423   -3.489087   -0.411019
     15          8           0        1.142007   -3.795372    0.781513
     16          8           0        2.292772   -2.737854   -0.877614
     17          7           0       -4.304331    2.696025   -0.228472
     18          6           0       -2.954217    2.907746   -0.384366
     19          6           0       -2.725654    4.395597   -0.643915
     20          6           0       -4.020387    5.008109   -0.469629
     21          6           0       -4.957302    3.861740   -0.281898
     22          6           0       -1.330953    4.981735   -0.847370
     23          6           0       -4.352401    6.536275   -0.516226
     24          8           0       -5.437888    6.995273   -0.258900
     25          6           0       -3.190483    7.487528   -0.919514
     26          7           0       -7.059691    1.568313    0.117805
     27          6           0       -7.301034    2.895397    0.194337
     28          6           0       -8.803552    3.231982    0.345837
     29          6           0       -9.433218    1.809379    0.413138
     30          6           0       -8.162095    0.866917    0.393711
     31          6           0       -9.188819    4.166005    1.544783
     32          6           0      -10.492261    1.598274   -0.683096
     33          6           0      -10.209757    0.743674   -1.930413
     34          7           0       -6.026278   -1.069789    0.346907
     35          6           0       -7.323942   -1.444770    0.619470
     36          6           0       -7.487381   -2.898435    0.647698
     37          6           0       -6.157798   -3.321329    0.449817
     38          6           0       -5.368825   -2.223137    0.297907
     39          6           0       -8.690597   -3.605067    0.791872
     40          6           0       -5.313202   -4.498321    0.385493
     41          8           0       -5.666778   -5.653595    0.601936
     42          6           0       -3.915238   -4.014641    0.103420
     43          6           0       -2.946328   -4.523329    1.131604
     44          8           0       -3.012957   -4.214321    2.281251
     45          8           0       -2.137295   -5.518541    0.587407
     46          6           0       -1.295465   -6.214064    1.571439
     47          6           0        3.406073   -2.556235    0.099261
     48          6           0        4.615426   -1.874665   -0.553093
     49          6           0        5.744667   -2.521868   -1.121685
     50          6           0        5.792370   -4.022594   -1.215747
     51          6           0        7.094689   -1.807488   -1.442965
     52          6           0        7.141474   -1.204260   -2.834377
     53          6           0        8.553194   -1.196848   -3.418783
     54          6           0        9.037176    0.067024   -4.073051
     55          6           0        9.405177   -0.085303   -5.580141
     56          6           0       10.244990    0.711682   -3.333770
     57          6           0        9.814348    1.402045   -2.069067
     58          6           0       10.695924    1.006912   -0.834070
     59          6           0       11.389115    2.196015   -0.083342
     60          6           0       12.681266    2.694057   -0.867115
     61          6           0       11.824628    1.834015    1.388376
     62          6           0       10.876404    2.493070    2.488555
     63          6           0       10.381757    1.437407    3.501437
     64          6           0       11.119669    1.500304    4.859555
     65          6           0       11.431616    0.159733    5.523579
     66          6           0       10.410496    2.440479    5.893407
     67          1           0       -0.935778    2.234569   -0.338200
     68          1           0       -6.585795    4.980367    0.056110
     69          1           0       -9.305330   -0.882355    0.842342
     70          1           0       -1.304687   -2.567789    0.532320
     71          1           0       -0.175974   -0.243041   -0.778148
     72          1           0        0.919965    0.028231    1.081877
     73          1           0        0.054038   -1.097412    1.912209
     74          1           0       -0.590954    0.558631    1.867120
     75          1           0       -0.869361   -1.828258   -2.343379
     76          1           0       -1.886395   -3.161714   -1.867330
     77          1           0        0.519129   -3.549250   -2.403659
     78          1           0       -0.397166   -4.497927   -1.111168
     79          1           0       -1.320309    5.665303    0.000972
     80          1           0       -1.272774    5.573896   -1.760559
     81          1           0       -0.624891    4.174476   -0.650101
     82          1           0       -2.514018    7.562233   -0.068101
     83          1           0       -3.572913    8.487219   -1.123357
     84          1           0       -2.611664    7.160485   -1.783421
     85          1           0       -9.177436    3.654241   -0.586410
     86          1           0       -9.901826    1.625888    1.379638
     87          1           0       -8.344197    4.717361    1.957347
     88          1           0       -9.517437    3.639822    2.440590
     89          1           0       -9.875193    4.902037    1.126840
     90          1           0      -10.844526    2.591239   -0.959753
     91          1           0      -11.219679    0.987779   -0.146521
     92          1           0      -10.951196   -0.052167   -1.855063
     93          1           0       -9.174016    0.412371   -2.002587
     94          1           0      -10.397556    1.163133   -2.917964
     95          1           0       -9.472490   -3.215418    0.139553
     96          1           0       -9.167224   -3.570785    1.771975
     97          1           0       -8.391184   -4.608201    0.489407
     98          1           0       -3.522251   -4.522475   -0.777075
     99          1           0       -1.396057   -7.291181    1.437174
    100          1           0       -1.597905   -5.970085    2.590011
    101          1           0       -0.261164   -5.885639    1.473536
    102          1           0        3.769316   -3.460076    0.587578
    103          1           0        3.091530   -1.933002    0.936923
    104          1           0        4.669493   -0.789008   -0.479955
    105          1           0        6.002570   -4.226105   -2.265435
    106          1           0        4.871394   -4.543052   -0.950375
    107          1           0        6.607680   -4.395490   -0.595422
    108          1           0        7.890813   -2.500017   -1.169224
    109          1           0        7.230577   -0.984919   -0.742120
    110          1           0        6.900881   -0.143205   -2.763300
    111          1           0        6.384648   -1.716698   -3.427572
    112          1           0        8.616936   -2.029040   -4.119317
    113          1           0        9.280453   -1.343195   -2.619683
    114          1           0        8.212500    0.779841   -4.050839
    115          1           0        8.677019    0.394209   -6.233551
    116          1           0        9.484481   -1.140402   -5.845226
    117          1           0       10.332106    0.433595   -5.823923
    118          1           0       10.896324    1.397893   -3.876132
    119          1           0       10.980104   -0.076192   -3.168584
    120          1           0        8.774164    1.268122   -1.770949
    121          1           0        9.800738    2.478095   -2.243272
    122          1           0       11.445925    0.269359   -1.117981
    123          1           0       10.013418    0.664402   -0.056132
    124          1           0       10.724498    3.059747   -0.113892
    125          1           0       12.605875    3.770236   -1.017608
    126          1           0       12.936065    2.032815   -1.695500
    127          1           0       13.567648    2.620986   -0.237293
    128          1           0       12.771731    2.304324    1.655850
    129          1           0       11.846366    0.745310    1.417323
    130          1           0        9.997988    2.803051    1.924340
    131          1           0       11.299818    3.350485    3.011122
    132          1           0       10.324248    0.462241    3.017786
    133          1           0        9.310909    1.607160    3.608570
    134          1           0       12.101003    1.940720    4.682547
    135          1           0       11.223470   -0.647483    4.821719
    136          1           0       10.831792   -0.117883    6.389945
    137          1           0       12.508571    0.165505    5.692669
    138          1           0       11.265121    2.899162    6.389981
    139          1           0        9.653828    1.949631    6.505243
    140          1           0        9.941749    3.219870    5.292617
 ---------------------------------------------------------------------

 SCF Done:  E(RCAM-B3LYP) =  -3007.16295873     A.U. after   17 cycles

 Excitation energies and oscillator strengths:

 Excited State   1:      Singlet-A      1.7520 eV  707.67 nm  f=0.3828  <S**2>=0.000
     245 -> 248       -0.18215
     246 -> 247        0.68402
     245 <- 248       -0.10539
 This state for optimization and/or second-order correction.
 Total Energy, E(TD-HF/TD-DFT) =  -3007.09857401
 Copying the excited state density for this state as the 1-particle RhoCI density.

 Excited State   2:      Singlet-A      2.2837 eV  542.90 nm  f=0.0530  <S**2>=0.000
     245 -> 247        0.60584
     246 -> 248        0.35270

 Excited State   3:      Singlet-A      3.4485 eV  359.53 nm  f=0.7370  <S**2>=0.000
     240 -> 247       -0.10980
     242 -> 247       -0.14518
     245 -> 247       -0.33216
     246 -> 248        0.59355
     245 <- 247        0.10829

 Excited State   4:      Singlet-A      3.5783 eV  346.49 nm  f=0.0014  <S**2>=0.000
     242 -> 247       -0.26326
     244 -> 247        0.61109

 Excited State   5:      Singlet-A      3.6823 eV  336.70 nm  f=0.0038  <S**2>=0.000
     241 -> 247        0.53634
     241 -> 249       -0.28830
     241 -> 250       -0.26190
     242 -> 247        0.11360
     244 -> 247       -0.11753

 The electronic state is 1-A.
 Alpha  occ. eigenvalues --  -46.87818 -19.25215 -19.24732 -19.20681 -19.20266
 Alpha  occ. eigenvalues --  -19.19693 -19.18138 -14.41858 -14.41829 -14.39608
 Alpha  occ. eigenvalues --  -14.38293 -10.40013 -10.38747 -10.36584 -10.34001
 Alpha  occ. eigenvalues --  -10.32458 -10.31154 -10.31078 -10.30670 -10.30382
 Alpha  occ. eigenvalues --  -10.30281 -10.30149 -10.30102 -10.30068 -10.28869
 Alpha  occ. eigenvalues --  -10.28282 -10.28009 -10.27971 -10.27966 -10.27722
 Alpha  occ. eigenvalues --  -10.27578 -10.27570 -10.27439 -10.27434 -10.27330
 Alpha  occ. eigenvalues --  -10.27325 -10.27094 -10.26873 -10.26841 -10.26741
 Alpha  occ. eigenvalues --  -10.26729 -10.26607 -10.26299 -10.26015 -10.25919
 Alpha  occ. eigenvalues --  -10.25784 -10.25764 -10.25699 -10.25641 -10.25604
 Alpha  occ. eigenvalues --  -10.25601 -10.25467 -10.25214 -10.25115 -10.25085
 Alpha  occ. eigenvalues --  -10.25064 -10.25027 -10.24998 -10.24933 -10.24845
 Alpha  occ. eigenvalues --  -10.24558 -10.24487 -10.24414 -10.24330 -10.24067
 Alpha  occ. eigenvalues --  -10.23881  -3.16509  -1.91421  -1.90940  -1.90843
 Alpha  occ. eigenvalues --   -1.16033  -1.15756  -1.11867  -1.08939  -1.08254
 Alpha  occ. eigenvalues --   -1.07229  -1.04677  -1.03836  -1.03501  -1.02636
 Alpha  occ. eigenvalues --   -0.92808  -0.91122  -0.89859  -0.89399  -0.88756
 Alpha  occ. eigenvalues --   -0.88721  -0.88352  -0.87671  -0.87324  -0.87223
 Alpha  occ. eigenvalues --   -0.86973  -0.85977  -0.84757  -0.83649  -0.83313
 Alpha  occ. eigenvalues --   -0.82674  -0.81730  -0.81267  -0.80932  -0.80346
 Alpha  occ. eigenvalues --   -0.80178  -0.78722  -0.78479  -0.76782  -0.76137
 Alpha  occ. eigenvalues --   -0.75872  -0.75377  -0.75150  -0.74933  -0.73941
 Alpha  occ. eigenvalues --   -0.73303  -0.72278  -0.71643  -0.70732  -0.69457
 Alpha  occ. eigenvalues --   -0.68641  -0.68207  -0.67163  -0.66963  -0.65717
 Alpha  occ. eigenvalues --   -0.65481  -0.65182  -0.64518  -0.64435  -0.63838
 Alpha  occ. eigenvalues --   -0.63387  -0.63211  -0.62988  -0.61516  -0.60398
 Alpha  occ. eigenvalues --   -0.60053  -0.59563  -0.59132  -0.58441  -0.57844
 Alpha  occ. eigenvalues --   -0.57461  -0.56684  -0.56558  -0.56087  -0.55708
 Alpha  occ. eigenvalues --   -0.55383  -0.55014  -0.54528  -0.54201  -0.54073
 Alpha  occ. eigenvalues --   -0.53731  -0.53621  -0.53293  -0.53158  -0.52918
 Alpha  occ. eigenvalues --   -0.52817  -0.52596  -0.52345  -0.52202  -0.51806
 Alpha  occ. eigenvalues --   -0.51782  -0.51656  -0.51351  -0.51058  -0.50589
 Alpha  occ. eigenvalues --   -0.50447  -0.50402  -0.50296  -0.50173  -0.49668
 Alpha  occ. eigenvalues --   -0.49513  -0.49239  -0.49156  -0.48823  -0.48692
 Alpha  occ. eigenvalues --   -0.48610  -0.48239  -0.48194  -0.47880  -0.47749
 Alpha  occ. eigenvalues --   -0.47576  -0.47366  -0.47167  -0.46866  -0.46725
 Alpha  occ. eigenvalues --   -0.46626  -0.46563  -0.46370  -0.46074  -0.45834
 Alpha  occ. eigenvalues --   -0.45761  -0.45432  -0.45379  -0.45180  -0.44851
 Alpha  occ. eigenvalues --   -0.44746  -0.44598  -0.44384  -0.44255  -0.44046
 Alpha  occ. eigenvalues --   -0.43769  -0.43751  -0.43634  -0.43500  -0.43291
 Alpha  occ. eigenvalues --   -0.43214  -0.43107  -0.42595  -0.42320  -0.41984
 Alpha  occ. eigenvalues --   -0.41874  -0.41648  -0.41504  -0.41446  -0.41068
 Alpha  occ. eigenvalues --   -0.40980  -0.40639  -0.40626  -0.40232  -0.40037
 Alpha  occ. eigenvalues --   -0.39817  -0.39221  -0.38963  -0.38916  -0.38782
 Alpha  occ. eigenvalues --   -0.38438  -0.38124  -0.37831  -0.37690  -0.37414
 Alpha  occ. eigenvalues --   -0.37234  -0.36950  -0.36809  -0.36558  -0.36319
 Alpha  occ. eigenvalues --   -0.36112  -0.36103  -0.34937  -0.34792  -0.34244
 Alpha  occ. eigenvalues --   -0.34159  -0.33769  -0.33317  -0.31976  -0.30974
 Alpha  occ. eigenvalues --   -0.30512  -0.30133  -0.29972  -0.29241  -0.23969
 Alpha  occ. eigenvalues --   -0.20500
 Alpha virt. eigenvalues --   -0.07892  -0.01719   0.00453   0.02456   0.02873
 Alpha virt. eigenvalues --    0.03308   0.03946   0.05423   0.05830   0.06446
 Alpha virt. eigenvalues --    0.07579   0.07858   0.08274   0.08683   0.09144

 Mulliken charges:
               1
     1  Mg   0.835618
     2  C    0.013344
     3  C   -0.079175
     4  C   -0.066429
     5  C   -0.114988
     6  N   -0.279882
     7  C   -0.037963
     8  C   -0.062432
     9  C   -0.010590
    10  C    0.016821
    11  C    0.064113
    12  C    0.062736
    13  C    0.080180
    14  C    0.162221
    15  O   -0.251290
    16  O   -0.345350
    17  N   -0.342101
    18  C    0.159083
    19  C   -0.176460
    20  C   -0.065713
    21  C    0.068175
    22  C    0.143140
    23  C    0.034070
    24  O   -0.170228
    25  C    0.024678
    26  N   -0.316380
    27  C    0.092745
    28  C   -0.034490
    29  C   -0.033726
    30  C    0.045285
    31  C    0.073013
    32  C    0.030050
    33  C    0.002217
    34  N   -0.339194
    35  C    0.143958
    36  C   -0.151243
    37  C    0.008486
    38  C    0.112809
    39  C    0.107232
    40  C    0.038325
    41  O   -0.174409
    42  C    0.005161
    43  C    0.165585
    44  O   -0.179717
    45  O   -0.354275
    46  C    0.156396
    47  C    0.272518
    48  C   -0.104885
    49  C   -0.195380
    50  C    0.079763
    51  C    0.055104
    52  C    0.043900
    53  C    0.086872
    54  C   -0.157449
    55  C    0.058692
    56  C    0.032854
    57  C    0.038145
    58  C    0.042645
    59  C   -0.167693
    60  C    0.041089
    61  C    0.063367
    62  C   -0.007421
    63  C    0.048888
    64  C   -0.154878
    65  C    0.054348
    66  C    0.055227
    67  H   -0.028994
    68  H   -0.011861
    69  H   -0.040840
    70  H    0.030752
    71  H    0.005673
    72  H   -0.000529
    73  H    0.031926
    74  H    0.016673
    75  H    0.010419
    76  H    0.013121
    77  H    0.026753
    78  H    0.038881
    79  H    0.028308
    80  H    0.043723
    81  H    0.021744
    82  H    0.037562
    83  H    0.030184
    84  H    0.030109
    85  H    0.017993
    86  H    0.003074
    87  H    0.015760
    88  H    0.013903
    89  H    0.022496
    90  H    0.011366
    91  H    0.003731
    92  H    0.011180
    93  H    0.033571
    94  H    0.006220
    95  H    0.011970
    96  H    0.027823
    97  H    0.039430
    98  H    0.030129
    99  H    0.037107
   100  H    0.046236
   101  H    0.043662
   102  H    0.027356
   103  H    0.018212
   104  H   -0.008066
   105  H    0.017909
   106  H    0.021663
   107  H    0.028097
   108  H    0.008746
   109  H    0.002485
   110  H   -0.001125
   111  H    0.011341
   112  H   -0.001999
   113  H   -0.006932
   114  H   -0.004399
   115  H    0.004414
   116  H    0.003539
   117  H   -0.000531
   118  H   -0.002323
   119  H   -0.009005
   120  H   -0.012394
   121  H   -0.003375
   122  H    0.008299
   123  H   -0.008937
   124  H   -0.001980
   125  H    0.010917
   126  H    0.005337
   127  H   -0.008603
   128  H    0.002874
   129  H    0.004789
   130  H   -0.009068
   131  H    0.007481
   132  H   -0.020356
   133  H   -0.021545
   134  H   -0.005893
   135  H   -0.009106
   136  H    0.009541
   137  H    0.009424
   138  H    0.010085
   139  H    0.022948
   140  H   -0.004182
 Sum of Mulliken charges =  -0.00000

 Dipole moment (field-independent basis, Debye):
    X=              5.2513    Y=              3.6762    Z=             -3.3307  Tot=              7.2239
 Quadrupole moment (field-independent basis, Debye-Ang):
   XX=           -379.3167   YY=           -427.3530   ZZ=           -410.7971
   XY=            -15.6254   XZ=              4.4703   YZ=              7.9072

 Normal termination of Gaussian 16 at Thu May  5 10:13:17 2022.
