 Gaussian 16, Revision A.03,
 Gaussian 16:  ES64L-G16RevA.03 25-Dec-2016

 ---------------------------------
 #p PBE1PBE/Def2SVP td=(nstates=5)
 ---------------------------------

 ----------------------------------------------------
 step_801_chromophore_9 TDDFT with PBE1PBE functional
 ----------------------------------------------------
 Symbolic Z-matrix:
 Charge =  0 Multiplicity = 1

                         Standard orientation:
 ---------------------------------------------------------------------
 Center     Atomic      Atomic             Coordinates (Angstroms)
 Number     Number       Type             X           Y           Z
 ---------------------------------------------------------------------
      1         12           0       -5.217661    0.778759   -0.029712
      2          6           0       -4.016831   -2.483537   -0.003990
      3          6           0       -1.980701    1.942488   -0.217140
      4          6           0       -6.335666    3.917986    0.006301
      5          6           0       -8.297460   -0.495577    0.676186
      6          7           0       -3.209976   -0.201423   -0.245855
      7          6           0       -2.971871   -1.572516   -0.216757
      8          6           0       -1.529359   -1.810651   -0.219167
      9          6           0       -0.903163   -0.408353    0.016770
     10          6           0       -2.097810    0.539739   -0.123895
     11          6           0       -0.120729   -0.228851    1.278503
     12          6           0       -1.054787   -2.539383   -1.538403
     13          6           0        0.090644   -3.567724   -1.401458
     14          6           0        1.214423   -3.489087   -0.411019
     15          8           0        1.142007   -3.795372    0.781513
     16          8           0        2.292772   -2.737854   -0.877614
     17          7           0       -4.304331    2.696025   -0.228472
     18          6           0       -2.954217    2.907746   -0.384366
     19          6           0       -2.725654    4.395597   -0.643915
     20          6           0       -4.020387    5.008109   -0.469629
     21          6           0       -4.957302    3.861740   -0.281898
     22          6           0       -1.330953    4.981735   -0.847370
     23          6           0       -4.352401    6.536275   -0.516226
     24          8           0       -5.437888    6.995273   -0.258900
     25          6           0       -3.190483    7.487528   -0.919514
     26          7           0       -7.059691    1.568313    0.117805
     27          6           0       -7.301034    2.895397    0.194337
     28          6           0       -8.803552    3.231982    0.345837
     29          6           0       -9.433218    1.809379    0.413138
     30          6           0       -8.162095    0.866917    0.393711
     31          6           0       -9.188819    4.166005    1.544783
     32          6           0      -10.492261    1.598274   -0.683096
     33          6           0      -10.209757    0.743674   -1.930413
     34          7           0       -6.026278   -1.069789    0.346907
     35          6           0       -7.323942   -1.444770    0.619470
     36          6           0       -7.487381   -2.898435    0.647698
     37          6           0       -6.157798   -3.321329    0.449817
     38          6           0       -5.368825   -2.223137    0.297907
     39          6           0       -8.690597   -3.605067    0.791872
     40          6           0       -5.313202   -4.498321    0.385493
     41          8           0       -5.666778   -5.653595    0.601936
     42          6           0       -3.915238   -4.014641    0.103420
     43          6           0       -2.946328   -4.523329    1.131604
     44          8           0       -3.012957   -4.214321    2.281251
     45          8           0       -2.137295   -5.518541    0.587407
     46          6           0       -1.295465   -6.214064    1.571439
     47          6           0        3.406073   -2.556235    0.099261
     48          6           0        4.615426   -1.874665   -0.553093
     49          6           0        5.744667   -2.521868   -1.121685
     50          6           0        5.792370   -4.022594   -1.215747
     51          6           0        7.094689   -1.807488   -1.442965
     52          6           0        7.141474   -1.204260   -2.834377
     53          6           0        8.553194   -1.196848   -3.418783
     54          6           0        9.037176    0.067024   -4.073051
     55          6           0        9.405177   -0.085303   -5.580141
     56          6           0       10.244990    0.711682   -3.333770
     57          6           0        9.814348    1.402045   -2.069067
     58          6           0       10.695924    1.006912   -0.834070
     59          6           0       11.389115    2.196015   -0.083342
     60          6           0       12.681266    2.694057   -0.867115
     61          6           0       11.824628    1.834015    1.388376
     62          6           0       10.876404    2.493070    2.488555
     63          6           0       10.381757    1.437407    3.501437
     64          6           0       11.119669    1.500304    4.859555
     65          6           0       11.431616    0.159733    5.523579
     66          6           0       10.410496    2.440479    5.893407
     67          1           0       -0.935778    2.234569   -0.338200
     68          1           0       -6.585795    4.980367    0.056110
     69          1           0       -9.305330   -0.882355    0.842342
     70          1           0       -1.304687   -2.567789    0.532320
     71          1           0       -0.175974   -0.243041   -0.778148
     72          1           0        0.919965    0.028231    1.081877
     73          1           0        0.054038   -1.097412    1.912209
     74          1           0       -0.590954    0.558631    1.867120
     75          1           0       -0.869361   -1.828258   -2.343379
     76          1           0       -1.886395   -3.161714   -1.867330
     77          1           0        0.519129   -3.549250   -2.403659
     78          1           0       -0.397166   -4.497927   -1.111168
     79          1           0       -1.320309    5.665303    0.000972
     80          1           0       -1.272774    5.573896   -1.760559
     81          1           0       -0.624891    4.174476   -0.650101
     82          1           0       -2.514018    7.562233   -0.068101
     83          1           0       -3.572913    8.487219   -1.123357
     84          1           0       -2.611664    7.160485   -1.783421
     85          1           0       -9.177436    3.654241   -0.586410
     86          1           0       -9.901826    1.625888    1.379638
     87          1           0       -8.344197    4.717361    1.957347
     88          1           0       -9.517437    3.639822    2.440590
     89          1           0       -9.875193    4.902037    1.126840
     90          1           0      -10.844526    2.591239   -0.959753
     91          1           0      -11.219679    0.987779   -0.146521
     92          1           0      -10.951196   -0.052167   -1.855063
     93          1           0       -9.174016    0.412371   -2.002587
     94          1           0      -10.397556    1.163133   -2.917964
     95          1           0       -9.472490   -3.215418    0.139553
     96          1           0       -9.167224   -3.570785    1.771975
     97          1           0       -8.391184   -4.608201    0.489407
     98          1           0       -3.522251   -4.522475   -0.777075
     99          1           0       -1.396057   -7.291181    1.437174
    100          1           0       -1.597905   -5.970085    2.590011
    101          1           0       -0.261164   -5.885639    1.473536
    102          1           0        3.769316   -3.460076    0.587578
    103          1           0        3.091530   -1.933002    0.936923
    104          1           0        4.669493   -0.789008   -0.479955
    105          1           0        6.002570   -4.226105   -2.265435
    106          1           0        4.871394   -4.543052   -0.950375
    107          1           0        6.607680   -4.395490   -0.595422
    108          1           0        7.890813   -2.500017   -1.169224
    109          1           0        7.230577   -0.984919   -0.742120
    110          1           0        6.900881   -0.143205   -2.763300
    111          1           0        6.384648   -1.716698   -3.427572
    112          1           0        8.616936   -2.029040   -4.119317
    113          1           0        9.280453   -1.343195   -2.619683
    114          1           0        8.212500    0.779841   -4.050839
    115          1           0        8.677019    0.394209   -6.233551
    116          1           0        9.484481   -1.140402   -5.845226
    117          1           0       10.332106    0.433595   -5.823923
    118          1           0       10.896324    1.397893   -3.876132
    119          1           0       10.980104   -0.076192   -3.168584
    120          1           0        8.774164    1.268122   -1.770949
    121          1           0        9.800738    2.478095   -2.243272
    122          1           0       11.445925    0.269359   -1.117981
    123          1           0       10.013418    0.664402   -0.056132
    124          1           0       10.724498    3.059747   -0.113892
    125          1           0       12.605875    3.770236   -1.017608
    126          1           0       12.936065    2.032815   -1.695500
    127          1           0       13.567648    2.620986   -0.237293
    128          1           0       12.771731    2.304324    1.655850
    129          1           0       11.846366    0.745310    1.417323
    130          1           0        9.997988    2.803051    1.924340
    131          1           0       11.299818    3.350485    3.011122
    132          1           0       10.324248    0.462241    3.017786
    133          1           0        9.310909    1.607160    3.608570
    134          1           0       12.101003    1.940720    4.682547
    135          1           0       11.223470   -0.647483    4.821719
    136          1           0       10.831792   -0.117883    6.389945
    137          1           0       12.508571    0.165505    5.692669
    138          1           0       11.265121    2.899162    6.389981
    139          1           0        9.653828    1.949631    6.505243
    140          1           0        9.941749    3.219870    5.292617
 ---------------------------------------------------------------------

 SCF Done:  E(RPBE1PBE) =  -3005.35123451     A.U. after   15 cycles

 Excitation energies and oscillator strengths:

 Excited State   1:      Singlet-A      1.8834 eV  658.31 nm  f=0.3733  <S**2>=0.000
     245 -> 248       -0.17663
     246 -> 247        0.69095
     246 <- 247       -0.10425
 This state for optimization and/or second-order correction.
 Total Energy, E(TD-HF/TD-DFT) =  -3005.28202191
 Copying the excited state density for this state as the 1-particle RhoCI density.

 Excited State   2:      Singlet-A      2.2809 eV  543.57 nm  f=0.0603  <S**2>=0.000
     245 -> 247        0.62602
     246 -> 248        0.31733

 Excited State   3:      Singlet-A      3.1335 eV  395.67 nm  f=0.0004  <S**2>=0.000
     242 -> 247        0.39647
     242 -> 249       -0.13996
     242 -> 250       -0.10564
     244 -> 247        0.54062

 Excited State   4:      Singlet-A      3.2382 eV  382.88 nm  f=0.0669  <S**2>=0.000
     242 -> 247        0.49846
     244 -> 247       -0.36886
     245 -> 247       -0.11003
     246 -> 248        0.27391

 Excited State   5:      Singlet-A      3.2557 eV  380.83 nm  f=0.3023  <S**2>=0.000
     240 -> 247        0.12282
     241 -> 247       -0.22386
     242 -> 247       -0.20169
     244 -> 247        0.18184
     245 -> 247       -0.22914
     246 -> 248        0.49856
     246 -> 249       -0.19658

 The electronic state is 1-A.
 Alpha  occ. eigenvalues --  -46.91217 -19.25879 -19.25467 -19.20938 -19.20272
 Alpha  occ. eigenvalues --  -19.19948 -19.18509 -14.41419 -14.41287 -14.39144
 Alpha  occ. eigenvalues --  -14.38059 -10.37034 -10.35819 -10.33548 -10.31273
 Alpha  occ. eigenvalues --  -10.29859 -10.28743 -10.28606 -10.28155 -10.28101
 Alpha  occ. eigenvalues --  -10.28098 -10.27814 -10.27520 -10.27368 -10.26582
 Alpha  occ. eigenvalues --  -10.25939 -10.25780 -10.25660 -10.25405 -10.25301
 Alpha  occ. eigenvalues --  -10.25282 -10.25254 -10.25252 -10.25156 -10.25143
 Alpha  occ. eigenvalues --  -10.25138 -10.24678 -10.24632 -10.24607 -10.24461
 Alpha  occ. eigenvalues --  -10.24154 -10.24018 -10.23741 -10.23690 -10.23611
 Alpha  occ. eigenvalues --  -10.23475 -10.23371 -10.23367 -10.23317 -10.23256
 Alpha  occ. eigenvalues --  -10.23073 -10.23044 -10.22751 -10.22674 -10.22621
 Alpha  occ. eigenvalues --  -10.22577 -10.22571 -10.22538 -10.22501 -10.22320
 Alpha  occ. eigenvalues --  -10.21964 -10.21937 -10.21892 -10.21797 -10.21739
 Alpha  occ. eigenvalues --  -10.21432  -3.13484  -1.86340  -1.85835  -1.85742
 Alpha  occ. eigenvalues --   -1.10840  -1.10525  -1.06434  -1.03811  -1.03157
 Alpha  occ. eigenvalues --   -1.02079  -0.99397  -0.98526  -0.98123  -0.97215
 Alpha  occ. eigenvalues --   -0.87278  -0.85223  -0.84092  -0.83517  -0.83014
 Alpha  occ. eigenvalues --   -0.82844  -0.82648  -0.82045  -0.81594  -0.81429
 Alpha  occ. eigenvalues --   -0.81116  -0.80211  -0.78936  -0.78015  -0.77579
 Alpha  occ. eigenvalues --   -0.76845  -0.75986  -0.75339  -0.75198  -0.74628
 Alpha  occ. eigenvalues --   -0.74398  -0.72990  -0.72699  -0.71121  -0.70343
 Alpha  occ. eigenvalues --   -0.70225  -0.69512  -0.69448  -0.69060  -0.68102
 Alpha  occ. eigenvalues --   -0.67652  -0.66758  -0.66106  -0.65048  -0.63868
 Alpha  occ. eigenvalues --   -0.62874  -0.62691  -0.61411  -0.61269  -0.59915
 Alpha  occ. eigenvalues --   -0.59875  -0.59741  -0.59050  -0.58567  -0.58427
 Alpha  occ. eigenvalues --   -0.57919  -0.57385  -0.57149  -0.56155  -0.54841
 Alpha  occ. eigenvalues --   -0.54601  -0.53992  -0.53718  -0.53106  -0.52364
 Alpha  occ. eigenvalues --   -0.51968  -0.51151  -0.50951  -0.50742  -0.50212
 Alpha  occ. eigenvalues --   -0.49937  -0.49576  -0.49043  -0.48676  -0.48578
 Alpha  occ. eigenvalues --   -0.48194  -0.48053  -0.47814  -0.47738  -0.47335
 Alpha  occ. eigenvalues --   -0.47134  -0.47028  -0.46929  -0.46834  -0.46402
 Alpha  occ. eigenvalues --   -0.46256  -0.46171  -0.45865  -0.45687  -0.45170
 Alpha  occ. eigenvalues --   -0.45071  -0.44845  -0.44786  -0.44657  -0.44335
 Alpha  occ. eigenvalues --   -0.44094  -0.43774  -0.43752  -0.43486  -0.43267
 Alpha  occ. eigenvalues --   -0.43215  -0.42872  -0.42780  -0.42487  -0.42388
 Alpha  occ. eigenvalues --   -0.42279  -0.42004  -0.41856  -0.41456  -0.41376
 Alpha  occ. eigenvalues --   -0.41327  -0.41259  -0.40995  -0.40872  -0.40591
 Alpha  occ. eigenvalues --   -0.40495  -0.40159  -0.40080  -0.39849  -0.39547
 Alpha  occ. eigenvalues --   -0.39474  -0.39436  -0.39090  -0.39002  -0.38856
 Alpha  occ. eigenvalues --   -0.38671  -0.38425  -0.38336  -0.38258  -0.38033
 Alpha  occ. eigenvalues --   -0.37981  -0.37922  -0.37335  -0.37153  -0.36824
 Alpha  occ. eigenvalues --   -0.36759  -0.36503  -0.36378  -0.36313  -0.35840
 Alpha  occ. eigenvalues --   -0.35737  -0.35499  -0.35379  -0.35123  -0.34933
 Alpha  occ. eigenvalues --   -0.34617  -0.34174  -0.33801  -0.33701  -0.33554
 Alpha  occ. eigenvalues --   -0.33246  -0.32959  -0.32831  -0.32523  -0.32235
 Alpha  occ. eigenvalues --   -0.32218  -0.31968  -0.31806  -0.31397  -0.31297
 Alpha  occ. eigenvalues --   -0.31155  -0.30904  -0.29882  -0.29630  -0.29447
 Alpha  occ. eigenvalues --   -0.29259  -0.28715  -0.28703  -0.26701  -0.26434
 Alpha  occ. eigenvalues --   -0.25689  -0.25507  -0.25349  -0.25006  -0.20824
 Alpha  occ. eigenvalues --   -0.18188
 Alpha virt. eigenvalues --   -0.10469  -0.05180  -0.03746  -0.01976  -0.01677
 Alpha virt. eigenvalues --   -0.01204   0.00870   0.01220   0.02041   0.02441
 Alpha virt. eigenvalues --    0.03767   0.04292   0.04503   0.04789   0.05523

 Mulliken charges:
               1
     1  Mg   0.990682
     2  C   -0.004100
     3  C   -0.073629
     4  C   -0.056715
     5  C   -0.099052
     6  N   -0.388010
     7  C    0.035022
     8  C   -0.139155
     9  C   -0.090821
    10  C    0.055566
    11  C    0.010775
    12  C    0.016483
    13  C    0.000298
    14  C    0.227129
    15  O   -0.283773
    16  O   -0.373394
    17  N   -0.455530
    18  C    0.179094
    19  C   -0.199951
    20  C   -0.105810
    21  C    0.099960
    22  C    0.072759
    23  C    0.083780
    24  O   -0.210009
    25  C   -0.049893
    26  N   -0.431368
    27  C    0.120167
    28  C   -0.114666
    29  C   -0.093746
    30  C    0.079703
    31  C    0.016151
    32  C   -0.034385
    33  C   -0.067982
    34  N   -0.469625
    35  C    0.159927
    36  C   -0.164204
    37  C   -0.044781
    38  C    0.168952
    39  C    0.049570
    40  C    0.143762
    41  O   -0.221890
    42  C   -0.096629
    43  C    0.255667
    44  O   -0.214394
    45  O   -0.387732
    46  C    0.101508
    47  C    0.223312
    48  C   -0.112079
    49  C   -0.237182
    50  C    0.015280
    51  C   -0.005318
    52  C   -0.022896
    53  C    0.036829
    54  C   -0.249172
    55  C    0.002526
    56  C   -0.024086
    57  C   -0.017144
    58  C   -0.020548
    59  C   -0.247590
    60  C   -0.016336
    61  C    0.009723
    62  C   -0.074277
    63  C   -0.003823
    64  C   -0.247131
    65  C   -0.003510
    66  C   -0.008506
    67  H    0.003197
    68  H    0.021849
    69  H   -0.008685
    70  H    0.075943
    71  H    0.042361
    72  H    0.026895
    73  H    0.057518
    74  H    0.044850
    75  H    0.041843
    76  H    0.048327
    77  H    0.059270
    78  H    0.073121
    79  H    0.057594
    80  H    0.070143
    81  H    0.050071
    82  H    0.064273
    83  H    0.057241
    84  H    0.056738
    85  H    0.055254
    86  H    0.040121
    87  H    0.043424
    88  H    0.040156
    89  H    0.049452
    90  H    0.043748
    91  H    0.035990
    92  H    0.037738
    93  H    0.062679
    94  H    0.034997
    95  H    0.040591
    96  H    0.056839
    97  H    0.068832
    98  H    0.067514
    99  H    0.059359
   100  H    0.067233
   101  H    0.067462
   102  H    0.053165
   103  H    0.046163
   104  H    0.022022
   105  H    0.047253
   106  H    0.048903
   107  H    0.055608
   108  H    0.038898
   109  H    0.035762
   110  H    0.031466
   111  H    0.044408
   112  H    0.030539
   113  H    0.027776
   114  H    0.034678
   115  H    0.032053
   116  H    0.030388
   117  H    0.026611
   118  H    0.029198
   119  H    0.023079
   120  H    0.021007
   121  H    0.028782
   122  H    0.039040
   123  H    0.027191
   124  H    0.034619
   125  H    0.038011
   126  H    0.032623
   127  H    0.018799
   128  H    0.035621
   129  H    0.035927
   130  H    0.025092
   131  H    0.038343
   132  H    0.010653
   133  H    0.011830
   134  H    0.032864
   135  H    0.018871
   136  H    0.035797
   137  H    0.036601
   138  H    0.038384
   139  H    0.049336
   140  H    0.024923
 Sum of Mulliken charges =  -0.00000

 Dipole moment (field-independent basis, Debye):
    X=              4.9580    Y=              3.1963    Z=             -3.2590  Tot=              6.7394
 Quadrupole moment (field-independent basis, Debye-Ang):
   XX=           -370.4013   YY=           -425.5607   ZZ=           -408.4398
   XY=            -13.5731   XZ=              3.5913   YZ=              8.0726

 Normal termination of Gaussian 16 at Thu May  5 10:38:12 2022.
