 Gaussian 16, Revision A.03,
 Gaussian 16:  ES64L-G16RevA.03 25-Dec-2016

 --------------------------------
 #p wB97XD/Def2SVP td=(nstates=5)
 --------------------------------

 ---------------------------------------------------
 step_801_chromophore_9 TDDFT with wB97XD functional
 ---------------------------------------------------
 Symbolic Z-matrix:
 Charge =  0 Multiplicity = 1

                         Standard orientation:
 ---------------------------------------------------------------------
 Center     Atomic      Atomic             Coordinates (Angstroms)
 Number     Number       Type             X           Y           Z
 ---------------------------------------------------------------------
      1         12           0       -5.217661    0.778759   -0.029712
      2          6           0       -4.016831   -2.483537   -0.003990
      3          6           0       -1.980701    1.942488   -0.217140
      4          6           0       -6.335666    3.917986    0.006301
      5          6           0       -8.297460   -0.495577    0.676186
      6          7           0       -3.209976   -0.201423   -0.245855
      7          6           0       -2.971871   -1.572516   -0.216757
      8          6           0       -1.529359   -1.810651   -0.219167
      9          6           0       -0.903163   -0.408353    0.016770
     10          6           0       -2.097810    0.539739   -0.123895
     11          6           0       -0.120729   -0.228851    1.278503
     12          6           0       -1.054787   -2.539383   -1.538403
     13          6           0        0.090644   -3.567724   -1.401458
     14          6           0        1.214423   -3.489087   -0.411019
     15          8           0        1.142007   -3.795372    0.781513
     16          8           0        2.292772   -2.737854   -0.877614
     17          7           0       -4.304331    2.696025   -0.228472
     18          6           0       -2.954217    2.907746   -0.384366
     19          6           0       -2.725654    4.395597   -0.643915
     20          6           0       -4.020387    5.008109   -0.469629
     21          6           0       -4.957302    3.861740   -0.281898
     22          6           0       -1.330953    4.981735   -0.847370
     23          6           0       -4.352401    6.536275   -0.516226
     24          8           0       -5.437888    6.995273   -0.258900
     25          6           0       -3.190483    7.487528   -0.919514
     26          7           0       -7.059691    1.568313    0.117805
     27          6           0       -7.301034    2.895397    0.194337
     28          6           0       -8.803552    3.231982    0.345837
     29          6           0       -9.433218    1.809379    0.413138
     30          6           0       -8.162095    0.866917    0.393711
     31          6           0       -9.188819    4.166005    1.544783
     32          6           0      -10.492261    1.598274   -0.683096
     33          6           0      -10.209757    0.743674   -1.930413
     34          7           0       -6.026278   -1.069789    0.346907
     35          6           0       -7.323942   -1.444770    0.619470
     36          6           0       -7.487381   -2.898435    0.647698
     37          6           0       -6.157798   -3.321329    0.449817
     38          6           0       -5.368825   -2.223137    0.297907
     39          6           0       -8.690597   -3.605067    0.791872
     40          6           0       -5.313202   -4.498321    0.385493
     41          8           0       -5.666778   -5.653595    0.601936
     42          6           0       -3.915238   -4.014641    0.103420
     43          6           0       -2.946328   -4.523329    1.131604
     44          8           0       -3.012957   -4.214321    2.281251
     45          8           0       -2.137295   -5.518541    0.587407
     46          6           0       -1.295465   -6.214064    1.571439
     47          6           0        3.406073   -2.556235    0.099261
     48          6           0        4.615426   -1.874665   -0.553093
     49          6           0        5.744667   -2.521868   -1.121685
     50          6           0        5.792370   -4.022594   -1.215747
     51          6           0        7.094689   -1.807488   -1.442965
     52          6           0        7.141474   -1.204260   -2.834377
     53          6           0        8.553194   -1.196848   -3.418783
     54          6           0        9.037176    0.067024   -4.073051
     55          6           0        9.405177   -0.085303   -5.580141
     56          6           0       10.244990    0.711682   -3.333770
     57          6           0        9.814348    1.402045   -2.069067
     58          6           0       10.695924    1.006912   -0.834070
     59          6           0       11.389115    2.196015   -0.083342
     60          6           0       12.681266    2.694057   -0.867115
     61          6           0       11.824628    1.834015    1.388376
     62          6           0       10.876404    2.493070    2.488555
     63          6           0       10.381757    1.437407    3.501437
     64          6           0       11.119669    1.500304    4.859555
     65          6           0       11.431616    0.159733    5.523579
     66          6           0       10.410496    2.440479    5.893407
     67          1           0       -0.935778    2.234569   -0.338200
     68          1           0       -6.585795    4.980367    0.056110
     69          1           0       -9.305330   -0.882355    0.842342
     70          1           0       -1.304687   -2.567789    0.532320
     71          1           0       -0.175974   -0.243041   -0.778148
     72          1           0        0.919965    0.028231    1.081877
     73          1           0        0.054038   -1.097412    1.912209
     74          1           0       -0.590954    0.558631    1.867120
     75          1           0       -0.869361   -1.828258   -2.343379
     76          1           0       -1.886395   -3.161714   -1.867330
     77          1           0        0.519129   -3.549250   -2.403659
     78          1           0       -0.397166   -4.497927   -1.111168
     79          1           0       -1.320309    5.665303    0.000972
     80          1           0       -1.272774    5.573896   -1.760559
     81          1           0       -0.624891    4.174476   -0.650101
     82          1           0       -2.514018    7.562233   -0.068101
     83          1           0       -3.572913    8.487219   -1.123357
     84          1           0       -2.611664    7.160485   -1.783421
     85          1           0       -9.177436    3.654241   -0.586410
     86          1           0       -9.901826    1.625888    1.379638
     87          1           0       -8.344197    4.717361    1.957347
     88          1           0       -9.517437    3.639822    2.440590
     89          1           0       -9.875193    4.902037    1.126840
     90          1           0      -10.844526    2.591239   -0.959753
     91          1           0      -11.219679    0.987779   -0.146521
     92          1           0      -10.951196   -0.052167   -1.855063
     93          1           0       -9.174016    0.412371   -2.002587
     94          1           0      -10.397556    1.163133   -2.917964
     95          1           0       -9.472490   -3.215418    0.139553
     96          1           0       -9.167224   -3.570785    1.771975
     97          1           0       -8.391184   -4.608201    0.489407
     98          1           0       -3.522251   -4.522475   -0.777075
     99          1           0       -1.396057   -7.291181    1.437174
    100          1           0       -1.597905   -5.970085    2.590011
    101          1           0       -0.261164   -5.885639    1.473536
    102          1           0        3.769316   -3.460076    0.587578
    103          1           0        3.091530   -1.933002    0.936923
    104          1           0        4.669493   -0.789008   -0.479955
    105          1           0        6.002570   -4.226105   -2.265435
    106          1           0        4.871394   -4.543052   -0.950375
    107          1           0        6.607680   -4.395490   -0.595422
    108          1           0        7.890813   -2.500017   -1.169224
    109          1           0        7.230577   -0.984919   -0.742120
    110          1           0        6.900881   -0.143205   -2.763300
    111          1           0        6.384648   -1.716698   -3.427572
    112          1           0        8.616936   -2.029040   -4.119317
    113          1           0        9.280453   -1.343195   -2.619683
    114          1           0        8.212500    0.779841   -4.050839
    115          1           0        8.677019    0.394209   -6.233551
    116          1           0        9.484481   -1.140402   -5.845226
    117          1           0       10.332106    0.433595   -5.823923
    118          1           0       10.896324    1.397893   -3.876132
    119          1           0       10.980104   -0.076192   -3.168584
    120          1           0        8.774164    1.268122   -1.770949
    121          1           0        9.800738    2.478095   -2.243272
    122          1           0       11.445925    0.269359   -1.117981
    123          1           0       10.013418    0.664402   -0.056132
    124          1           0       10.724498    3.059747   -0.113892
    125          1           0       12.605875    3.770236   -1.017608
    126          1           0       12.936065    2.032815   -1.695500
    127          1           0       13.567648    2.620986   -0.237293
    128          1           0       12.771731    2.304324    1.655850
    129          1           0       11.846366    0.745310    1.417323
    130          1           0        9.997988    2.803051    1.924340
    131          1           0       11.299818    3.350485    3.011122
    132          1           0       10.324248    0.462241    3.017786
    133          1           0        9.310909    1.607160    3.608570
    134          1           0       12.101003    1.940720    4.682547
    135          1           0       11.223470   -0.647483    4.821719
    136          1           0       10.831792   -0.117883    6.389945
    137          1           0       12.508571    0.165505    5.692669
    138          1           0       11.265121    2.899162    6.389981
    139          1           0        9.653828    1.949631    6.505243
    140          1           0        9.941749    3.219870    5.292617
 ---------------------------------------------------------------------

 SCF Done:  E(RwB97XD) =  -3007.86056681     A.U. after   20 cycles

 Excitation energies and oscillator strengths:

 Excited State   1:      Singlet-A      1.7060 eV  726.76 nm  f=0.3806  <S**2>=0.000
     245 -> 248       -0.18663
     246 -> 247        0.68190
     245 <- 248       -0.11368
 This state for optimization and/or second-order correction.
 Total Energy, E(TD-HF/TD-DFT) =  -3007.79787323
 Copying the excited state density for this state as the 1-particle RhoCI density.

 Excited State   2:      Singlet-A      2.2307 eV  555.80 nm  f=0.0522  <S**2>=0.000
     245 -> 247        0.60493
     246 -> 248        0.35303

 Excited State   3:      Singlet-A      3.4605 eV  358.28 nm  f=0.7476  <S**2>=0.000
     240 -> 247       -0.11314
     242 -> 247       -0.16065
     245 -> 247       -0.32799
     246 -> 248        0.59031
     245 <- 247        0.11290

 Excited State   4:      Singlet-A      3.6115 eV  343.31 nm  f=0.0021  <S**2>=0.000
     241 -> 249       -0.10049
     241 -> 250       -0.10017
     242 -> 247       -0.30847
     244 -> 247        0.58990
     244 -> 249       -0.10275

 Excited State   5:      Singlet-A      3.7163 eV  333.63 nm  f=0.0057  <S**2>=0.000
     241 -> 247        0.53154
     241 -> 249       -0.28841
     241 -> 250       -0.26711
     242 -> 249        0.11094

 The electronic state is 1-A.
 Alpha  occ. eigenvalues --  -46.94161 -19.30438 -19.29963 -19.25589 -19.25326
 Alpha  occ. eigenvalues --  -19.24596 -19.23150 -14.46433 -14.46429 -14.44233
 Alpha  occ. eigenvalues --  -14.42863 -10.43809 -10.42587 -10.40615 -10.37971
 Alpha  occ. eigenvalues --  -10.36380 -10.35239 -10.35141 -10.34801 -10.34484
 Alpha  occ. eigenvalues --  -10.34359 -10.34273 -10.34100 -10.33818 -10.32916
 Alpha  occ. eigenvalues --  -10.32481 -10.32009 -10.31953 -10.31892 -10.31696
 Alpha  occ. eigenvalues --  -10.31637 -10.31605 -10.31473 -10.31377 -10.31376
 Alpha  occ. eigenvalues --  -10.31343 -10.31180 -10.30821 -10.30797 -10.30761
 Alpha  occ. eigenvalues --  -10.30749 -10.30546 -10.30129 -10.30017 -10.29824
 Alpha  occ. eigenvalues --  -10.29772 -10.29758 -10.29706 -10.29608 -10.29544
 Alpha  occ. eigenvalues --  -10.29469 -10.29415 -10.29140 -10.29032 -10.28984
 Alpha  occ. eigenvalues --  -10.28955 -10.28952 -10.28943 -10.28740 -10.28633
 Alpha  occ. eigenvalues --  -10.28375 -10.28331 -10.28322 -10.28166 -10.27863
 Alpha  occ. eigenvalues --  -10.27853  -3.20266  -1.93874  -1.93368  -1.93276
 Alpha  occ. eigenvalues --   -1.18172  -1.17899  -1.14133  -1.11131  -1.10448
 Alpha  occ. eigenvalues --   -1.09417  -1.06663  -1.05834  -1.05539  -1.04698
 Alpha  occ. eigenvalues --   -0.94766  -0.92898  -0.91709  -0.91195  -0.90649
 Alpha  occ. eigenvalues --   -0.90520  -0.90225  -0.89595  -0.89137  -0.89105
 Alpha  occ. eigenvalues --   -0.88934  -0.87859  -0.86600  -0.85587  -0.85193
 Alpha  occ. eigenvalues --   -0.84512  -0.83642  -0.83191  -0.82828  -0.82265
 Alpha  occ. eigenvalues --   -0.82058  -0.80718  -0.80393  -0.78683  -0.77985
 Alpha  occ. eigenvalues --   -0.77801  -0.77158  -0.77081  -0.76753  -0.75777
 Alpha  occ. eigenvalues --   -0.75236  -0.74239  -0.73631  -0.72658  -0.71355
 Alpha  occ. eigenvalues --   -0.70519  -0.70199  -0.69068  -0.68952  -0.67568
 Alpha  occ. eigenvalues --   -0.67462  -0.67164  -0.66479  -0.66255  -0.65817
 Alpha  occ. eigenvalues --   -0.65365  -0.65034  -0.64815  -0.63493  -0.62441
 Alpha  occ. eigenvalues --   -0.61989  -0.61482  -0.61113  -0.60425  -0.59818
 Alpha  occ. eigenvalues --   -0.59413  -0.58584  -0.58478  -0.58046  -0.57627
 Alpha  occ. eigenvalues --   -0.57377  -0.56957  -0.56415  -0.56076  -0.55967
 Alpha  occ. eigenvalues --   -0.55649  -0.55479  -0.55188  -0.55104  -0.54879
 Alpha  occ. eigenvalues --   -0.54776  -0.54480  -0.54225  -0.54126  -0.53720
 Alpha  occ. eigenvalues --   -0.53656  -0.53550  -0.53227  -0.52996  -0.52540
 Alpha  occ. eigenvalues --   -0.52384  -0.52305  -0.52239  -0.52078  -0.51590
 Alpha  occ. eigenvalues --   -0.51408  -0.51205  -0.51038  -0.50734  -0.50569
 Alpha  occ. eigenvalues --   -0.50519  -0.50183  -0.50155  -0.49759  -0.49653
 Alpha  occ. eigenvalues --   -0.49517  -0.49304  -0.49071  -0.48728  -0.48574
 Alpha  occ. eigenvalues --   -0.48554  -0.48479  -0.48233  -0.47979  -0.47713
 Alpha  occ. eigenvalues --   -0.47645  -0.47347  -0.47284  -0.47072  -0.46754
 Alpha  occ. eigenvalues --   -0.46651  -0.46494  -0.46259  -0.46157  -0.45964
 Alpha  occ. eigenvalues --   -0.45729  -0.45652  -0.45552  -0.45492  -0.45247
 Alpha  occ. eigenvalues --   -0.45143  -0.45046  -0.44463  -0.44237  -0.43875
 Alpha  occ. eigenvalues --   -0.43826  -0.43567  -0.43457  -0.43381  -0.42923
 Alpha  occ. eigenvalues --   -0.42852  -0.42505  -0.42492  -0.42111  -0.41945
 Alpha  occ. eigenvalues --   -0.41685  -0.41111  -0.40806  -0.40799  -0.40620
 Alpha  occ. eigenvalues --   -0.40288  -0.39979  -0.39758  -0.39549  -0.39251
 Alpha  occ. eigenvalues --   -0.39118  -0.39016  -0.38865  -0.38406  -0.38315
 Alpha  occ. eigenvalues --   -0.38004  -0.37962  -0.36781  -0.36698  -0.36219
 Alpha  occ. eigenvalues --   -0.36180  -0.35613  -0.35501  -0.33985  -0.33200
 Alpha  occ. eigenvalues --   -0.32450  -0.32354  -0.32032  -0.31363  -0.25910
 Alpha  occ. eigenvalues --   -0.22312
 Alpha virt. eigenvalues --   -0.06225   0.00194   0.02482   0.04556   0.05108
 Alpha virt. eigenvalues --    0.05538   0.06987   0.07858   0.08431   0.08842
 Alpha virt. eigenvalues --    0.10337   0.11010   0.11383   0.11667   0.12248

 Mulliken charges:
               1
     1  Mg   0.978682
     2  C   -0.003700
     3  C   -0.092689
     4  C   -0.075456
     5  C   -0.118142
     6  N   -0.351078
     7  C    0.003847
     8  C   -0.103625
     9  C   -0.065096
    10  C    0.044018
    11  C    0.017676
    12  C    0.024200
    13  C    0.024311
    14  C    0.212028
    15  O   -0.278849
    16  O   -0.372672
    17  N   -0.422913
    18  C    0.175888
    19  C   -0.190744
    20  C   -0.102698
    21  C    0.094007
    22  C    0.092247
    23  C    0.080497
    24  O   -0.202795
    25  C   -0.036771
    26  N   -0.396957
    27  C    0.113549
    28  C   -0.088407
    29  C   -0.074247
    30  C    0.064620
    31  C    0.025785
    32  C   -0.019741
    33  C   -0.050497
    34  N   -0.430062
    35  C    0.150904
    36  C   -0.159851
    37  C   -0.038952
    38  C    0.148327
    39  C    0.058190
    40  C    0.118630
    41  O   -0.211744
    42  C   -0.057878
    43  C    0.229742
    44  O   -0.209335
    45  O   -0.384622
    46  C    0.119320
    47  C    0.239745
    48  C   -0.122505
    49  C   -0.223923
    50  C    0.029579
    51  C    0.011944
    52  C   -0.004064
    53  C    0.050420
    54  C   -0.217246
    55  C    0.014939
    56  C   -0.004949
    57  C   -0.006011
    58  C    0.000526
    59  C   -0.219888
    60  C   -0.004772
    61  C    0.023713
    62  C   -0.055552
    63  C    0.010528
    64  C   -0.217554
    65  C    0.007023
    66  C    0.004391
    67  H   -0.003958
    68  H    0.014431
    69  H   -0.014193
    70  H    0.052345
    71  H    0.032987
    72  H    0.021516
    73  H    0.054469
    74  H    0.038260
    75  H    0.035391
    76  H    0.037578
    77  H    0.054581
    78  H    0.061361
    79  H    0.049835
    80  H    0.066358
    81  H    0.046652
    82  H    0.059110
    83  H    0.056973
    84  H    0.050399
    85  H    0.044584
    86  H    0.029367
    87  H    0.036835
    88  H    0.035555
    89  H    0.044707
    90  H    0.034976
    91  H    0.028482
    92  H    0.032091
    93  H    0.053218
    94  H    0.029378
    95  H    0.033680
    96  H    0.051640
    97  H    0.063670
    98  H    0.059349
    99  H    0.055641
   100  H    0.063143
   101  H    0.060826
   102  H    0.046982
   103  H    0.041463
   104  H    0.018746
   105  H    0.040258
   106  H    0.043456
   107  H    0.049954
   108  H    0.031430
   109  H    0.027448
   110  H    0.020446
   111  H    0.036648
   112  H    0.022782
   113  H    0.012517
   114  H    0.020560
   115  H    0.026783
   116  H    0.023742
   117  H    0.020342
   118  H    0.021637
   119  H    0.011645
   120  H    0.010121
   121  H    0.021239
   122  H    0.028938
   123  H    0.015102
   124  H    0.021486
   125  H    0.033155
   126  H    0.026087
   127  H    0.011730
   128  H    0.026633
   129  H    0.026442
   130  H    0.014721
   131  H    0.030819
   132  H    0.000733
   133  H    0.003514
   134  H    0.020043
   135  H    0.012115
   136  H    0.030341
   137  H    0.031506
   138  H    0.032791
   139  H    0.044112
   140  H    0.017006
 Sum of Mulliken charges =  -0.00000

 Dipole moment (field-independent basis, Debye):
    X=              5.3707    Y=              3.8400    Z=             -3.3840  Tot=              7.4190
 Quadrupole moment (field-independent basis, Debye-Ang):
   XX=           -374.9649   YY=           -422.7382   ZZ=           -407.8830
   XY=            -16.0094   XZ=              4.3247   YZ=              7.8312

 Normal termination of Gaussian 16 at Thu May  5 11:17:29 2022.
