 Gaussian 16, Revision A.03,
 Gaussian 16:  ES64L-G16RevA.03 25-Dec-2016

 --------------------
 #p ZINDO=(nstates=5)
 --------------------

 ----------------------------
 step_801_chromophore_9 ZINDO
 ----------------------------
 Symbolic Z-matrix:
 Charge =  0 Multiplicity = 1

                         Standard orientation:
 ---------------------------------------------------------------------
 Center     Atomic      Atomic             Coordinates (Angstroms)
 Number     Number       Type             X           Y           Z
 ---------------------------------------------------------------------
      1         12           0       -5.217661    0.778759   -0.029712
      2          6           0       -4.016831   -2.483537   -0.003990
      3          6           0       -1.980701    1.942488   -0.217140
      4          6           0       -6.335666    3.917986    0.006301
      5          6           0       -8.297460   -0.495577    0.676186
      6          7           0       -3.209976   -0.201423   -0.245855
      7          6           0       -2.971871   -1.572516   -0.216757
      8          6           0       -1.529359   -1.810651   -0.219167
      9          6           0       -0.903163   -0.408353    0.016770
     10          6           0       -2.097810    0.539739   -0.123895
     11          6           0       -0.120729   -0.228851    1.278503
     12          6           0       -1.054787   -2.539383   -1.538403
     13          6           0        0.090644   -3.567724   -1.401458
     14          6           0        1.214423   -3.489087   -0.411019
     15          8           0        1.142007   -3.795372    0.781513
     16          8           0        2.292772   -2.737854   -0.877614
     17          7           0       -4.304331    2.696025   -0.228472
     18          6           0       -2.954217    2.907746   -0.384366
     19          6           0       -2.725654    4.395597   -0.643915
     20          6           0       -4.020387    5.008109   -0.469629
     21          6           0       -4.957302    3.861740   -0.281898
     22          6           0       -1.330953    4.981735   -0.847370
     23          6           0       -4.352401    6.536275   -0.516226
     24          8           0       -5.437888    6.995273   -0.258900
     25          6           0       -3.190483    7.487528   -0.919514
     26          7           0       -7.059691    1.568313    0.117805
     27          6           0       -7.301034    2.895397    0.194337
     28          6           0       -8.803552    3.231982    0.345837
     29          6           0       -9.433218    1.809379    0.413138
     30          6           0       -8.162095    0.866917    0.393711
     31          6           0       -9.188819    4.166005    1.544783
     32          6           0      -10.492261    1.598274   -0.683096
     33          6           0      -10.209757    0.743674   -1.930413
     34          7           0       -6.026278   -1.069789    0.346907
     35          6           0       -7.323942   -1.444770    0.619470
     36          6           0       -7.487381   -2.898435    0.647698
     37          6           0       -6.157798   -3.321329    0.449817
     38          6           0       -5.368825   -2.223137    0.297907
     39          6           0       -8.690597   -3.605067    0.791872
     40          6           0       -5.313202   -4.498321    0.385493
     41          8           0       -5.666778   -5.653595    0.601936
     42          6           0       -3.915238   -4.014641    0.103420
     43          6           0       -2.946328   -4.523329    1.131604
     44          8           0       -3.012957   -4.214321    2.281251
     45          8           0       -2.137295   -5.518541    0.587407
     46          6           0       -1.295465   -6.214064    1.571439
     47          6           0        3.406073   -2.556235    0.099261
     48          6           0        4.615426   -1.874665   -0.553093
     49          6           0        5.744667   -2.521868   -1.121685
     50          6           0        5.792370   -4.022594   -1.215747
     51          6           0        7.094689   -1.807488   -1.442965
     52          6           0        7.141474   -1.204260   -2.834377
     53          6           0        8.553194   -1.196848   -3.418783
     54          6           0        9.037176    0.067024   -4.073051
     55          6           0        9.405177   -0.085303   -5.580141
     56          6           0       10.244990    0.711682   -3.333770
     57          6           0        9.814348    1.402045   -2.069067
     58          6           0       10.695924    1.006912   -0.834070
     59          6           0       11.389115    2.196015   -0.083342
     60          6           0       12.681266    2.694057   -0.867115
     61          6           0       11.824628    1.834015    1.388376
     62          6           0       10.876404    2.493070    2.488555
     63          6           0       10.381757    1.437407    3.501437
     64          6           0       11.119669    1.500304    4.859555
     65          6           0       11.431616    0.159733    5.523579
     66          6           0       10.410496    2.440479    5.893407
     67          1           0       -0.935778    2.234569   -0.338200
     68          1           0       -6.585795    4.980367    0.056110
     69          1           0       -9.305330   -0.882355    0.842342
     70          1           0       -1.304687   -2.567789    0.532320
     71          1           0       -0.175974   -0.243041   -0.778148
     72          1           0        0.919965    0.028231    1.081877
     73          1           0        0.054038   -1.097412    1.912209
     74          1           0       -0.590954    0.558631    1.867120
     75          1           0       -0.869361   -1.828258   -2.343379
     76          1           0       -1.886395   -3.161714   -1.867330
     77          1           0        0.519129   -3.549250   -2.403659
     78          1           0       -0.397166   -4.497927   -1.111168
     79          1           0       -1.320309    5.665303    0.000972
     80          1           0       -1.272774    5.573896   -1.760559
     81          1           0       -0.624891    4.174476   -0.650101
     82          1           0       -2.514018    7.562233   -0.068101
     83          1           0       -3.572913    8.487219   -1.123357
     84          1           0       -2.611664    7.160485   -1.783421
     85          1           0       -9.177436    3.654241   -0.586410
     86          1           0       -9.901826    1.625888    1.379638
     87          1           0       -8.344197    4.717361    1.957347
     88          1           0       -9.517437    3.639822    2.440590
     89          1           0       -9.875193    4.902037    1.126840
     90          1           0      -10.844526    2.591239   -0.959753
     91          1           0      -11.219679    0.987779   -0.146521
     92          1           0      -10.951196   -0.052167   -1.855063
     93          1           0       -9.174016    0.412371   -2.002587
     94          1           0      -10.397556    1.163133   -2.917964
     95          1           0       -9.472490   -3.215418    0.139553
     96          1           0       -9.167224   -3.570785    1.771975
     97          1           0       -8.391184   -4.608201    0.489407
     98          1           0       -3.522251   -4.522475   -0.777075
     99          1           0       -1.396057   -7.291181    1.437174
    100          1           0       -1.597905   -5.970085    2.590011
    101          1           0       -0.261164   -5.885639    1.473536
    102          1           0        3.769316   -3.460076    0.587578
    103          1           0        3.091530   -1.933002    0.936923
    104          1           0        4.669493   -0.789008   -0.479955
    105          1           0        6.002570   -4.226105   -2.265435
    106          1           0        4.871394   -4.543052   -0.950375
    107          1           0        6.607680   -4.395490   -0.595422
    108          1           0        7.890813   -2.500017   -1.169224
    109          1           0        7.230577   -0.984919   -0.742120
    110          1           0        6.900881   -0.143205   -2.763300
    111          1           0        6.384648   -1.716698   -3.427572
    112          1           0        8.616936   -2.029040   -4.119317
    113          1           0        9.280453   -1.343195   -2.619683
    114          1           0        8.212500    0.779841   -4.050839
    115          1           0        8.677019    0.394209   -6.233551
    116          1           0        9.484481   -1.140402   -5.845226
    117          1           0       10.332106    0.433595   -5.823923
    118          1           0       10.896324    1.397893   -3.876132
    119          1           0       10.980104   -0.076192   -3.168584
    120          1           0        8.774164    1.268122   -1.770949
    121          1           0        9.800738    2.478095   -2.243272
    122          1           0       11.445925    0.269359   -1.117981
    123          1           0       10.013418    0.664402   -0.056132
    124          1           0       10.724498    3.059747   -0.113892
    125          1           0       12.605875    3.770236   -1.017608
    126          1           0       12.936065    2.032815   -1.695500
    127          1           0       13.567648    2.620986   -0.237293
    128          1           0       12.771731    2.304324    1.655850
    129          1           0       11.846366    0.745310    1.417323
    130          1           0        9.997988    2.803051    1.924340
    131          1           0       11.299818    3.350485    3.011122
    132          1           0       10.324248    0.462241    3.017786
    133          1           0        9.310909    1.607160    3.608570
    134          1           0       12.101003    1.940720    4.682547
    135          1           0       11.223470   -0.647483    4.821719
    136          1           0       10.831792   -0.117883    6.389945
    137          1           0       12.508571    0.165505    5.692669
    138          1           0       11.265121    2.899162    6.389981
    139          1           0        9.653828    1.949631    6.505243
    140          1           0        9.941749    3.219870    5.292617
 ---------------------------------------------------------------------

 SCF Done:  E(RZINDO/S) =  -474.428599735     A.U. after   20 cycles

 Excitation energies and oscillator strengths:

 Excited State   1:      Singlet-A      1.3024 eV  951.98 nm  f=0.5728  <S**2>=0.000
     175 ->178        -0.18518
     176 ->177         0.66567
 This state for optimization and/or second-order correction.
 Total Energy, E(CIS/TDA) =  -474.380737934
 Copying the excited state density for this state as the 1-particle RhoCI density.

 Excited State   2:      Singlet-A      1.9255 eV  643.92 nm  f=0.0012  <S**2>=0.000
     175 ->177         0.48305
     176 ->178         0.49280

 Excited State   3:      Singlet-A      2.9468 eV  420.74 nm  f=0.2427  <S**2>=0.000
     175 ->177         0.20964
     176 ->178        -0.22771
     176 ->179         0.54814
     176 ->181         0.22592

 Excited State   4:      Singlet-A      3.0172 eV  410.92 nm  f=1.0285  <S**2>=0.000
     171 ->177        -0.12054
     175 ->177        -0.41431
     176 ->178         0.41726
     176 ->179         0.30910

 Excited State   5:      Singlet-A      3.0286 eV  409.38 nm  f=0.0011  <S**2>=0.000
     170 ->177         0.27425
     170 ->178        -0.13544
     170 ->179         0.28367
     170 ->181         0.41248
     170 ->186         0.20159
     170 ->188         0.17880
     170 ->204        -0.13001
     176 ->179        -0.13649

 The electronic state is 1-A.
 Alpha  occ. eigenvalues --   -1.86329  -1.81615  -1.80392  -1.72416  -1.72193
 Alpha  occ. eigenvalues --   -1.70059  -1.66078  -1.60547  -1.58918  -1.58571
 Alpha  occ. eigenvalues --   -1.54151  -1.51015  -1.48388  -1.48160  -1.46662
 Alpha  occ. eigenvalues --   -1.44745  -1.42926  -1.40929  -1.39268  -1.38079
 Alpha  occ. eigenvalues --   -1.36842  -1.35763  -1.33855  -1.32909  -1.28972
 Alpha  occ. eigenvalues --   -1.28392  -1.25116  -1.22253  -1.20618  -1.18457
 Alpha  occ. eigenvalues --   -1.17479  -1.15671  -1.15272  -1.14164  -1.13251
 Alpha  occ. eigenvalues --   -1.13043  -1.11288  -1.09591  -1.04509  -1.03385
 Alpha  occ. eigenvalues --   -1.02100  -1.00892  -0.99242  -0.97391  -0.97358
 Alpha  occ. eigenvalues --   -0.96508  -0.94687  -0.94257  -0.93782  -0.92337
 Alpha  occ. eigenvalues --   -0.91492  -0.89833  -0.89117  -0.88018  -0.87769
 Alpha  occ. eigenvalues --   -0.85600  -0.84223  -0.83020  -0.81351  -0.80226
 Alpha  occ. eigenvalues --   -0.79995  -0.78740  -0.77118  -0.76221  -0.75702
 Alpha  occ. eigenvalues --   -0.75398  -0.75278  -0.74755  -0.73894  -0.73267
 Alpha  occ. eigenvalues --   -0.72909  -0.72134  -0.71772  -0.71435  -0.71131
 Alpha  occ. eigenvalues --   -0.71051  -0.70028  -0.68953  -0.68460  -0.68025
 Alpha  occ. eigenvalues --   -0.67833  -0.66970  -0.66731  -0.66211  -0.65621
 Alpha  occ. eigenvalues --   -0.64995  -0.64669  -0.64069  -0.63669  -0.63451
 Alpha  occ. eigenvalues --   -0.62887  -0.62752  -0.62301  -0.61825  -0.61423
 Alpha  occ. eigenvalues --   -0.61085  -0.60739  -0.60654  -0.60194  -0.59817
 Alpha  occ. eigenvalues --   -0.59638  -0.59572  -0.59011  -0.58867  -0.58180
 Alpha  occ. eigenvalues --   -0.58169  -0.57709  -0.57457  -0.57061  -0.56655
 Alpha  occ. eigenvalues --   -0.56052  -0.55522  -0.54972  -0.54834  -0.54521
 Alpha  occ. eigenvalues --   -0.54142  -0.53975  -0.53504  -0.52929  -0.52431
 Alpha  occ. eigenvalues --   -0.52375  -0.52019  -0.51773  -0.51389  -0.51289
 Alpha  occ. eigenvalues --   -0.50863  -0.50812  -0.50461  -0.50155  -0.49982
 Alpha  occ. eigenvalues --   -0.49777  -0.49578  -0.49277  -0.48982  -0.48658
 Alpha  occ. eigenvalues --   -0.48537  -0.48084  -0.47823  -0.47598  -0.47410
 Alpha  occ. eigenvalues --   -0.47331  -0.46950  -0.46685  -0.46588  -0.46318
 Alpha  occ. eigenvalues --   -0.46300  -0.46180  -0.45823  -0.45507  -0.45320
 Alpha  occ. eigenvalues --   -0.45212  -0.44973  -0.44506  -0.44384  -0.44036
 Alpha  occ. eigenvalues --   -0.43030  -0.42766  -0.42587  -0.42474  -0.42315
 Alpha  occ. eigenvalues --   -0.41449  -0.41341  -0.41168  -0.39319  -0.38823
 Alpha  occ. eigenvalues --   -0.37309  -0.36826  -0.36268  -0.34941  -0.33836
 Alpha  occ. eigenvalues --   -0.33604  -0.31997  -0.31889  -0.31497  -0.26547
 Alpha  occ. eigenvalues --   -0.21034
 Alpha virt. eigenvalues --   -0.07537  -0.01981  -0.00341   0.00548   0.01570
 Alpha virt. eigenvalues --    0.03164   0.03214   0.03609   0.03734   0.04983
 Alpha virt. eigenvalues --    0.05951   0.06468   0.06953   0.08172   0.08550

 Mulliken charges:
               1
     1  Mg   0.420592
     2  C   -0.044720
     3  C   -0.083887
     4  C   -0.086630
     5  C   -0.058595
     6  N   -0.286239
     7  C    0.095868
     8  C    0.010941
     9  C    0.018333
    10  C    0.162516
    11  C   -0.047968
    12  C   -0.017855
    13  C    0.004475
    14  C    0.463763
    15  O   -0.510143
    16  O   -0.273218
    17  N   -0.323352
    18  C    0.123538
    19  C    0.010031
    20  C   -0.053610
    21  C    0.152354
    22  C   -0.045775
    23  C    0.332279
    24  O   -0.493937
    25  C   -0.033064
    26  N   -0.245729
    27  C    0.153609
    28  C   -0.000089
    29  C   -0.008882
    30  C    0.096035
    31  C   -0.054185
    32  C   -0.028344
    33  C   -0.059376
    34  N   -0.325400
    35  C    0.071420
    36  C    0.023176
    37  C   -0.056865
    38  C    0.116030
    39  C   -0.028978
    40  C    0.338717
    41  O   -0.533440
    42  C    0.053975
    43  C    0.487491
    44  O   -0.500769
    45  O   -0.278801
    46  C    0.068761
    47  C    0.109165
    48  C   -0.114765
    49  C   -0.005983
    50  C   -0.040762
    51  C   -0.016533
    52  C   -0.025568
    53  C   -0.028205
    54  C   -0.006722
    55  C   -0.063950
    56  C   -0.028725
    57  C   -0.036295
    58  C   -0.038537
    59  C   -0.022975
    60  C   -0.073117
    61  C   -0.041359
    62  C   -0.044616
    63  C   -0.034593
    64  C   -0.009970
    65  C   -0.059571
    66  C   -0.061454
    67  H    0.021275
    68  H    0.040476
    69  H    0.020236
    70  H    0.044090
    71  H    0.023994
    72  H    0.012603
    73  H    0.032698
    74  H    0.021380
    75  H    0.025996
    76  H    0.020025
    77  H    0.031940
    78  H    0.045957
    79  H    0.032181
    80  H    0.046673
    81  H    0.039047
    82  H    0.037971
    83  H    0.035418
    84  H    0.033800
    85  H    0.037604
    86  H    0.025164
    87  H    0.020661
    88  H    0.028281
    89  H    0.025223
    90  H    0.026057
    91  H    0.015838
    92  H    0.018541
    93  H    0.028621
    94  H    0.015945
    95  H    0.022443
    96  H    0.036742
    97  H    0.034296
    98  H    0.046190
    99  H    0.036091
   100  H    0.050619
   101  H    0.043216
   102  H    0.050778
   103  H    0.041400
   104  H    0.026869
   105  H    0.024814
   106  H    0.026736
   107  H    0.029525
   108  H    0.026632
   109  H    0.016959
   110  H    0.021300
   111  H    0.027170
   112  H    0.018019
   113  H    0.019440
   114  H    0.016293
   115  H    0.014545
   116  H    0.020035
   117  H    0.017165
   118  H    0.018225
   119  H    0.013450
   120  H    0.016710
   121  H    0.014819
   122  H    0.029734
   123  H    0.013841
   124  H    0.022979
   125  H    0.023957
   126  H    0.026345
   127  H    0.008906
   128  H    0.021812
   129  H    0.030107
   130  H    0.012560
   131  H    0.029641
   132  H    0.017887
   133  H    0.007192
   134  H    0.016558
   135  H    0.008953
   136  H    0.024818
   137  H    0.019715
   138  H    0.022378
   139  H    0.033455
   140  H    0.011473
 Sum of Mulliken charges =  -0.00000

 Dipole moment (field-independent basis, Debye):
    X=              7.7010    Y=              5.6918    Z=             -5.5646  Tot=             11.0755
 N-N= 4.334173953384D+03 E-N= 0.000000000000D+00  KE=-9.343108961399D+03
 Leave Link  601 at Thu May  5 11:34:12 2022, MaxMem=  6710886400 cpu:               0.9 elap:               0.1
 (Enter /sw/apps/gaussian-16.0/g16/l9999.exe)
 1\1\GINC-BP1-COMPUTE181\SP\RZINDO CIS\STO-3G\C55H74Mg1N4O6\OF15641\05-
 May-2022\0\\#p ZINDO=(nstates=5)\\step_801_chromophore_9 ZINDO\\0,1\Mg
 ,0,35.957,1.378,29.603\C,0,33.793,2.115,32.222\C,0,38.586,1.307,31.828
 \C,0,38.065,0.732,27.104\C,0,33.369,1.992,27.474\N,0,36.126,1.545,31.8
 35\C,0,35.082,1.846,32.705\C,0,35.617,2.031,34.053\C,0,37.158,2.07,33.
 858\C,0,37.34,1.641,32.399\C,0,37.845,3.35,34.213\C,0,35.099,0.92,35.0
 5\C,0,34.823,1.355,36.507\C,0,35.57,2.422,37.251\O,0,35.398,3.637,37.1

 Normal termination of Gaussian 16 at Thu May  5 11:34:12 2022.
