 Gaussian 16, Revision A.03,
 Gaussian 16:  ES64L-G16RevA.03 25-Dec-2016

 ------------------------------
 #p blyp/Def2SVP td=(nstates=5)
 ------------------------------

 -------------------------------------------------
 step_551_chromophore_3 TDDFT with blyp functional
 -------------------------------------------------
 Symbolic Z-matrix:
 Charge =  0 Multiplicity = 1

                         Standard orientation:
 ---------------------------------------------------------------------
 Center     Atomic      Atomic             Coordinates (Angstroms)
 Number     Number       Type             X           Y           Z
 ---------------------------------------------------------------------
      1         12           0       -5.248409    0.900242   -0.122465
      2          6           0       -4.312626   -2.552121   -0.159371
      3          6           0       -1.953197    1.538651    0.325478
      4          6           0       -6.151078    4.081852   -0.023850
      5          6           0       -8.605924   -0.081834    0.451950
      6          7           0       -3.349139   -0.376196   -0.096514
      7          6           0       -3.196125   -1.697230   -0.247326
      8          6           0       -1.716752   -2.114835   -0.388475
      9          6           0       -0.983398   -0.793460    0.131359
     10          6           0       -2.227173    0.174340    0.113873
     11          6           0       -0.264840   -0.862731    1.492880
     12          6           0       -1.393533   -2.522255   -1.829161
     13          6           0       -0.240379   -3.582687   -1.944976
     14          6           0        0.878711   -3.364450   -0.924686
     15          8           0        0.986039   -3.841113    0.176244
     16          8           0        1.844059   -2.625081   -1.587547
     17          7           0       -4.172964    2.575710    0.025943
     18          6           0       -2.788248    2.713378    0.170324
     19          6           0       -2.380743    4.105791    0.245999
     20          6           0       -3.601634    4.803597    0.085532
     21          6           0       -4.746091    3.785593   -0.008441
     22          6           0       -0.928438    4.572200    0.354407
     23          6           0       -3.781213    6.298881   -0.018224
     24          8           0       -4.872140    6.794264   -0.178627
     25          6           0       -2.570172    7.222851    0.009491
     26          7           0       -7.129828    1.819618    0.142664
     27          6           0       -7.231912    3.165277    0.160052
     28          6           0       -8.760541    3.587746    0.195674
     29          6           0       -9.488708    2.224372    0.103464
     30          6           0       -8.338102    1.288811    0.268673
     31          6           0       -9.078161    4.423686    1.479402
     32          6           0      -10.458666    1.962034   -1.058441
     33          6           0      -11.950159    1.963452   -0.604307
     34          7           0       -6.310994   -0.941846    0.045661
     35          6           0       -7.612334   -1.160462    0.342846
     36          6           0       -7.788479   -2.527331    0.580986
     37          6           0       -6.552226   -3.123909    0.343404
     38          6           0       -5.695534   -2.096271   -0.007887
     39          6           0       -8.994480   -3.250986    1.015720
     40          6           0       -5.857723   -4.364085    0.384660
     41          8           0       -6.279459   -5.508467    0.603244
     42          6           0       -4.364875   -4.041356   -0.105749
     43          6           0       -3.555460   -4.726495    0.904243
     44          8           0       -3.729500   -4.621441    2.115531
     45          8           0       -2.662111   -5.499466    0.342521
     46          6           0       -1.705993   -6.120109    1.309791
     47          6           0        3.084368   -2.266347   -0.851935
     48          6           0        4.287098   -2.180058   -1.839065
     49          6           0        5.513604   -2.797496   -1.748301
     50          6           0        5.902978   -3.790681   -0.712805
     51          6           0        6.513700   -2.312297   -2.800196
     52          6           0        6.686180   -0.818523   -2.966727
     53          6           0        8.157702   -0.479729   -3.197029
     54          6           0        8.760807    0.737703   -2.392028
     55          6           0        8.597513    0.555542   -0.910758
     56          6           0       10.304640    0.963781   -2.720039
     57          6           0       10.796832    2.440143   -2.554265
     58          6           0       12.184180    2.486933   -1.811186
     59          6           0       12.091215    2.624898   -0.239769
     60          6           0       12.574970    3.964745    0.328945
     61          6           0       12.622965    1.409292    0.405272
     62          6           0       11.663468    0.896207    1.579784
     63          6           0       12.434326   -0.029360    2.650117
     64          6           0       12.234241    0.384443    4.141007
     65          6           0       13.091711   -0.537483    4.982353
     66          6           0       10.739775    0.187792    4.571526
     67          1           0       -0.904159    1.732022    0.559166
     68          1           0       -6.424333    5.135478   -0.116112
     69          1           0       -9.662117   -0.317837    0.594193
     70          1           0       -1.415286   -2.889800    0.316279
     71          1           0       -0.335068   -0.474709   -0.685383
     72          1           0        0.667045   -0.297503    1.512077
     73          1           0        0.009014   -1.903909    1.661606
     74          1           0       -0.872932   -0.578965    2.352111
     75          1           0       -1.238873   -1.637807   -2.446475
     76          1           0       -2.232007   -3.045570   -2.289231
     77          1           0        0.059203   -3.577287   -2.992501
     78          1           0       -0.605231   -4.540284   -1.573288
     79          1           0       -0.612543    5.290628   -0.402647
     80          1           0       -0.257728    3.726185    0.201110
     81          1           0       -0.719203    4.975768    1.344827
     82          1           0       -1.971414    6.946667   -0.858709
     83          1           0       -2.137214    7.061177    0.996354
     84          1           0       -2.884787    8.261199   -0.090894
     85          1           0       -8.953029    4.261157   -0.639301
     86          1           0      -10.029599    2.093564    1.040971
     87          1           0       -8.227042    4.285180    2.147397
     88          1           0      -10.046860    4.217306    1.935073
     89          1           0       -8.991617    5.459583    1.152076
     90          1           0      -10.162170    1.046795   -1.571153
     91          1           0      -10.442063    2.866781   -1.666914
     92          1           0      -12.396455    2.950534   -0.727408
     93          1           0      -12.190450    1.754470    0.437460
     94          1           0      -12.383193    1.146723   -1.181680
     95          1           0       -9.552259   -3.747895    0.223116
     96          1           0       -9.664046   -2.557193    1.524404
     97          1           0       -8.652166   -3.977068    1.753183
     98          1           0       -4.202556   -4.503272   -1.079759
     99          1           0       -1.836998   -6.051742    2.389538
    100          1           0       -0.683367   -5.787218    1.135299
    101          1           0       -1.722594   -7.200951    1.167764
    102          1           0        3.364801   -2.985313   -0.081640
    103          1           0        2.852647   -1.289268   -0.426383
    104          1           0        4.109873   -1.502865   -2.674905
    105          1           0        5.066015   -4.186276   -0.138145
    106          1           0        6.528134   -3.350343    0.064116
    107          1           0        6.392434   -4.672099   -1.125098
    108          1           0        6.307739   -2.771183   -3.766635
    109          1           0        7.432120   -2.775389   -2.437456
    110          1           0        6.237444   -0.285780   -2.128535
    111          1           0        6.116545   -0.673886   -3.884865
    112          1           0        8.230573   -0.219957   -4.254018
    113          1           0        8.863733   -1.290964   -3.023963
    114          1           0        8.171924    1.609598   -2.676640
    115          1           0        9.117273    1.404597   -0.467439
    116          1           0        8.997782   -0.340608   -0.434997
    117          1           0        7.535530    0.547295   -0.665755
    118          1           0       10.502416    0.784090   -3.776602
    119          1           0       10.846628    0.232316   -2.122088
    120          1           0       10.058965    3.111886   -2.114682
    121          1           0       11.139656    2.773662   -3.533789
    122          1           0       12.718797    3.329282   -2.250776
    123          1           0       12.793173    1.612462   -2.042505
    124          1           0       11.028564    2.709773   -0.013256
    125          1           0       11.834847    4.633913    0.766024
    126          1           0       13.064561    4.555768   -0.445151
    127          1           0       13.360773    3.981985    1.084830
    128          1           0       13.632523    1.627176    0.752274
    129          1           0       12.776848    0.554051   -0.252639
    130          1           0       10.928635    0.226923    1.133341
    131          1           0       11.301590    1.800519    2.068003
    132          1           0       13.512709   -0.114681    2.516461
    133          1           0       11.875109   -0.962840    2.574550
    134          1           0       12.430553    1.418187    4.427071
    135          1           0       14.078182   -0.081977    4.904748
    136          1           0       12.986807   -1.565364    4.633112
    137          1           0       12.827432   -0.519191    6.039595
    138          1           0       10.659321   -0.555935    5.362922
    139          1           0       10.064902   -0.114954    3.770973
    140          1           0       10.276419    1.073247    5.006458
 ---------------------------------------------------------------------

 SCF Done:  E(RB-LYP) =  -3007.38554098     A.U. after   20 cycles

 Excitation energies and oscillator strengths:

 Excited State   1:      Singlet-A      1.7744 eV  698.73 nm  f=0.0061  <S**2>=0.000
     244 -> 247        0.66592
     245 -> 247        0.21753
 This state for optimization and/or second-order correction.
 Total Energy, E(TD-HF/TD-DFT) =  -3007.32033183
 Copying the excited state density for this state as the 1-particle RhoCI density.

 Excited State   2:      Singlet-A      1.8255 eV  679.20 nm  f=0.2654  <S**2>=0.000
     245 -> 248        0.19263
     246 -> 247        0.68147
     246 <- 247       -0.14402

 Excited State   3:      Singlet-A      1.9555 eV  634.03 nm  f=0.0133  <S**2>=0.000
     243 -> 247        0.66320
     245 -> 247        0.21651

 Excited State   4:      Singlet-A      2.0481 eV  605.37 nm  f=0.1266  <S**2>=0.000
     243 -> 247       -0.24206
     244 -> 247       -0.19016
     245 -> 247        0.58256
     246 -> 248       -0.21148

 Excited State   5:      Singlet-A      2.4442 eV  507.27 nm  f=0.0022  <S**2>=0.000
     241 -> 247       -0.38808
     242 -> 247        0.57446

 The electronic state is 1-A.
 Alpha  occ. eigenvalues --  -46.27411 -18.82681 -18.82133 -18.78498 -18.75376
 Alpha  occ. eigenvalues --  -18.74585 -18.74486 -14.03131 -14.02920 -14.01707
 Alpha  occ. eigenvalues --  -14.00197 -10.04751 -10.02387  -9.99467  -9.98434
 Alpha  occ. eigenvalues --   -9.98406  -9.96655  -9.96638  -9.96576  -9.96333
 Alpha  occ. eigenvalues --   -9.96132  -9.95976  -9.95554  -9.94588  -9.94524
 Alpha  occ. eigenvalues --   -9.94081  -9.93997  -9.93910  -9.93849  -9.93832
 Alpha  occ. eigenvalues --   -9.93786  -9.93709  -9.93636  -9.93593  -9.93128
 Alpha  occ. eigenvalues --   -9.93120  -9.92850  -9.92785  -9.92706  -9.92677
 Alpha  occ. eigenvalues --   -9.92547  -9.92505  -9.92480  -9.92372  -9.92249
 Alpha  occ. eigenvalues --   -9.92145  -9.92048  -9.91981  -9.91970  -9.91944
 Alpha  occ. eigenvalues --   -9.91917  -9.91898  -9.91854  -9.91752  -9.91652
 Alpha  occ. eigenvalues --   -9.91568  -9.91552  -9.91548  -9.91287  -9.91081
 Alpha  occ. eigenvalues --   -9.90926  -9.90914  -9.90871  -9.90656  -9.90440
 Alpha  occ. eigenvalues --   -9.89196  -2.92082  -1.72514  -1.71979  -1.71779
 Alpha  occ. eigenvalues --   -0.98799  -0.98145  -0.92227  -0.91164  -0.89538
 Alpha  occ. eigenvalues --   -0.88709  -0.88108  -0.87323  -0.86694  -0.85377
 Alpha  occ. eigenvalues --   -0.74972  -0.74272  -0.73119  -0.72972  -0.72531
 Alpha  occ. eigenvalues --   -0.71962  -0.71436  -0.71220  -0.70425  -0.70170
 Alpha  occ. eigenvalues --   -0.69546  -0.69076  -0.68284  -0.67154  -0.66980
 Alpha  occ. eigenvalues --   -0.66423  -0.65837  -0.65298  -0.64824  -0.64357
 Alpha  occ. eigenvalues --   -0.64043  -0.62565  -0.62284  -0.61833  -0.61183
 Alpha  occ. eigenvalues --   -0.60520  -0.59967  -0.59881  -0.59746  -0.59117
 Alpha  occ. eigenvalues --   -0.58182  -0.57407  -0.56129  -0.55722  -0.54553
 Alpha  occ. eigenvalues --   -0.54403  -0.53552  -0.53003  -0.52768  -0.52033
 Alpha  occ. eigenvalues --   -0.51342  -0.50852  -0.50660  -0.49982  -0.49826
 Alpha  occ. eigenvalues --   -0.49533  -0.49192  -0.48612  -0.48563  -0.46622
 Alpha  occ. eigenvalues --   -0.46441  -0.46218  -0.45676  -0.45320  -0.44244
 Alpha  occ. eigenvalues --   -0.43808  -0.43468  -0.42939  -0.42531  -0.42310
 Alpha  occ. eigenvalues --   -0.41873  -0.41789  -0.41696  -0.41360  -0.41217
 Alpha  occ. eigenvalues --   -0.41106  -0.40870  -0.40523  -0.40426  -0.40281
 Alpha  occ. eigenvalues --   -0.40266  -0.39792  -0.39567  -0.39463  -0.39312
 Alpha  occ. eigenvalues --   -0.39025  -0.38820  -0.38344  -0.38282  -0.38181
 Alpha  occ. eigenvalues --   -0.38094  -0.38033  -0.37785  -0.37563  -0.37315
 Alpha  occ. eigenvalues --   -0.37212  -0.36863  -0.36781  -0.36653  -0.36458
 Alpha  occ. eigenvalues --   -0.36179  -0.36169  -0.35762  -0.35651  -0.35537
 Alpha  occ. eigenvalues --   -0.35417  -0.35287  -0.35030  -0.34833  -0.34627
 Alpha  occ. eigenvalues --   -0.34525  -0.34282  -0.34082  -0.34024  -0.33917
 Alpha  occ. eigenvalues --   -0.33759  -0.33553  -0.33430  -0.33193  -0.33124
 Alpha  occ. eigenvalues --   -0.32921  -0.32831  -0.32806  -0.32486  -0.32417
 Alpha  occ. eigenvalues --   -0.32302  -0.32151  -0.31859  -0.31738  -0.31512
 Alpha  occ. eigenvalues --   -0.31375  -0.31320  -0.31018  -0.30996  -0.30818
 Alpha  occ. eigenvalues --   -0.30767  -0.30125  -0.29980  -0.29886  -0.29506
 Alpha  occ. eigenvalues --   -0.29432  -0.29329  -0.29156  -0.29022  -0.28883
 Alpha  occ. eigenvalues --   -0.28870  -0.28666  -0.28515  -0.28140  -0.28075
 Alpha  occ. eigenvalues --   -0.27602  -0.27367  -0.27210  -0.26926  -0.26641
 Alpha  occ. eigenvalues --   -0.26277  -0.26201  -0.25847  -0.25752  -0.25549
 Alpha  occ. eigenvalues --   -0.25491  -0.24803  -0.24296  -0.23574  -0.23499
 Alpha  occ. eigenvalues --   -0.23281  -0.23177  -0.22033  -0.21227  -0.20886
 Alpha  occ. eigenvalues --   -0.20271  -0.19835  -0.18405  -0.17765  -0.16830
 Alpha  occ. eigenvalues --   -0.15652
 Alpha virt. eigenvalues --   -0.11284  -0.06468  -0.05387  -0.03912  -0.03744
 Alpha virt. eigenvalues --   -0.03092  -0.02247  -0.00911  -0.00316   0.00469
 Alpha virt. eigenvalues --    0.01024   0.01583   0.01904   0.02583   0.02733

 Mulliken charges:
               1
     1  Mg   0.712310
     2  C    0.001604
     3  C   -0.056326
     4  C   -0.047824
     5  C   -0.082276
     6  N   -0.092147
     7  C   -0.093229
     8  C   -0.021324
     9  C   -0.022656
    10  C   -0.029833
    11  C    0.135315
    12  C    0.117749
    13  C    0.158606
    14  C    0.070150
    15  O   -0.168883
    16  O   -0.294957
    17  N   -0.324718
    18  C    0.123114
    19  C   -0.117401
    20  C    0.009224
    21  C    0.112478
    22  C    0.171609
    23  C   -0.115652
    24  O   -0.149640
    25  C    0.147035
    26  N   -0.191313
    27  C    0.043642
    28  C   -0.050157
    29  C    0.085367
    30  C   -0.048959
    31  C    0.123875
    32  C    0.135498
    33  C    0.029315
    34  N   -0.190242
    35  C    0.100237
    36  C   -0.189414
    37  C    0.121799
    38  C    0.035478
    39  C    0.176494
    40  C   -0.073317
    41  O   -0.155230
    42  C    0.097814
    43  C    0.060856
    44  O   -0.194146
    45  O   -0.222762
    46  C    0.191629
    47  C    0.310282
    48  C   -0.093094
    49  C   -0.163239
    50  C    0.147682
    51  C    0.104593
    52  C    0.110429
    53  C    0.079153
    54  C   -0.065115
    55  C    0.101310
    56  C    0.085625
    57  C    0.082264
    58  C    0.075923
    59  C   -0.032479
    60  C    0.096952
    61  C    0.098588
    62  C    0.053567
    63  C    0.092483
    64  C   -0.100999
    65  C    0.113519
    66  C    0.086763
    67  H   -0.073179
    68  H   -0.040209
    69  H   -0.061001
    70  H   -0.002860
    71  H   -0.029451
    72  H   -0.007492
    73  H    0.005511
    74  H   -0.000783
    75  H   -0.019000
    76  H   -0.013561
    77  H    0.002046
    78  H    0.001946
    79  H    0.000560
    80  H   -0.018042
    81  H    0.007966
    82  H    0.014425
    83  H    0.007336
    84  H   -0.011542
    85  H   -0.019322
    86  H   -0.034985
    87  H   -0.004471
    88  H    0.003008
    89  H   -0.005569
    90  H   -0.004566
    91  H   -0.019181
    92  H   -0.002352
    93  H   -0.012943
    94  H    0.000448
    95  H    0.005785
    96  H   -0.027769
    97  H    0.010700
    98  H   -0.007484
    99  H    0.027222
   100  H    0.024670
   101  H    0.006498
   102  H   -0.007194
   103  H   -0.005871
   104  H   -0.031513
   105  H   -0.015614
   106  H    0.004761
   107  H    0.002034
   108  H   -0.005728
   109  H   -0.044349
   110  H   -0.013180
   111  H   -0.024184
   112  H   -0.037809
   113  H   -0.026359
   114  H   -0.043682
   115  H   -0.012749
   116  H   -0.011909
   117  H   -0.026728
   118  H   -0.036165
   119  H   -0.020136
   120  H   -0.014623
   121  H   -0.031612
   122  H   -0.046524
   123  H   -0.035183
   124  H   -0.031323
   125  H   -0.018495
   126  H   -0.031865
   127  H   -0.029018
   128  H   -0.039094
   129  H   -0.036167
   130  H   -0.014925
   131  H   -0.013646
   132  H   -0.021714
   133  H   -0.033253
   134  H   -0.033302
   135  H   -0.016781
   136  H   -0.011818
   137  H   -0.023306
   138  H   -0.029093
   139  H   -0.023036
   140  H   -0.024204
 Sum of Mulliken charges =  -0.00000

 Dipole moment (field-independent basis, Debye):
    X=              5.7715    Y=              3.7036    Z=             -3.2524  Tot=              7.5898
 Quadrupole moment (field-independent basis, Debye-Ang):
   XX=           -384.1603   YY=           -439.3704   ZZ=           -405.3952
   XY=            -27.1599   XZ=              6.1411   YZ=             13.8616

 Normal termination of Gaussian 16 at Sat Apr 30 04:07:05 2022.
