 Gaussian 16, Revision A.03,
 Gaussian 16:  ES64L-G16RevA.03 25-Dec-2016

 -----------------------------------
 #p cam-b3lyp/Def2SVP td=(nstates=5)
 -----------------------------------

 ------------------------------------------------------
 step_551_chromophore_3 TDDFT with cam-b3lyp functional
 ------------------------------------------------------
 Symbolic Z-matrix:
 Charge =  0 Multiplicity = 1

                         Standard orientation:
 ---------------------------------------------------------------------
 Center     Atomic      Atomic             Coordinates (Angstroms)
 Number     Number       Type             X           Y           Z
 ---------------------------------------------------------------------
      1         12           0       -5.248409    0.900242   -0.122465
      2          6           0       -4.312626   -2.552121   -0.159371
      3          6           0       -1.953197    1.538651    0.325478
      4          6           0       -6.151078    4.081852   -0.023850
      5          6           0       -8.605924   -0.081834    0.451950
      6          7           0       -3.349139   -0.376196   -0.096514
      7          6           0       -3.196125   -1.697230   -0.247326
      8          6           0       -1.716752   -2.114835   -0.388475
      9          6           0       -0.983398   -0.793460    0.131359
     10          6           0       -2.227173    0.174340    0.113873
     11          6           0       -0.264840   -0.862731    1.492880
     12          6           0       -1.393533   -2.522255   -1.829161
     13          6           0       -0.240379   -3.582687   -1.944976
     14          6           0        0.878711   -3.364450   -0.924686
     15          8           0        0.986039   -3.841113    0.176244
     16          8           0        1.844059   -2.625081   -1.587547
     17          7           0       -4.172964    2.575710    0.025943
     18          6           0       -2.788248    2.713378    0.170324
     19          6           0       -2.380743    4.105791    0.245999
     20          6           0       -3.601634    4.803597    0.085532
     21          6           0       -4.746091    3.785593   -0.008441
     22          6           0       -0.928438    4.572200    0.354407
     23          6           0       -3.781213    6.298881   -0.018224
     24          8           0       -4.872140    6.794264   -0.178627
     25          6           0       -2.570172    7.222851    0.009491
     26          7           0       -7.129828    1.819618    0.142664
     27          6           0       -7.231912    3.165277    0.160052
     28          6           0       -8.760541    3.587746    0.195674
     29          6           0       -9.488708    2.224372    0.103464
     30          6           0       -8.338102    1.288811    0.268673
     31          6           0       -9.078161    4.423686    1.479402
     32          6           0      -10.458666    1.962034   -1.058441
     33          6           0      -11.950159    1.963452   -0.604307
     34          7           0       -6.310994   -0.941846    0.045661
     35          6           0       -7.612334   -1.160462    0.342846
     36          6           0       -7.788479   -2.527331    0.580986
     37          6           0       -6.552226   -3.123909    0.343404
     38          6           0       -5.695534   -2.096271   -0.007887
     39          6           0       -8.994480   -3.250986    1.015720
     40          6           0       -5.857723   -4.364085    0.384660
     41          8           0       -6.279459   -5.508467    0.603244
     42          6           0       -4.364875   -4.041356   -0.105749
     43          6           0       -3.555460   -4.726495    0.904243
     44          8           0       -3.729500   -4.621441    2.115531
     45          8           0       -2.662111   -5.499466    0.342521
     46          6           0       -1.705993   -6.120109    1.309791
     47          6           0        3.084368   -2.266347   -0.851935
     48          6           0        4.287098   -2.180058   -1.839065
     49          6           0        5.513604   -2.797496   -1.748301
     50          6           0        5.902978   -3.790681   -0.712805
     51          6           0        6.513700   -2.312297   -2.800196
     52          6           0        6.686180   -0.818523   -2.966727
     53          6           0        8.157702   -0.479729   -3.197029
     54          6           0        8.760807    0.737703   -2.392028
     55          6           0        8.597513    0.555542   -0.910758
     56          6           0       10.304640    0.963781   -2.720039
     57          6           0       10.796832    2.440143   -2.554265
     58          6           0       12.184180    2.486933   -1.811186
     59          6           0       12.091215    2.624898   -0.239769
     60          6           0       12.574970    3.964745    0.328945
     61          6           0       12.622965    1.409292    0.405272
     62          6           0       11.663468    0.896207    1.579784
     63          6           0       12.434326   -0.029360    2.650117
     64          6           0       12.234241    0.384443    4.141007
     65          6           0       13.091711   -0.537483    4.982353
     66          6           0       10.739775    0.187792    4.571526
     67          1           0       -0.904159    1.732022    0.559166
     68          1           0       -6.424333    5.135478   -0.116112
     69          1           0       -9.662117   -0.317837    0.594193
     70          1           0       -1.415286   -2.889800    0.316279
     71          1           0       -0.335068   -0.474709   -0.685383
     72          1           0        0.667045   -0.297503    1.512077
     73          1           0        0.009014   -1.903909    1.661606
     74          1           0       -0.872932   -0.578965    2.352111
     75          1           0       -1.238873   -1.637807   -2.446475
     76          1           0       -2.232007   -3.045570   -2.289231
     77          1           0        0.059203   -3.577287   -2.992501
     78          1           0       -0.605231   -4.540284   -1.573288
     79          1           0       -0.612543    5.290628   -0.402647
     80          1           0       -0.257728    3.726185    0.201110
     81          1           0       -0.719203    4.975768    1.344827
     82          1           0       -1.971414    6.946667   -0.858709
     83          1           0       -2.137214    7.061177    0.996354
     84          1           0       -2.884787    8.261199   -0.090894
     85          1           0       -8.953029    4.261157   -0.639301
     86          1           0      -10.029599    2.093564    1.040971
     87          1           0       -8.227042    4.285180    2.147397
     88          1           0      -10.046860    4.217306    1.935073
     89          1           0       -8.991617    5.459583    1.152076
     90          1           0      -10.162170    1.046795   -1.571153
     91          1           0      -10.442063    2.866781   -1.666914
     92          1           0      -12.396455    2.950534   -0.727408
     93          1           0      -12.190450    1.754470    0.437460
     94          1           0      -12.383193    1.146723   -1.181680
     95          1           0       -9.552259   -3.747895    0.223116
     96          1           0       -9.664046   -2.557193    1.524404
     97          1           0       -8.652166   -3.977068    1.753183
     98          1           0       -4.202556   -4.503272   -1.079759
     99          1           0       -1.836998   -6.051742    2.389538
    100          1           0       -0.683367   -5.787218    1.135299
    101          1           0       -1.722594   -7.200951    1.167764
    102          1           0        3.364801   -2.985313   -0.081640
    103          1           0        2.852647   -1.289268   -0.426383
    104          1           0        4.109873   -1.502865   -2.674905
    105          1           0        5.066015   -4.186276   -0.138145
    106          1           0        6.528134   -3.350343    0.064116
    107          1           0        6.392434   -4.672099   -1.125098
    108          1           0        6.307739   -2.771183   -3.766635
    109          1           0        7.432120   -2.775389   -2.437456
    110          1           0        6.237444   -0.285780   -2.128535
    111          1           0        6.116545   -0.673886   -3.884865
    112          1           0        8.230573   -0.219957   -4.254018
    113          1           0        8.863733   -1.290964   -3.023963
    114          1           0        8.171924    1.609598   -2.676640
    115          1           0        9.117273    1.404597   -0.467439
    116          1           0        8.997782   -0.340608   -0.434997
    117          1           0        7.535530    0.547295   -0.665755
    118          1           0       10.502416    0.784090   -3.776602
    119          1           0       10.846628    0.232316   -2.122088
    120          1           0       10.058965    3.111886   -2.114682
    121          1           0       11.139656    2.773662   -3.533789
    122          1           0       12.718797    3.329282   -2.250776
    123          1           0       12.793173    1.612462   -2.042505
    124          1           0       11.028564    2.709773   -0.013256
    125          1           0       11.834847    4.633913    0.766024
    126          1           0       13.064561    4.555768   -0.445151
    127          1           0       13.360773    3.981985    1.084830
    128          1           0       13.632523    1.627176    0.752274
    129          1           0       12.776848    0.554051   -0.252639
    130          1           0       10.928635    0.226923    1.133341
    131          1           0       11.301590    1.800519    2.068003
    132          1           0       13.512709   -0.114681    2.516461
    133          1           0       11.875109   -0.962840    2.574550
    134          1           0       12.430553    1.418187    4.427071
    135          1           0       14.078182   -0.081977    4.904748
    136          1           0       12.986807   -1.565364    4.633112
    137          1           0       12.827432   -0.519191    6.039595
    138          1           0       10.659321   -0.555935    5.362922
    139          1           0       10.064902   -0.114954    3.770973
    140          1           0       10.276419    1.073247    5.006458
 ---------------------------------------------------------------------

 SCF Done:  E(RCAM-B3LYP) =  -3007.18792193     A.U. after   17 cycles

 Excitation energies and oscillator strengths:

 Excited State   1:      Singlet-A      1.7661 eV  702.04 nm  f=0.3670  <S**2>=0.000
     245 -> 248        0.17301
     246 -> 247        0.68631
     245 <- 248        0.10175
 This state for optimization and/or second-order correction.
 Total Energy, E(TD-HF/TD-DFT) =  -3007.12302077
 Copying the excited state density for this state as the 1-particle RhoCI density.

 Excited State   2:      Singlet-A      2.2369 eV  554.26 nm  f=0.1767  <S**2>=0.000
     245 -> 247        0.65242
     246 -> 248       -0.25701

 Excited State   3:      Singlet-A      3.3883 eV  365.92 nm  f=0.0064  <S**2>=0.000
     241 -> 247       -0.10772
     244 -> 247        0.67827

 Excited State   4:      Singlet-A      3.4949 eV  354.76 nm  f=0.0048  <S**2>=0.000
     243 -> 247        0.59606
     243 -> 249        0.24619
     243 -> 251       -0.20788

 Excited State   5:      Singlet-A      3.5594 eV  348.33 nm  f=0.0403  <S**2>=0.000
     240 -> 247        0.53426
     240 -> 248        0.15234
     240 -> 249       -0.27357
     240 -> 251       -0.13626
     241 -> 247        0.16271
     246 -> 248        0.18917

 The electronic state is 1-A.
 Alpha  occ. eigenvalues --  -46.88956 -19.25567 -19.25019 -19.21549 -19.19047
 Alpha  occ. eigenvalues --  -19.17315 -19.17253 -14.42141 -14.41594 -14.40459
 Alpha  occ. eigenvalues --  -14.38243 -10.40120 -10.37523 -10.35046 -10.33363
 Alpha  occ. eigenvalues --  -10.32666 -10.31692 -10.31422 -10.31367 -10.30751
 Alpha  occ. eigenvalues --  -10.30654 -10.30341 -10.29829 -10.29488 -10.28290
 Alpha  occ. eigenvalues --  -10.28251 -10.28225 -10.28185 -10.28109 -10.28047
 Alpha  occ. eigenvalues --  -10.27874 -10.27786 -10.27780 -10.27643 -10.27352
 Alpha  occ. eigenvalues --  -10.27340 -10.26826 -10.26788 -10.26586 -10.26485
 Alpha  occ. eigenvalues --  -10.26429 -10.26386 -10.26379 -10.26254 -10.26249
 Alpha  occ. eigenvalues --  -10.25988 -10.25950 -10.25709 -10.25700 -10.25663
 Alpha  occ. eigenvalues --  -10.25654 -10.25612 -10.25502 -10.25412 -10.25359
 Alpha  occ. eigenvalues --  -10.25316 -10.25251 -10.25136 -10.25031 -10.24705
 Alpha  occ. eigenvalues --  -10.24616 -10.24534 -10.24258 -10.24081 -10.24069
 Alpha  occ. eigenvalues --  -10.22608  -3.17535  -1.92441  -1.91997  -1.91832
 Alpha  occ. eigenvalues --   -1.17245  -1.16681  -1.11111  -1.09048  -1.07459
 Alpha  occ. eigenvalues --   -1.06651  -1.05879  -1.04866  -1.04014  -1.03317
 Alpha  occ. eigenvalues --   -0.91911  -0.91180  -0.89950  -0.89790  -0.89164
 Alpha  occ. eigenvalues --   -0.88678  -0.88474  -0.87858  -0.87260  -0.86710
 Alpha  occ. eigenvalues --   -0.85712  -0.85474  -0.84610  -0.83227  -0.83087
 Alpha  occ. eigenvalues --   -0.82488  -0.82046  -0.81389  -0.80662  -0.80217
 Alpha  occ. eigenvalues --   -0.79934  -0.78732  -0.77860  -0.77227  -0.76588
 Alpha  occ. eigenvalues --   -0.75830  -0.75315  -0.75247  -0.75020  -0.74378
 Alpha  occ. eigenvalues --   -0.73241  -0.72331  -0.71025  -0.70528  -0.69070
 Alpha  occ. eigenvalues --   -0.68997  -0.68171  -0.67457  -0.67333  -0.66294
 Alpha  occ. eigenvalues --   -0.65319  -0.65057  -0.64807  -0.64002  -0.63771
 Alpha  occ. eigenvalues --   -0.63401  -0.63113  -0.62526  -0.62214  -0.60481
 Alpha  occ. eigenvalues --   -0.60161  -0.59696  -0.59087  -0.58779  -0.57522
 Alpha  occ. eigenvalues --   -0.57203  -0.56746  -0.56221  -0.55901  -0.55359
 Alpha  occ. eigenvalues --   -0.55083  -0.54961  -0.54679  -0.54553  -0.54142
 Alpha  occ. eigenvalues --   -0.53941  -0.53741  -0.53618  -0.53316  -0.52918
 Alpha  occ. eigenvalues --   -0.52745  -0.52672  -0.52393  -0.52046  -0.51951
 Alpha  occ. eigenvalues --   -0.51646  -0.51412  -0.50967  -0.50747  -0.50644
 Alpha  occ. eigenvalues --   -0.50500  -0.50434  -0.50207  -0.49917  -0.49558
 Alpha  occ. eigenvalues --   -0.49470  -0.49409  -0.49012  -0.48844  -0.48782
 Alpha  occ. eigenvalues --   -0.48750  -0.48263  -0.48164  -0.47919  -0.47785
 Alpha  occ. eigenvalues --   -0.47576  -0.47445  -0.47197  -0.47108  -0.46929
 Alpha  occ. eigenvalues --   -0.46513  -0.46039  -0.45919  -0.45795  -0.45712
 Alpha  occ. eigenvalues --   -0.45612  -0.45255  -0.45081  -0.44918  -0.44751
 Alpha  occ. eigenvalues --   -0.44696  -0.44420  -0.44348  -0.44196  -0.44044
 Alpha  occ. eigenvalues --   -0.43831  -0.43688  -0.43485  -0.43382  -0.43277
 Alpha  occ. eigenvalues --   -0.43051  -0.42904  -0.42701  -0.42340  -0.42273
 Alpha  occ. eigenvalues --   -0.42144  -0.41988  -0.41431  -0.41170  -0.40937
 Alpha  occ. eigenvalues --   -0.40680  -0.40572  -0.40359  -0.40194  -0.40167
 Alpha  occ. eigenvalues --   -0.40047  -0.39700  -0.39541  -0.39346  -0.39042
 Alpha  occ. eigenvalues --   -0.38465  -0.38218  -0.38030  -0.37713  -0.37440
 Alpha  occ. eigenvalues --   -0.37403  -0.37142  -0.36789  -0.36541  -0.36426
 Alpha  occ. eigenvalues --   -0.36301  -0.35648  -0.35362  -0.35132  -0.33946
 Alpha  occ. eigenvalues --   -0.33931  -0.33232  -0.32197  -0.31641  -0.31024
 Alpha  occ. eigenvalues --   -0.30500  -0.30462  -0.29385  -0.28616  -0.23561
 Alpha  occ. eigenvalues --   -0.21102
 Alpha virt. eigenvalues --   -0.08441  -0.01104   0.01031   0.02734   0.03257
 Alpha virt. eigenvalues --    0.03600   0.04654   0.05829   0.07011   0.07140
 Alpha virt. eigenvalues --    0.07934   0.08104   0.08407   0.09030   0.09226

 Mulliken charges:
               1
     1  Mg   0.845810
     2  C   -0.015235
     3  C   -0.066915
     4  C   -0.073312
     5  C   -0.080228
     6  N   -0.161427
     7  C   -0.062008
     8  C   -0.069899
     9  C   -0.074318
    10  C   -0.007916
    11  C    0.074449
    12  C    0.072441
    13  C    0.092280
    14  C    0.145603
    15  O   -0.211214
    16  O   -0.358802
    17  N   -0.417967
    18  C    0.134890
    19  C   -0.121954
    20  C   -0.058004
    21  C    0.146297
    22  C    0.116394
    23  C   -0.035056
    24  O   -0.188857
    25  C    0.066405
    26  N   -0.269975
    27  C    0.065449
    28  C   -0.099354
    29  C    0.024757
    30  C   -0.028316
    31  C    0.067565
    32  C    0.073522
    33  C   -0.028657
    34  N   -0.281127
    35  C    0.097036
    36  C   -0.189758
    37  C    0.036753
    38  C    0.071427
    39  C    0.126520
    40  C    0.027173
    41  O   -0.197542
    42  C    0.015786
    43  C    0.150337
    44  O   -0.234923
    45  O   -0.286027
    46  C    0.154247
    47  C    0.285207
    48  C   -0.118717
    49  C   -0.182382
    50  C    0.081617
    51  C    0.054854
    52  C    0.042186
    53  C    0.031995
    54  C   -0.120396
    55  C    0.049993
    56  C    0.034145
    57  C    0.024913
    58  C    0.027791
    59  C   -0.096914
    60  C    0.039780
    61  C    0.048343
    62  C    0.005819
    63  C    0.039629
    64  C   -0.157322
    65  C    0.049903
    66  C    0.024800
    67  H   -0.037108
    68  H    0.001128
    69  H   -0.027302
    70  H    0.028758
    71  H    0.005876
    72  H    0.015074
    73  H    0.031648
    74  H    0.027189
    75  H    0.010203
    76  H    0.017820
    77  H    0.037365
    78  H    0.032253
    79  H    0.029132
    80  H    0.011864
    81  H    0.037422
    82  H    0.040347
    83  H    0.034046
    84  H    0.026144
    85  H    0.015023
    86  H    0.001317
    87  H    0.021426
    88  H    0.027367
    89  H    0.017935
    90  H    0.026304
    91  H    0.008529
    92  H    0.019451
    93  H    0.009310
    94  H    0.023876
    95  H    0.029580
    96  H   -0.004981
    97  H    0.035263
    98  H    0.036105
    99  H    0.055534
   100  H    0.044703
   101  H    0.029760
   102  H    0.021517
   103  H    0.018657
   104  H    0.001778
   105  H    0.010178
   106  H    0.028739
   107  H    0.027102
   108  H    0.023457
   109  H   -0.014645
   110  H    0.014890
   111  H    0.005246
   112  H   -0.007986
   113  H    0.000050
   114  H   -0.012185
   115  H    0.006066
   116  H    0.009027
   117  H   -0.002403
   118  H   -0.005788
   119  H    0.003637
   120  H    0.011582
   121  H   -0.001098
   122  H   -0.016500
   123  H   -0.006070
   124  H   -0.001314
   125  H    0.005919
   126  H   -0.006811
   127  H   -0.003425
   128  H   -0.010432
   129  H   -0.007687
   130  H    0.007921
   131  H    0.011456
   132  H    0.005805
   133  H   -0.005281
   134  H   -0.002302
   135  H    0.008045
   136  H    0.012100
   137  H    0.002818
   138  H   -0.003343
   139  H    0.000484
   140  H    0.000838
 Sum of Mulliken charges =  -0.00000

 Dipole moment (field-independent basis, Debye):
    X=              6.8367    Y=              5.0731    Z=             -3.2952  Tot=              9.1288
 Quadrupole moment (field-independent basis, Debye-Ang):
   XX=           -391.4650   YY=           -434.0731   ZZ=           -405.5391
   XY=            -32.6695   XZ=              7.3782   YZ=             14.6235

 Normal termination of Gaussian 16 at Sat Apr 30 03:13:35 2022.
