 Gaussian 16, Revision A.03,
 Gaussian 16:  ES64L-G16RevA.03 25-Dec-2016

 ---------------------------------
 #p PBE1PBE/Def2SVP td=(nstates=5)
 ---------------------------------

 ----------------------------------------------------
 step_551_chromophore_3 TDDFT with PBE1PBE functional
 ----------------------------------------------------
 Symbolic Z-matrix:
 Charge =  0 Multiplicity = 1

                         Standard orientation:
 ---------------------------------------------------------------------
 Center     Atomic      Atomic             Coordinates (Angstroms)
 Number     Number       Type             X           Y           Z
 ---------------------------------------------------------------------
      1         12           0       -5.248409    0.900242   -0.122465
      2          6           0       -4.312626   -2.552121   -0.159371
      3          6           0       -1.953197    1.538651    0.325478
      4          6           0       -6.151078    4.081852   -0.023850
      5          6           0       -8.605924   -0.081834    0.451950
      6          7           0       -3.349139   -0.376196   -0.096514
      7          6           0       -3.196125   -1.697230   -0.247326
      8          6           0       -1.716752   -2.114835   -0.388475
      9          6           0       -0.983398   -0.793460    0.131359
     10          6           0       -2.227173    0.174340    0.113873
     11          6           0       -0.264840   -0.862731    1.492880
     12          6           0       -1.393533   -2.522255   -1.829161
     13          6           0       -0.240379   -3.582687   -1.944976
     14          6           0        0.878711   -3.364450   -0.924686
     15          8           0        0.986039   -3.841113    0.176244
     16          8           0        1.844059   -2.625081   -1.587547
     17          7           0       -4.172964    2.575710    0.025943
     18          6           0       -2.788248    2.713378    0.170324
     19          6           0       -2.380743    4.105791    0.245999
     20          6           0       -3.601634    4.803597    0.085532
     21          6           0       -4.746091    3.785593   -0.008441
     22          6           0       -0.928438    4.572200    0.354407
     23          6           0       -3.781213    6.298881   -0.018224
     24          8           0       -4.872140    6.794264   -0.178627
     25          6           0       -2.570172    7.222851    0.009491
     26          7           0       -7.129828    1.819618    0.142664
     27          6           0       -7.231912    3.165277    0.160052
     28          6           0       -8.760541    3.587746    0.195674
     29          6           0       -9.488708    2.224372    0.103464
     30          6           0       -8.338102    1.288811    0.268673
     31          6           0       -9.078161    4.423686    1.479402
     32          6           0      -10.458666    1.962034   -1.058441
     33          6           0      -11.950159    1.963452   -0.604307
     34          7           0       -6.310994   -0.941846    0.045661
     35          6           0       -7.612334   -1.160462    0.342846
     36          6           0       -7.788479   -2.527331    0.580986
     37          6           0       -6.552226   -3.123909    0.343404
     38          6           0       -5.695534   -2.096271   -0.007887
     39          6           0       -8.994480   -3.250986    1.015720
     40          6           0       -5.857723   -4.364085    0.384660
     41          8           0       -6.279459   -5.508467    0.603244
     42          6           0       -4.364875   -4.041356   -0.105749
     43          6           0       -3.555460   -4.726495    0.904243
     44          8           0       -3.729500   -4.621441    2.115531
     45          8           0       -2.662111   -5.499466    0.342521
     46          6           0       -1.705993   -6.120109    1.309791
     47          6           0        3.084368   -2.266347   -0.851935
     48          6           0        4.287098   -2.180058   -1.839065
     49          6           0        5.513604   -2.797496   -1.748301
     50          6           0        5.902978   -3.790681   -0.712805
     51          6           0        6.513700   -2.312297   -2.800196
     52          6           0        6.686180   -0.818523   -2.966727
     53          6           0        8.157702   -0.479729   -3.197029
     54          6           0        8.760807    0.737703   -2.392028
     55          6           0        8.597513    0.555542   -0.910758
     56          6           0       10.304640    0.963781   -2.720039
     57          6           0       10.796832    2.440143   -2.554265
     58          6           0       12.184180    2.486933   -1.811186
     59          6           0       12.091215    2.624898   -0.239769
     60          6           0       12.574970    3.964745    0.328945
     61          6           0       12.622965    1.409292    0.405272
     62          6           0       11.663468    0.896207    1.579784
     63          6           0       12.434326   -0.029360    2.650117
     64          6           0       12.234241    0.384443    4.141007
     65          6           0       13.091711   -0.537483    4.982353
     66          6           0       10.739775    0.187792    4.571526
     67          1           0       -0.904159    1.732022    0.559166
     68          1           0       -6.424333    5.135478   -0.116112
     69          1           0       -9.662117   -0.317837    0.594193
     70          1           0       -1.415286   -2.889800    0.316279
     71          1           0       -0.335068   -0.474709   -0.685383
     72          1           0        0.667045   -0.297503    1.512077
     73          1           0        0.009014   -1.903909    1.661606
     74          1           0       -0.872932   -0.578965    2.352111
     75          1           0       -1.238873   -1.637807   -2.446475
     76          1           0       -2.232007   -3.045570   -2.289231
     77          1           0        0.059203   -3.577287   -2.992501
     78          1           0       -0.605231   -4.540284   -1.573288
     79          1           0       -0.612543    5.290628   -0.402647
     80          1           0       -0.257728    3.726185    0.201110
     81          1           0       -0.719203    4.975768    1.344827
     82          1           0       -1.971414    6.946667   -0.858709
     83          1           0       -2.137214    7.061177    0.996354
     84          1           0       -2.884787    8.261199   -0.090894
     85          1           0       -8.953029    4.261157   -0.639301
     86          1           0      -10.029599    2.093564    1.040971
     87          1           0       -8.227042    4.285180    2.147397
     88          1           0      -10.046860    4.217306    1.935073
     89          1           0       -8.991617    5.459583    1.152076
     90          1           0      -10.162170    1.046795   -1.571153
     91          1           0      -10.442063    2.866781   -1.666914
     92          1           0      -12.396455    2.950534   -0.727408
     93          1           0      -12.190450    1.754470    0.437460
     94          1           0      -12.383193    1.146723   -1.181680
     95          1           0       -9.552259   -3.747895    0.223116
     96          1           0       -9.664046   -2.557193    1.524404
     97          1           0       -8.652166   -3.977068    1.753183
     98          1           0       -4.202556   -4.503272   -1.079759
     99          1           0       -1.836998   -6.051742    2.389538
    100          1           0       -0.683367   -5.787218    1.135299
    101          1           0       -1.722594   -7.200951    1.167764
    102          1           0        3.364801   -2.985313   -0.081640
    103          1           0        2.852647   -1.289268   -0.426383
    104          1           0        4.109873   -1.502865   -2.674905
    105          1           0        5.066015   -4.186276   -0.138145
    106          1           0        6.528134   -3.350343    0.064116
    107          1           0        6.392434   -4.672099   -1.125098
    108          1           0        6.307739   -2.771183   -3.766635
    109          1           0        7.432120   -2.775389   -2.437456
    110          1           0        6.237444   -0.285780   -2.128535
    111          1           0        6.116545   -0.673886   -3.884865
    112          1           0        8.230573   -0.219957   -4.254018
    113          1           0        8.863733   -1.290964   -3.023963
    114          1           0        8.171924    1.609598   -2.676640
    115          1           0        9.117273    1.404597   -0.467439
    116          1           0        8.997782   -0.340608   -0.434997
    117          1           0        7.535530    0.547295   -0.665755
    118          1           0       10.502416    0.784090   -3.776602
    119          1           0       10.846628    0.232316   -2.122088
    120          1           0       10.058965    3.111886   -2.114682
    121          1           0       11.139656    2.773662   -3.533789
    122          1           0       12.718797    3.329282   -2.250776
    123          1           0       12.793173    1.612462   -2.042505
    124          1           0       11.028564    2.709773   -0.013256
    125          1           0       11.834847    4.633913    0.766024
    126          1           0       13.064561    4.555768   -0.445151
    127          1           0       13.360773    3.981985    1.084830
    128          1           0       13.632523    1.627176    0.752274
    129          1           0       12.776848    0.554051   -0.252639
    130          1           0       10.928635    0.226923    1.133341
    131          1           0       11.301590    1.800519    2.068003
    132          1           0       13.512709   -0.114681    2.516461
    133          1           0       11.875109   -0.962840    2.574550
    134          1           0       12.430553    1.418187    4.427071
    135          1           0       14.078182   -0.081977    4.904748
    136          1           0       12.986807   -1.565364    4.633112
    137          1           0       12.827432   -0.519191    6.039595
    138          1           0       10.659321   -0.555935    5.362922
    139          1           0       10.064902   -0.114954    3.770973
    140          1           0       10.276419    1.073247    5.006458
 ---------------------------------------------------------------------

 SCF Done:  E(RPBE1PBE) =  -3005.37579925     A.U. after   16 cycles

 Excitation energies and oscillator strengths:

 Excited State   1:      Singlet-A      1.8849 eV  657.76 nm  f=0.3469  <S**2>=0.000
     245 -> 248        0.17309
     246 -> 247        0.69213
     246 <- 247       -0.10378
 This state for optimization and/or second-order correction.
 Total Energy, E(TD-HF/TD-DFT) =  -3005.30652913
 Copying the excited state density for this state as the 1-particle RhoCI density.

 Excited State   2:      Singlet-A      2.2384 eV  553.89 nm  f=0.1734  <S**2>=0.000
     245 -> 247        0.66195
     246 -> 248       -0.23485

 Excited State   3:      Singlet-A      2.8585 eV  433.74 nm  f=0.0006  <S**2>=0.000
     243 -> 247        0.20019
     244 -> 247        0.65577
     244 -> 249        0.11162

 Excited State   4:      Singlet-A      3.0159 eV  411.10 nm  f=0.0038  <S**2>=0.000
     242 -> 247       -0.14544
     243 -> 247        0.64982
     244 -> 247       -0.20929

 Excited State   5:      Singlet-A      3.0410 eV  407.71 nm  f=0.0002  <S**2>=0.000
     242 -> 247        0.65952
     242 -> 249       -0.13818
     243 -> 247        0.13660

 The electronic state is 1-A.
 Alpha  occ. eigenvalues --  -46.92359 -19.26257 -19.25685 -19.21762 -19.18959
 Alpha  occ. eigenvalues --  -19.17825 -19.17687 -14.41445 -14.41175 -14.39951
 Alpha  occ. eigenvalues --  -14.38081 -10.37127 -10.34604 -10.31891 -10.30803
 Alpha  occ. eigenvalues --  -10.30013 -10.29029 -10.28960 -10.28672 -10.28257
 Alpha  occ. eigenvalues --  -10.28160 -10.27972 -10.27459 -10.27056 -10.26263
 Alpha  occ. eigenvalues --  -10.25929 -10.25926 -10.25867 -10.25698 -10.25527
 Alpha  occ. eigenvalues --  -10.25441 -10.25434 -10.25389 -10.25367 -10.25305
 Alpha  occ. eigenvalues --  -10.24756 -10.24559 -10.24316 -10.24171 -10.24168
 Alpha  occ. eigenvalues --  -10.24155 -10.24145 -10.24131 -10.23930 -10.23485
 Alpha  occ. eigenvalues --  -10.23469 -10.23356 -10.23340 -10.23271 -10.23250
 Alpha  occ. eigenvalues --  -10.23220 -10.23201 -10.23066 -10.23063 -10.23034
 Alpha  occ. eigenvalues --  -10.22950 -10.22876 -10.22813 -10.22621 -10.22143
 Alpha  occ. eigenvalues --  -10.22050 -10.21914 -10.21775 -10.21632 -10.21458
 Alpha  occ. eigenvalues --  -10.20698  -3.14517  -1.87365  -1.86898  -1.86737
 Alpha  occ. eigenvalues --   -1.12127  -1.11427  -1.05570  -1.03889  -1.02441
 Alpha  occ. eigenvalues --   -1.01235  -1.00811  -0.99641  -0.98952  -0.97753
 Alpha  occ. eigenvalues --   -0.86406  -0.85286  -0.84104  -0.83899  -0.83485
 Alpha  occ. eigenvalues --   -0.82759  -0.82555  -0.81949  -0.81430  -0.81033
 Alpha  occ. eigenvalues --   -0.80293  -0.79658  -0.78748  -0.77512  -0.77441
 Alpha  occ. eigenvalues --   -0.76637  -0.76153  -0.75507  -0.74986  -0.74329
 Alpha  occ. eigenvalues --   -0.74242  -0.72724  -0.72139  -0.71630  -0.70752
 Alpha  occ. eigenvalues --   -0.70253  -0.69423  -0.69393  -0.69317  -0.68522
 Alpha  occ. eigenvalues --   -0.67554  -0.66837  -0.65345  -0.64927  -0.63427
 Alpha  occ. eigenvalues --   -0.63252  -0.62655  -0.61799  -0.61617  -0.60734
 Alpha  occ. eigenvalues --   -0.59804  -0.59302  -0.59263  -0.58348  -0.58116
 Alpha  occ. eigenvalues --   -0.57840  -0.57301  -0.56882  -0.56686  -0.54847
 Alpha  occ. eigenvalues --   -0.54599  -0.54120  -0.53731  -0.53374  -0.52203
 Alpha  occ. eigenvalues --   -0.51754  -0.51211  -0.50627  -0.50406  -0.49812
 Alpha  occ. eigenvalues --   -0.49589  -0.49402  -0.49278  -0.48893  -0.48768
 Alpha  occ. eigenvalues --   -0.48299  -0.48234  -0.48035  -0.47620  -0.47402
 Alpha  occ. eigenvalues --   -0.47368  -0.47252  -0.46861  -0.46559  -0.46447
 Alpha  occ. eigenvalues --   -0.46325  -0.45932  -0.45483  -0.45356  -0.45114
 Alpha  occ. eigenvalues --   -0.45031  -0.44928  -0.44728  -0.44532  -0.44260
 Alpha  occ. eigenvalues --   -0.43969  -0.43915  -0.43515  -0.43361  -0.43329
 Alpha  occ. eigenvalues --   -0.43270  -0.42784  -0.42749  -0.42583  -0.42432
 Alpha  occ. eigenvalues --   -0.42159  -0.42104  -0.41865  -0.41759  -0.41647
 Alpha  occ. eigenvalues --   -0.41170  -0.40772  -0.40657  -0.40596  -0.40394
 Alpha  occ. eigenvalues --   -0.40293  -0.39970  -0.39817  -0.39690  -0.39494
 Alpha  occ. eigenvalues --   -0.39377  -0.39246  -0.39055  -0.38935  -0.38927
 Alpha  occ. eigenvalues --   -0.38644  -0.38426  -0.38310  -0.38089  -0.37980
 Alpha  occ. eigenvalues --   -0.37630  -0.37551  -0.37422  -0.37204  -0.37033
 Alpha  occ. eigenvalues --   -0.36885  -0.36833  -0.36293  -0.36035  -0.35864
 Alpha  occ. eigenvalues --   -0.35525  -0.35358  -0.35317  -0.35115  -0.34905
 Alpha  occ. eigenvalues --   -0.34804  -0.34414  -0.34302  -0.34228  -0.34029
 Alpha  occ. eigenvalues --   -0.33490  -0.33011  -0.32773  -0.32524  -0.32439
 Alpha  occ. eigenvalues --   -0.32255  -0.32053  -0.31672  -0.31584  -0.31380
 Alpha  occ. eigenvalues --   -0.31268  -0.30627  -0.30303  -0.30065  -0.29237
 Alpha  occ. eigenvalues --   -0.28917  -0.28540  -0.27381  -0.27055  -0.26068
 Alpha  occ. eigenvalues --   -0.25762  -0.25493  -0.24752  -0.24361  -0.20491
 Alpha  occ. eigenvalues --   -0.18652
 Alpha virt. eigenvalues --   -0.10901  -0.04713  -0.03131  -0.01198  -0.00863
 Alpha virt. eigenvalues --   -0.00017   0.00166   0.02235   0.02512   0.03159
 Alpha virt. eigenvalues --    0.03866   0.04531   0.04827   0.05540   0.05722

 Mulliken charges:
               1
     1  Mg   0.994347
     2  C   -0.020951
     3  C   -0.056242
     4  C   -0.058085
     5  C   -0.064138
     6  N   -0.275955
     7  C    0.007595
     8  C   -0.141853
     9  C   -0.145734
    10  C    0.030312
    11  C    0.017053
    12  C    0.028112
    13  C    0.010514
    14  C    0.214831
    15  O   -0.248082
    16  O   -0.387052
    17  N   -0.536412
    18  C    0.153583
    19  C   -0.142854
    20  C   -0.114730
    21  C    0.178944
    22  C    0.058422
    23  C    0.017412
    24  O   -0.228739
    25  C   -0.010335
    26  N   -0.379381
    27  C    0.090519
    28  C   -0.174568
    29  C   -0.044459
    30  C    0.013809
    31  C    0.010364
    32  C    0.006028
    33  C   -0.096980
    34  N   -0.417496
    35  C    0.124949
    36  C   -0.210146
    37  C   -0.017420
    38  C    0.138340
    39  C    0.074230
    40  C    0.122070
    41  O   -0.239515
    42  C   -0.099840
    43  C    0.249908
    44  O   -0.269492
    45  O   -0.321269
    46  C    0.096346
    47  C    0.241903
    48  C   -0.133772
    49  C   -0.220179
    50  C    0.015445
    51  C   -0.003267
    52  C   -0.031037
    53  C   -0.015981
    54  C   -0.211047
    55  C   -0.012280
    56  C   -0.016278
    57  C   -0.045705
    58  C   -0.023204
    59  C   -0.188760
    60  C   -0.012412
    61  C    0.001421
    62  C   -0.066907
    63  C   -0.015057
    64  C   -0.249815
    65  C   -0.014426
    66  C   -0.031563
    67  H   -0.005431
    68  H    0.033299
    69  H    0.005188
    70  H    0.069589
    71  H    0.042930
    72  H    0.041864
    73  H    0.058558
    74  H    0.054364
    75  H    0.042036
    76  H    0.051848
    77  H    0.068805
    78  H    0.067212
    79  H    0.054382
    80  H    0.038001
    81  H    0.063325
    82  H    0.066567
    83  H    0.061012
    84  H    0.052936
    85  H    0.050911
    86  H    0.040281
    87  H    0.050492
    88  H    0.053202
    89  H    0.045722
    90  H    0.057661
    91  H    0.043992
    92  H    0.047107
    93  H    0.035617
    94  H    0.051329
    95  H    0.058865
    96  H    0.024435
    97  H    0.064032
    98  H    0.072751
    99  H    0.076692
   100  H    0.068017
   101  H    0.052189
   102  H    0.047862
   103  H    0.047320
   104  H    0.031719
   105  H    0.037255
   106  H    0.056542
   107  H    0.054227
   108  H    0.055879
   109  H    0.019278
   110  H    0.047352
   111  H    0.038816
   112  H    0.025722
   113  H    0.031026
   114  H    0.026169
   115  H    0.039571
   116  H    0.035285
   117  H    0.026928
   118  H    0.026826
   119  H    0.035619
   120  H    0.042317
   121  H    0.033123
   122  H    0.015772
   123  H    0.025910
   124  H    0.039567
   125  H    0.032286
   126  H    0.020006
   127  H    0.023125
   128  H    0.022051
   129  H    0.023767
   130  H    0.044429
   131  H    0.044561
   132  H    0.036663
   133  H    0.027687
   134  H    0.034304
   135  H    0.037291
   136  H    0.039435
   137  H    0.031440
   138  H    0.023971
   139  H    0.027586
   140  H    0.028489
 Sum of Mulliken charges =  -0.00000

 Dipole moment (field-independent basis, Debye):
    X=              6.2991    Y=              4.4320    Z=             -3.2665  Tot=              8.3661
 Quadrupole moment (field-independent basis, Debye-Ang):
   XX=           -379.9361   YY=           -432.4926   ZZ=           -402.8440
   XY=            -30.1144   XZ=              6.8732   YZ=             14.1813

 Normal termination of Gaussian 16 at Sat Apr 30 03:29:21 2022.
