 Gaussian 16, Revision A.03,
 Gaussian 16:  ES64L-G16RevA.03 25-Dec-2016

 --------------------------------
 #p wB97XD/Def2SVP td=(nstates=5)
 --------------------------------

 ---------------------------------------------------
 step_551_chromophore_3 TDDFT with wB97XD functional
 ---------------------------------------------------
 Symbolic Z-matrix:
 Charge =  0 Multiplicity = 1

                         Standard orientation:
 ---------------------------------------------------------------------
 Center     Atomic      Atomic             Coordinates (Angstroms)
 Number     Number       Type             X           Y           Z
 ---------------------------------------------------------------------
      1         12           0       -5.248409    0.900242   -0.122465
      2          6           0       -4.312626   -2.552121   -0.159371
      3          6           0       -1.953197    1.538651    0.325478
      4          6           0       -6.151078    4.081852   -0.023850
      5          6           0       -8.605924   -0.081834    0.451950
      6          7           0       -3.349139   -0.376196   -0.096514
      7          6           0       -3.196125   -1.697230   -0.247326
      8          6           0       -1.716752   -2.114835   -0.388475
      9          6           0       -0.983398   -0.793460    0.131359
     10          6           0       -2.227173    0.174340    0.113873
     11          6           0       -0.264840   -0.862731    1.492880
     12          6           0       -1.393533   -2.522255   -1.829161
     13          6           0       -0.240379   -3.582687   -1.944976
     14          6           0        0.878711   -3.364450   -0.924686
     15          8           0        0.986039   -3.841113    0.176244
     16          8           0        1.844059   -2.625081   -1.587547
     17          7           0       -4.172964    2.575710    0.025943
     18          6           0       -2.788248    2.713378    0.170324
     19          6           0       -2.380743    4.105791    0.245999
     20          6           0       -3.601634    4.803597    0.085532
     21          6           0       -4.746091    3.785593   -0.008441
     22          6           0       -0.928438    4.572200    0.354407
     23          6           0       -3.781213    6.298881   -0.018224
     24          8           0       -4.872140    6.794264   -0.178627
     25          6           0       -2.570172    7.222851    0.009491
     26          7           0       -7.129828    1.819618    0.142664
     27          6           0       -7.231912    3.165277    0.160052
     28          6           0       -8.760541    3.587746    0.195674
     29          6           0       -9.488708    2.224372    0.103464
     30          6           0       -8.338102    1.288811    0.268673
     31          6           0       -9.078161    4.423686    1.479402
     32          6           0      -10.458666    1.962034   -1.058441
     33          6           0      -11.950159    1.963452   -0.604307
     34          7           0       -6.310994   -0.941846    0.045661
     35          6           0       -7.612334   -1.160462    0.342846
     36          6           0       -7.788479   -2.527331    0.580986
     37          6           0       -6.552226   -3.123909    0.343404
     38          6           0       -5.695534   -2.096271   -0.007887
     39          6           0       -8.994480   -3.250986    1.015720
     40          6           0       -5.857723   -4.364085    0.384660
     41          8           0       -6.279459   -5.508467    0.603244
     42          6           0       -4.364875   -4.041356   -0.105749
     43          6           0       -3.555460   -4.726495    0.904243
     44          8           0       -3.729500   -4.621441    2.115531
     45          8           0       -2.662111   -5.499466    0.342521
     46          6           0       -1.705993   -6.120109    1.309791
     47          6           0        3.084368   -2.266347   -0.851935
     48          6           0        4.287098   -2.180058   -1.839065
     49          6           0        5.513604   -2.797496   -1.748301
     50          6           0        5.902978   -3.790681   -0.712805
     51          6           0        6.513700   -2.312297   -2.800196
     52          6           0        6.686180   -0.818523   -2.966727
     53          6           0        8.157702   -0.479729   -3.197029
     54          6           0        8.760807    0.737703   -2.392028
     55          6           0        8.597513    0.555542   -0.910758
     56          6           0       10.304640    0.963781   -2.720039
     57          6           0       10.796832    2.440143   -2.554265
     58          6           0       12.184180    2.486933   -1.811186
     59          6           0       12.091215    2.624898   -0.239769
     60          6           0       12.574970    3.964745    0.328945
     61          6           0       12.622965    1.409292    0.405272
     62          6           0       11.663468    0.896207    1.579784
     63          6           0       12.434326   -0.029360    2.650117
     64          6           0       12.234241    0.384443    4.141007
     65          6           0       13.091711   -0.537483    4.982353
     66          6           0       10.739775    0.187792    4.571526
     67          1           0       -0.904159    1.732022    0.559166
     68          1           0       -6.424333    5.135478   -0.116112
     69          1           0       -9.662117   -0.317837    0.594193
     70          1           0       -1.415286   -2.889800    0.316279
     71          1           0       -0.335068   -0.474709   -0.685383
     72          1           0        0.667045   -0.297503    1.512077
     73          1           0        0.009014   -1.903909    1.661606
     74          1           0       -0.872932   -0.578965    2.352111
     75          1           0       -1.238873   -1.637807   -2.446475
     76          1           0       -2.232007   -3.045570   -2.289231
     77          1           0        0.059203   -3.577287   -2.992501
     78          1           0       -0.605231   -4.540284   -1.573288
     79          1           0       -0.612543    5.290628   -0.402647
     80          1           0       -0.257728    3.726185    0.201110
     81          1           0       -0.719203    4.975768    1.344827
     82          1           0       -1.971414    6.946667   -0.858709
     83          1           0       -2.137214    7.061177    0.996354
     84          1           0       -2.884787    8.261199   -0.090894
     85          1           0       -8.953029    4.261157   -0.639301
     86          1           0      -10.029599    2.093564    1.040971
     87          1           0       -8.227042    4.285180    2.147397
     88          1           0      -10.046860    4.217306    1.935073
     89          1           0       -8.991617    5.459583    1.152076
     90          1           0      -10.162170    1.046795   -1.571153
     91          1           0      -10.442063    2.866781   -1.666914
     92          1           0      -12.396455    2.950534   -0.727408
     93          1           0      -12.190450    1.754470    0.437460
     94          1           0      -12.383193    1.146723   -1.181680
     95          1           0       -9.552259   -3.747895    0.223116
     96          1           0       -9.664046   -2.557193    1.524404
     97          1           0       -8.652166   -3.977068    1.753183
     98          1           0       -4.202556   -4.503272   -1.079759
     99          1           0       -1.836998   -6.051742    2.389538
    100          1           0       -0.683367   -5.787218    1.135299
    101          1           0       -1.722594   -7.200951    1.167764
    102          1           0        3.364801   -2.985313   -0.081640
    103          1           0        2.852647   -1.289268   -0.426383
    104          1           0        4.109873   -1.502865   -2.674905
    105          1           0        5.066015   -4.186276   -0.138145
    106          1           0        6.528134   -3.350343    0.064116
    107          1           0        6.392434   -4.672099   -1.125098
    108          1           0        6.307739   -2.771183   -3.766635
    109          1           0        7.432120   -2.775389   -2.437456
    110          1           0        6.237444   -0.285780   -2.128535
    111          1           0        6.116545   -0.673886   -3.884865
    112          1           0        8.230573   -0.219957   -4.254018
    113          1           0        8.863733   -1.290964   -3.023963
    114          1           0        8.171924    1.609598   -2.676640
    115          1           0        9.117273    1.404597   -0.467439
    116          1           0        8.997782   -0.340608   -0.434997
    117          1           0        7.535530    0.547295   -0.665755
    118          1           0       10.502416    0.784090   -3.776602
    119          1           0       10.846628    0.232316   -2.122088
    120          1           0       10.058965    3.111886   -2.114682
    121          1           0       11.139656    2.773662   -3.533789
    122          1           0       12.718797    3.329282   -2.250776
    123          1           0       12.793173    1.612462   -2.042505
    124          1           0       11.028564    2.709773   -0.013256
    125          1           0       11.834847    4.633913    0.766024
    126          1           0       13.064561    4.555768   -0.445151
    127          1           0       13.360773    3.981985    1.084830
    128          1           0       13.632523    1.627176    0.752274
    129          1           0       12.776848    0.554051   -0.252639
    130          1           0       10.928635    0.226923    1.133341
    131          1           0       11.301590    1.800519    2.068003
    132          1           0       13.512709   -0.114681    2.516461
    133          1           0       11.875109   -0.962840    2.574550
    134          1           0       12.430553    1.418187    4.427071
    135          1           0       14.078182   -0.081977    4.904748
    136          1           0       12.986807   -1.565364    4.633112
    137          1           0       12.827432   -0.519191    6.039595
    138          1           0       10.659321   -0.555935    5.362922
    139          1           0       10.064902   -0.114954    3.770973
    140          1           0       10.276419    1.073247    5.006458
 ---------------------------------------------------------------------

 SCF Done:  E(RwB97XD) =  -3007.88744058     A.U. after   17 cycles

 Excitation energies and oscillator strengths:

 Excited State   1:      Singlet-A      1.7306 eV  716.44 nm  f=0.3669  <S**2>=0.000
     245 -> 248        0.17622
     246 -> 247        0.68438
     245 <- 248        0.10906
 This state for optimization and/or second-order correction.
 Total Energy, E(TD-HF/TD-DFT) =  -3007.82384325
 Copying the excited state density for this state as the 1-particle RhoCI density.

 Excited State   2:      Singlet-A      2.1869 eV  566.93 nm  f=0.1724  <S**2>=0.000
     245 -> 247        0.65007
     246 -> 248       -0.25966

 Excited State   3:      Singlet-A      3.4542 eV  358.94 nm  f=0.0061  <S**2>=0.000
     241 -> 247       -0.13792
     244 -> 247        0.66434
     244 -> 249        0.12339

 Excited State   4:      Singlet-A      3.5589 eV  348.38 nm  f=0.0006  <S**2>=0.000
     240 -> 247       -0.22734
     240 -> 249        0.13377
     241 -> 247       -0.15949
     243 -> 247        0.50661
     243 -> 249        0.23585
     243 -> 250       -0.20824

 Excited State   5:      Singlet-A      3.5628 eV  348.00 nm  f=0.0390  <S**2>=0.000
     240 -> 247        0.45416
     240 -> 248        0.12939
     240 -> 249       -0.25774
     240 -> 250       -0.12242
     241 -> 247        0.16062
     243 -> 247        0.26410
     243 -> 249        0.12747
     243 -> 250       -0.10616
     246 -> 248        0.19076

 The electronic state is 1-A.
 Alpha  occ. eigenvalues --  -46.95291 -19.30740 -19.30250 -19.26446 -19.24127
 Alpha  occ. eigenvalues --  -19.22256 -19.22255 -14.46730 -14.46146 -14.45097
 Alpha  occ. eigenvalues --  -14.42768 -10.43919 -10.41321 -10.39059 -10.37340
 Alpha  occ. eigenvalues --  -10.36560 -10.35851 -10.35551 -10.35522 -10.34804
 Alpha  occ. eigenvalues --  -10.34420 -10.34326 -10.34092 -10.33413 -10.32392
 Alpha  occ. eigenvalues --  -10.32307 -10.32296 -10.32274 -10.32181 -10.32030
 Alpha  occ. eigenvalues --  -10.31948 -10.31748 -10.31689 -10.31679 -10.31502
 Alpha  occ. eigenvalues --  -10.31253 -10.30817 -10.30616 -10.30566 -10.30552
 Alpha  occ. eigenvalues --  -10.30396 -10.30346 -10.30293 -10.30248 -10.30237
 Alpha  occ. eigenvalues --  -10.29880 -10.29875 -10.29660 -10.29637 -10.29610
 Alpha  occ. eigenvalues --  -10.29602 -10.29474 -10.29458 -10.29350 -10.29262
 Alpha  occ. eigenvalues --  -10.29221 -10.29209 -10.29114 -10.28988 -10.28554
 Alpha  occ. eigenvalues --  -10.28548 -10.28367 -10.28082 -10.27898 -10.27859
 Alpha  occ. eigenvalues --  -10.26552  -3.21304  -1.94903  -1.94436  -1.94270
 Alpha  occ. eigenvalues --   -1.19413  -1.18815  -1.13383  -1.11239  -1.09613
 Alpha  occ. eigenvalues --   -1.08684  -1.08049  -1.06852  -1.06024  -1.05421
 Alpha  occ. eigenvalues --   -0.93847  -0.92983  -0.91760  -0.91585  -0.91053
 Alpha  occ. eigenvalues --   -0.90462  -0.90434  -0.89635  -0.89243  -0.88622
 Alpha  occ. eigenvalues --   -0.87587  -0.87357  -0.86456  -0.85136  -0.84973
 Alpha  occ. eigenvalues --   -0.84324  -0.83988  -0.83289  -0.82583  -0.82032
 Alpha  occ. eigenvalues --   -0.81900  -0.80753  -0.79747  -0.79120  -0.78437
 Alpha  occ. eigenvalues --   -0.77743  -0.77125  -0.77037  -0.76972  -0.76223
 Alpha  occ. eigenvalues --   -0.75160  -0.74290  -0.72964  -0.72495  -0.70957
 Alpha  occ. eigenvalues --   -0.70883  -0.70179  -0.69387  -0.69282  -0.68253
 Alpha  occ. eigenvalues --   -0.67231  -0.66930  -0.66807  -0.65812  -0.65766
 Alpha  occ. eigenvalues --   -0.65348  -0.64979  -0.64356  -0.64170  -0.62528
 Alpha  occ. eigenvalues --   -0.62123  -0.61618  -0.61058  -0.60757  -0.59477
 Alpha  occ. eigenvalues --   -0.59122  -0.58681  -0.58121  -0.57920  -0.57259
 Alpha  occ. eigenvalues --   -0.56981  -0.56845  -0.56664  -0.56406  -0.56072
 Alpha  occ. eigenvalues --   -0.55786  -0.55692  -0.55570  -0.55246  -0.54797
 Alpha  occ. eigenvalues --   -0.54674  -0.54603  -0.54311  -0.53928  -0.53840
 Alpha  occ. eigenvalues --   -0.53559  -0.53337  -0.52937  -0.52740  -0.52573
 Alpha  occ. eigenvalues --   -0.52390  -0.52329  -0.52135  -0.51838  -0.51476
 Alpha  occ. eigenvalues --   -0.51381  -0.51282  -0.50943  -0.50770  -0.50737
 Alpha  occ. eigenvalues --   -0.50639  -0.50227  -0.50043  -0.49854  -0.49692
 Alpha  occ. eigenvalues --   -0.49531  -0.49358  -0.49117  -0.49017  -0.48808
 Alpha  occ. eigenvalues --   -0.48428  -0.47939  -0.47838  -0.47717  -0.47561
 Alpha  occ. eigenvalues --   -0.47513  -0.47132  -0.46976  -0.46825  -0.46631
 Alpha  occ. eigenvalues --   -0.46593  -0.46330  -0.46229  -0.46130  -0.45912
 Alpha  occ. eigenvalues --   -0.45778  -0.45574  -0.45436  -0.45267  -0.45217
 Alpha  occ. eigenvalues --   -0.45063  -0.44764  -0.44576  -0.44213  -0.44128
 Alpha  occ. eigenvalues --   -0.44029  -0.43913  -0.43339  -0.43070  -0.42909
 Alpha  occ. eigenvalues --   -0.42555  -0.42453  -0.42284  -0.42098  -0.42030
 Alpha  occ. eigenvalues --   -0.41917  -0.41539  -0.41402  -0.41237  -0.40925
 Alpha  occ. eigenvalues --   -0.40342  -0.40084  -0.39865  -0.39572  -0.39348
 Alpha  occ. eigenvalues --   -0.39257  -0.39072  -0.38682  -0.38496  -0.38445
 Alpha  occ. eigenvalues --   -0.38275  -0.37637  -0.37297  -0.37009  -0.35899
 Alpha  occ. eigenvalues --   -0.35785  -0.35339  -0.34252  -0.33906  -0.33021
 Alpha  occ. eigenvalues --   -0.32712  -0.32501  -0.31329  -0.30707  -0.25486
 Alpha  occ. eigenvalues --   -0.22943
 Alpha virt. eigenvalues --   -0.06786   0.00827   0.03065   0.05394   0.05711
 Alpha virt. eigenvalues --    0.05997   0.06942   0.08723   0.09316   0.09537
 Alpha virt. eigenvalues --    0.10600   0.11316   0.11504   0.12268   0.12370

 Mulliken charges:
               1
     1  Mg   0.984486
     2  C   -0.024876
     3  C   -0.072744
     4  C   -0.084023
     5  C   -0.084390
     6  N   -0.232888
     7  C   -0.026596
     8  C   -0.105274
     9  C   -0.123286
    10  C    0.016280
    11  C    0.026574
    12  C    0.032990
    13  C    0.033583
    14  C    0.195905
    15  O   -0.241798
    16  O   -0.386074
    17  N   -0.505916
    18  C    0.151879
    19  C   -0.135852
    20  C   -0.103889
    21  C    0.173411
    22  C    0.070027
    23  C    0.013704
    24  O   -0.221029
    25  C    0.003811
    26  N   -0.346263
    27  C    0.085528
    28  C   -0.150949
    29  C   -0.018400
    30  C   -0.001623
    31  C    0.020549
    32  C    0.022009
    33  C   -0.082083
    34  N   -0.373878
    35  C    0.111887
    36  C   -0.207557
    37  C   -0.011183
    38  C    0.111184
    39  C    0.085231
    40  C    0.103541
    41  O   -0.233068
    42  C   -0.058270
    43  C    0.223012
    44  O   -0.265059
    45  O   -0.318067
    46  C    0.114413
    47  C    0.259122
    48  C   -0.142163
    49  C   -0.208715
    50  C    0.028423
    51  C    0.015045
    52  C   -0.010150
    53  C   -0.003268
    54  C   -0.178235
    55  C    0.006037
    56  C   -0.003454
    57  C   -0.027160
    58  C   -0.007335
    59  C   -0.154787
    60  C   -0.004238
    61  C    0.011856
    62  C   -0.040551
    63  C    0.001624
    64  C   -0.221132
    65  C   -0.001662
    66  C   -0.022666
    67  H   -0.012885
    68  H    0.029698
    69  H   -0.001584
    70  H    0.046583
    71  H    0.032418
    72  H    0.036698
    73  H    0.052855
    74  H    0.050117
    75  H    0.034767
    76  H    0.043250
    77  H    0.065326
    78  H    0.058327
    79  H    0.051073
    80  H    0.034966
    81  H    0.061201
    82  H    0.060657
    83  H    0.055300
    84  H    0.053321
    85  H    0.041606
    86  H    0.024911
    87  H    0.043389
    88  H    0.049254
    89  H    0.040006
    90  H    0.050661
    91  H    0.033706
    92  H    0.040861
    93  H    0.029101
    94  H    0.045953
    95  H    0.052726
    96  H    0.016330
    97  H    0.058045
    98  H    0.066963
    99  H    0.073314
   100  H    0.061782
   101  H    0.048184
   102  H    0.040287
   103  H    0.042514
   104  H    0.027692
   105  H    0.031867
   106  H    0.050990
   107  H    0.049781
   108  H    0.049501
   109  H    0.007546
   110  H    0.033885
   111  H    0.031238
   112  H    0.017837
   113  H    0.020601
   114  H    0.015195
   115  H    0.023807
   116  H    0.028560
   117  H    0.020259
   118  H    0.019514
   119  H    0.023043
   120  H    0.034332
   121  H    0.025817
   122  H    0.007762
   123  H    0.016295
   124  H    0.019891
   125  H    0.027749
   126  H    0.013315
   127  H    0.017435
   128  H    0.013018
   129  H    0.014875
   130  H    0.029824
   131  H    0.033536
   132  H    0.028490
   133  H    0.017031
   134  H    0.025102
   135  H    0.030784
   136  H    0.032757
   137  H    0.025546
   138  H    0.017820
   139  H    0.020767
   140  H    0.023289
 Sum of Mulliken charges =  -0.00000

 Dipole moment (field-independent basis, Debye):
    X=              7.0181    Y=              5.3037    Z=             -3.2985  Tot=              9.3949
 Quadrupole moment (field-independent basis, Debye-Ang):
   XX=           -387.3403   YY=           -429.5900   ZZ=           -402.5868
   XY=            -33.4475   XZ=              7.5550   YZ=             14.5975

 Normal termination of Gaussian 16 at Sat Apr 30 03:55:37 2022.
