 Gaussian 16, Revision A.03,
 Gaussian 16:  ES64L-G16RevA.03 25-Dec-2016

 --------------------
 #p ZINDO=(nstates=5)
 --------------------

 ----------------------------
 step_551_chromophore_3 ZINDO
 ----------------------------
 Symbolic Z-matrix:
 Charge =  0 Multiplicity = 1

                         Standard orientation:
 ---------------------------------------------------------------------
 Center     Atomic      Atomic             Coordinates (Angstroms)
 Number     Number       Type             X           Y           Z
 ---------------------------------------------------------------------
      1         12           0       -5.248409    0.900242   -0.122465
      2          6           0       -4.312626   -2.552121   -0.159371
      3          6           0       -1.953197    1.538651    0.325478
      4          6           0       -6.151078    4.081852   -0.023850
      5          6           0       -8.605924   -0.081834    0.451950
      6          7           0       -3.349139   -0.376196   -0.096514
      7          6           0       -3.196125   -1.697230   -0.247326
      8          6           0       -1.716752   -2.114835   -0.388475
      9          6           0       -0.983398   -0.793460    0.131359
     10          6           0       -2.227173    0.174340    0.113873
     11          6           0       -0.264840   -0.862731    1.492880
     12          6           0       -1.393533   -2.522255   -1.829161
     13          6           0       -0.240379   -3.582687   -1.944976
     14          6           0        0.878711   -3.364450   -0.924686
     15          8           0        0.986039   -3.841113    0.176244
     16          8           0        1.844059   -2.625081   -1.587547
     17          7           0       -4.172964    2.575710    0.025943
     18          6           0       -2.788248    2.713378    0.170324
     19          6           0       -2.380743    4.105791    0.245999
     20          6           0       -3.601634    4.803597    0.085532
     21          6           0       -4.746091    3.785593   -0.008441
     22          6           0       -0.928438    4.572200    0.354407
     23          6           0       -3.781213    6.298881   -0.018224
     24          8           0       -4.872140    6.794264   -0.178627
     25          6           0       -2.570172    7.222851    0.009491
     26          7           0       -7.129828    1.819618    0.142664
     27          6           0       -7.231912    3.165277    0.160052
     28          6           0       -8.760541    3.587746    0.195674
     29          6           0       -9.488708    2.224372    0.103464
     30          6           0       -8.338102    1.288811    0.268673
     31          6           0       -9.078161    4.423686    1.479402
     32          6           0      -10.458666    1.962034   -1.058441
     33          6           0      -11.950159    1.963452   -0.604307
     34          7           0       -6.310994   -0.941846    0.045661
     35          6           0       -7.612334   -1.160462    0.342846
     36          6           0       -7.788479   -2.527331    0.580986
     37          6           0       -6.552226   -3.123909    0.343404
     38          6           0       -5.695534   -2.096271   -0.007887
     39          6           0       -8.994480   -3.250986    1.015720
     40          6           0       -5.857723   -4.364085    0.384660
     41          8           0       -6.279459   -5.508467    0.603244
     42          6           0       -4.364875   -4.041356   -0.105749
     43          6           0       -3.555460   -4.726495    0.904243
     44          8           0       -3.729500   -4.621441    2.115531
     45          8           0       -2.662111   -5.499466    0.342521
     46          6           0       -1.705993   -6.120109    1.309791
     47          6           0        3.084368   -2.266347   -0.851935
     48          6           0        4.287098   -2.180058   -1.839065
     49          6           0        5.513604   -2.797496   -1.748301
     50          6           0        5.902978   -3.790681   -0.712805
     51          6           0        6.513700   -2.312297   -2.800196
     52          6           0        6.686180   -0.818523   -2.966727
     53          6           0        8.157702   -0.479729   -3.197029
     54          6           0        8.760807    0.737703   -2.392028
     55          6           0        8.597513    0.555542   -0.910758
     56          6           0       10.304640    0.963781   -2.720039
     57          6           0       10.796832    2.440143   -2.554265
     58          6           0       12.184180    2.486933   -1.811186
     59          6           0       12.091215    2.624898   -0.239769
     60          6           0       12.574970    3.964745    0.328945
     61          6           0       12.622965    1.409292    0.405272
     62          6           0       11.663468    0.896207    1.579784
     63          6           0       12.434326   -0.029360    2.650117
     64          6           0       12.234241    0.384443    4.141007
     65          6           0       13.091711   -0.537483    4.982353
     66          6           0       10.739775    0.187792    4.571526
     67          1           0       -0.904159    1.732022    0.559166
     68          1           0       -6.424333    5.135478   -0.116112
     69          1           0       -9.662117   -0.317837    0.594193
     70          1           0       -1.415286   -2.889800    0.316279
     71          1           0       -0.335068   -0.474709   -0.685383
     72          1           0        0.667045   -0.297503    1.512077
     73          1           0        0.009014   -1.903909    1.661606
     74          1           0       -0.872932   -0.578965    2.352111
     75          1           0       -1.238873   -1.637807   -2.446475
     76          1           0       -2.232007   -3.045570   -2.289231
     77          1           0        0.059203   -3.577287   -2.992501
     78          1           0       -0.605231   -4.540284   -1.573288
     79          1           0       -0.612543    5.290628   -0.402647
     80          1           0       -0.257728    3.726185    0.201110
     81          1           0       -0.719203    4.975768    1.344827
     82          1           0       -1.971414    6.946667   -0.858709
     83          1           0       -2.137214    7.061177    0.996354
     84          1           0       -2.884787    8.261199   -0.090894
     85          1           0       -8.953029    4.261157   -0.639301
     86          1           0      -10.029599    2.093564    1.040971
     87          1           0       -8.227042    4.285180    2.147397
     88          1           0      -10.046860    4.217306    1.935073
     89          1           0       -8.991617    5.459583    1.152076
     90          1           0      -10.162170    1.046795   -1.571153
     91          1           0      -10.442063    2.866781   -1.666914
     92          1           0      -12.396455    2.950534   -0.727408
     93          1           0      -12.190450    1.754470    0.437460
     94          1           0      -12.383193    1.146723   -1.181680
     95          1           0       -9.552259   -3.747895    0.223116
     96          1           0       -9.664046   -2.557193    1.524404
     97          1           0       -8.652166   -3.977068    1.753183
     98          1           0       -4.202556   -4.503272   -1.079759
     99          1           0       -1.836998   -6.051742    2.389538
    100          1           0       -0.683367   -5.787218    1.135299
    101          1           0       -1.722594   -7.200951    1.167764
    102          1           0        3.364801   -2.985313   -0.081640
    103          1           0        2.852647   -1.289268   -0.426383
    104          1           0        4.109873   -1.502865   -2.674905
    105          1           0        5.066015   -4.186276   -0.138145
    106          1           0        6.528134   -3.350343    0.064116
    107          1           0        6.392434   -4.672099   -1.125098
    108          1           0        6.307739   -2.771183   -3.766635
    109          1           0        7.432120   -2.775389   -2.437456
    110          1           0        6.237444   -0.285780   -2.128535
    111          1           0        6.116545   -0.673886   -3.884865
    112          1           0        8.230573   -0.219957   -4.254018
    113          1           0        8.863733   -1.290964   -3.023963
    114          1           0        8.171924    1.609598   -2.676640
    115          1           0        9.117273    1.404597   -0.467439
    116          1           0        8.997782   -0.340608   -0.434997
    117          1           0        7.535530    0.547295   -0.665755
    118          1           0       10.502416    0.784090   -3.776602
    119          1           0       10.846628    0.232316   -2.122088
    120          1           0       10.058965    3.111886   -2.114682
    121          1           0       11.139656    2.773662   -3.533789
    122          1           0       12.718797    3.329282   -2.250776
    123          1           0       12.793173    1.612462   -2.042505
    124          1           0       11.028564    2.709773   -0.013256
    125          1           0       11.834847    4.633913    0.766024
    126          1           0       13.064561    4.555768   -0.445151
    127          1           0       13.360773    3.981985    1.084830
    128          1           0       13.632523    1.627176    0.752274
    129          1           0       12.776848    0.554051   -0.252639
    130          1           0       10.928635    0.226923    1.133341
    131          1           0       11.301590    1.800519    2.068003
    132          1           0       13.512709   -0.114681    2.516461
    133          1           0       11.875109   -0.962840    2.574550
    134          1           0       12.430553    1.418187    4.427071
    135          1           0       14.078182   -0.081977    4.904748
    136          1           0       12.986807   -1.565364    4.633112
    137          1           0       12.827432   -0.519191    6.039595
    138          1           0       10.659321   -0.555935    5.362922
    139          1           0       10.064902   -0.114954    3.770973
    140          1           0       10.276419    1.073247    5.006458
 ---------------------------------------------------------------------

 SCF Done:  E(RZINDO/S) =  -474.464342460     A.U. after   19 cycles

 Excitation energies and oscillator strengths:

 Excited State   1:      Singlet-A      1.3393 eV  925.74 nm  f=0.5386  <S**2>=0.000
     175 ->178         0.16963
     176 ->177         0.66951
 This state for optimization and/or second-order correction.
 Total Energy, E(CIS/TDA) =  -474.415124109
 Copying the excited state density for this state as the 1-particle RhoCI density.

 Excited State   2:      Singlet-A      1.9189 eV  646.14 nm  f=0.0982  <S**2>=0.000
     175 ->177         0.57244
     176 ->178        -0.37839

 Excited State   3:      Singlet-A      2.9081 eV  426.34 nm  f=0.0058  <S**2>=0.000
     167 ->177         0.11759
     167 ->179        -0.14866
     168 ->177         0.34034
     168 ->178        -0.14840
     168 ->179        -0.38698
     168 ->181         0.22322
     168 ->186        -0.19995

 Excited State   4:      Singlet-A      3.0256 eV  409.78 nm  f=0.4570  <S**2>=0.000
     171 ->177         0.22527
     171 ->179         0.22659
     171 ->181         0.30332
     171 ->186         0.18722
     175 ->177         0.23157
     176 ->178         0.36252

 Excited State   5:      Singlet-A      3.0407 eV  407.75 nm  f=0.6497  <S**2>=0.000
     171 ->177        -0.17365
     171 ->179        -0.17799
     171 ->181        -0.24584
     171 ->186        -0.15638
     175 ->177         0.28247
     176 ->178         0.43981

 The electronic state is 1-A.
 Alpha  occ. eigenvalues --   -1.86427  -1.82656  -1.81429  -1.74524  -1.73516
 Alpha  occ. eigenvalues --   -1.71003  -1.65165  -1.60860  -1.60668  -1.57802
 Alpha  occ. eigenvalues --   -1.56486  -1.52033  -1.49191  -1.47749  -1.45424
 Alpha  occ. eigenvalues --   -1.44625  -1.42466  -1.40234  -1.39039  -1.38574
 Alpha  occ. eigenvalues --   -1.36430  -1.33234  -1.33137  -1.31970  -1.28564
 Alpha  occ. eigenvalues --   -1.27300  -1.23971  -1.22387  -1.20840  -1.18272
 Alpha  occ. eigenvalues --   -1.17088  -1.16395  -1.15288  -1.14524  -1.13801
 Alpha  occ. eigenvalues --   -1.13237  -1.11513  -1.11019  -1.04723  -1.03670
 Alpha  occ. eigenvalues --   -1.02761  -1.00348  -0.99943  -0.97406  -0.96430
 Alpha  occ. eigenvalues --   -0.96148  -0.94929  -0.94367  -0.92819  -0.92808
 Alpha  occ. eigenvalues --   -0.90415  -0.90227  -0.88634  -0.88379  -0.86459
 Alpha  occ. eigenvalues --   -0.86304  -0.83714  -0.83548  -0.82648  -0.80467
 Alpha  occ. eigenvalues --   -0.80311  -0.79812  -0.77594  -0.77155  -0.76182
 Alpha  occ. eigenvalues --   -0.76015  -0.75409  -0.74636  -0.73368  -0.73088
 Alpha  occ. eigenvalues --   -0.72919  -0.72528  -0.72027  -0.71302  -0.70283
 Alpha  occ. eigenvalues --   -0.70060  -0.69604  -0.69199  -0.68566  -0.68249
 Alpha  occ. eigenvalues --   -0.67878  -0.67511  -0.66964  -0.65854  -0.65757
 Alpha  occ. eigenvalues --   -0.65048  -0.64771  -0.64354  -0.63761  -0.63416
 Alpha  occ. eigenvalues --   -0.63130  -0.62973  -0.62503  -0.62362  -0.62142
 Alpha  occ. eigenvalues --   -0.61953  -0.61344  -0.61141  -0.60568  -0.60223
 Alpha  occ. eigenvalues --   -0.59683  -0.58923  -0.58659  -0.58425  -0.58272
 Alpha  occ. eigenvalues --   -0.57806  -0.57607  -0.56980  -0.56535  -0.56090
 Alpha  occ. eigenvalues --   -0.55841  -0.55580  -0.55134  -0.55038  -0.54629
 Alpha  occ. eigenvalues --   -0.54306  -0.54119  -0.53909  -0.53439  -0.53138
 Alpha  occ. eigenvalues --   -0.52745  -0.52243  -0.52206  -0.51827  -0.51732
 Alpha  occ. eigenvalues --   -0.51137  -0.50790  -0.50713  -0.50397  -0.50036
 Alpha  occ. eigenvalues --   -0.49810  -0.49509  -0.49404  -0.49239  -0.48972
 Alpha  occ. eigenvalues --   -0.48919  -0.48711  -0.48301  -0.48027  -0.47807
 Alpha  occ. eigenvalues --   -0.47357  -0.47287  -0.47121  -0.47048  -0.46495
 Alpha  occ. eigenvalues --   -0.46375  -0.46312  -0.46127  -0.46076  -0.45648
 Alpha  occ. eigenvalues --   -0.45456  -0.44812  -0.44534  -0.44296  -0.43968
 Alpha  occ. eigenvalues --   -0.43685  -0.43425  -0.43156  -0.42435  -0.41994
 Alpha  occ. eigenvalues --   -0.41954  -0.41174  -0.39773  -0.39532  -0.38178
 Alpha  occ. eigenvalues --   -0.36631  -0.36293  -0.35606  -0.34774  -0.33684
 Alpha  occ. eigenvalues --   -0.33217  -0.32537  -0.32179  -0.30980  -0.26137
 Alpha  occ. eigenvalues --   -0.21913
 Alpha virt. eigenvalues --   -0.08214  -0.01608  -0.00261   0.01645   0.02124
 Alpha virt. eigenvalues --    0.02369   0.03765   0.03849   0.04125   0.04881
 Alpha virt. eigenvalues --    0.06061   0.06671   0.07057   0.07982   0.08134

 Mulliken charges:
               1
     1  Mg   0.430176
     2  C   -0.027252
     3  C   -0.097232
     4  C   -0.092147
     5  C   -0.090547
     6  N   -0.240841
     7  C    0.079306
     8  C   -0.000094
     9  C   -0.006215
    10  C    0.174200
    11  C   -0.045061
    12  C   -0.015643
    13  C   -0.001684
    14  C    0.473214
    15  O   -0.508870
    16  O   -0.286423
    17  N   -0.318008
    18  C    0.116549
    19  C    0.023536
    20  C   -0.037610
    21  C    0.160979
    22  C   -0.035849
    23  C    0.322851
    24  O   -0.513966
    25  C   -0.031251
    26  N   -0.260249
    27  C    0.158333
    28  C    0.001378
    29  C    0.001189
    30  C    0.105824
    31  C   -0.055159
    32  C   -0.026567
    33  C   -0.063433
    34  N   -0.303835
    35  C    0.065213
    36  C    0.012442
    37  C   -0.061462
    38  C    0.091344
    39  C   -0.041094
    40  C    0.330365
    41  O   -0.539526
    42  C    0.053587
    43  C    0.504154
    44  O   -0.541600
    45  O   -0.248828
    46  C    0.067160
    47  C    0.095613
    48  C   -0.106028
    49  C    0.002143
    50  C   -0.033470
    51  C   -0.020320
    52  C   -0.025513
    53  C   -0.038157
    54  C   -0.014579
    55  C   -0.053974
    56  C   -0.038851
    57  C   -0.040193
    58  C   -0.041847
    59  C    0.000253
    60  C   -0.059195
    61  C   -0.030808
    62  C   -0.052385
    63  C   -0.043200
    64  C   -0.013767
    65  C   -0.055113
    66  C   -0.066313
    67  H    0.020635
    68  H    0.051007
    69  H    0.029657
    70  H    0.045545
    71  H    0.028594
    72  H    0.019621
    73  H    0.029223
    74  H    0.029526
    75  H    0.028284
    76  H    0.019023
    77  H    0.045268
    78  H    0.044023
    79  H    0.032537
    80  H    0.022359
    81  H    0.036686
    82  H    0.041651
    83  H    0.040002
    84  H    0.038349
    85  H    0.031799
    86  H    0.026203
    87  H    0.025665
    88  H    0.032575
    89  H    0.018704
    90  H    0.037717
    91  H    0.021429
    92  H    0.021904
    93  H    0.019381
    94  H    0.020432
    95  H    0.033955
    96  H    0.011698
    97  H    0.034595
    98  H    0.049605
    99  H    0.058559
   100  H    0.038537
   101  H    0.028479
   102  H    0.055011
   103  H    0.040915
   104  H    0.028310
   105  H    0.021791
   106  H    0.030403
   107  H    0.028463
   108  H    0.029770
   109  H    0.009703
   110  H    0.031559
   111  H    0.021129
   112  H    0.008841
   113  H    0.023145
   114  H    0.018691
   115  H    0.014578
   116  H    0.020921
   117  H    0.012265
   118  H    0.014473
   119  H    0.027225
   120  H    0.033564
   121  H    0.016083
   122  H    0.011324
   123  H    0.021457
   124  H    0.014006
   125  H    0.017916
   126  H    0.010029
   127  H    0.015509
   128  H    0.016478
   129  H    0.015010
   130  H    0.029338
   131  H    0.030475
   132  H    0.028748
   133  H    0.022354
   134  H    0.026479
   135  H    0.014422
   136  H    0.025943
   137  H    0.012729
   138  H    0.015007
   139  H    0.015425
   140  H    0.011631
 Sum of Mulliken charges =  -0.00000

 Dipole moment (field-independent basis, Debye):
    X=              9.5216    Y=              8.2741    Z=             -4.5118  Tot=             13.3970
 N-N= 4.320984528137D+03 E-N= 0.000000000000D+00  KE=-9.316442819887D+03
 Leave Link  601 at Sat Apr 30 04:07:12 2022, MaxMem=  6710886400 cpu:               0.8 elap:               0.0
 (Enter /sw/apps/gaussian-16.0/g16/l9999.exe)
 1\1\GINC-BP1-COMPUTE161\SP\RZINDO CIS\STO-3G\C55H74Mg1N4O6\OF15641\30-
 Apr-2022\0\\#p ZINDO=(nstates=5)\\step_551_chromophore_3 ZINDO\\0,1\Mg
 ,0,1.839,7.62,27.211\C,0,1.768,9.84,30.015\C,0,2.885,5.266,29.409\C,0,
 1.961,5.607,24.588\C,0,1.768,10.437,25.06\N,0,2.12,7.547,29.481\C,0,1.
 923,8.495,30.405\C,0,2.016,7.952,31.847\C,0,2.729,6.545,31.59\C,0,2.55
 2,6.487,30.025\C,0,4.188,6.386,32.06\C,0,0.632,7.878,32.499\C,0,0.657,
 8.043,34.061\C,0,1.866,7.371,34.715\O,0,2.94,7.854,34.968\O,0,1.423,6.

 Normal termination of Gaussian 16 at Sat Apr 30 04:07:12 2022.
