 Gaussian 16, Revision A.03,
 Gaussian 16:  ES64L-G16RevA.03 25-Dec-2016

 ------------------------------
 #p blyp/Def2SVP td=(nstates=5)
 ------------------------------

 --------------------------------------------------
 step_1801_chromophore_9 TDDFT with blyp functional
 --------------------------------------------------
 Symbolic Z-matrix:
 Charge =  0 Multiplicity = 1

                         Standard orientation:
 ---------------------------------------------------------------------
 Center     Atomic      Atomic             Coordinates (Angstroms)
 Number     Number       Type             X           Y           Z
 ---------------------------------------------------------------------
      1         12           0       -5.278042    0.638932   -0.257789
      2          6           0       -4.017769   -2.577973   -0.097964
      3          6           0       -2.077245    1.744863   -0.655411
      4          6           0       -6.454615    3.758148    0.356667
      5          6           0       -8.424411   -0.667417    0.837467
      6          7           0       -3.325620   -0.351587   -0.383146
      7          6           0       -3.001456   -1.664177   -0.293977
      8          6           0       -1.547883   -1.918989   -0.589401
      9          6           0       -0.930705   -0.467754   -0.471836
     10          6           0       -2.189977    0.385225   -0.489929
     11          6           0       -0.127549   -0.140255    0.828848
     12          6           0       -1.379008   -2.648940   -1.927742
     13          6           0        0.078498   -2.876204   -2.495480
     14          6           0        1.306028   -2.752486   -1.528276
     15          8           0        1.205806   -2.707053   -0.300825
     16          8           0        2.466396   -2.713890   -2.287222
     17          7           0       -4.416003    2.466487   -0.271199
     18          6           0       -3.062061    2.724053   -0.493740
     19          6           0       -2.879269    4.110107   -0.450573
     20          6           0       -4.112677    4.775462   -0.274132
     21          6           0       -5.090718    3.677333   -0.045786
     22          6           0       -1.534064    4.678106   -0.749488
     23          6           0       -4.487553    6.290612   -0.141470
     24          8           0       -5.673231    6.673614    0.080410
     25          6           0       -3.391861    7.357798   -0.192486
     26          7           0       -7.162736    1.411132    0.387929
     27          6           0       -7.353377    2.735007    0.513931
     28          6           0       -8.860140    3.055496    0.900970
     29          6           0       -9.457230    1.705547    0.988265
     30          6           0       -8.287080    0.757556    0.740154
     31          6           0       -9.130607    4.008499    2.119931
     32          6           0      -10.754642    1.371828    0.092699
     33          6           0      -10.479676    0.906846   -1.367143
     34          7           0       -6.108226   -1.260776    0.131117
     35          6           0       -7.362805   -1.605221    0.634693
     36          6           0       -7.407336   -3.044968    0.854544
     37          6           0       -6.095174   -3.487115    0.559359
     38          6           0       -5.386515   -2.369141    0.106032
     39          6           0       -8.570009   -3.714012    1.432726
     40          6           0       -5.246539   -4.564779    0.617652
     41          8           0       -5.426964   -5.701079    0.993921
     42          6           0       -3.869970   -4.085774    0.124720
     43          6           0       -2.845070   -4.511452    1.084248
     44          8           0       -2.586791   -3.992516    2.172097
     45          8           0       -2.011624   -5.476538    0.534240
     46          6           0       -0.959873   -5.972838    1.464673
     47          6           0        3.722845   -2.664421   -1.487603
     48          6           0        4.720754   -2.191636   -2.505691
     49          6           0        6.068728   -2.087052   -2.332295
     50          6           0        6.854073   -2.421018   -1.043883
     51          6           0        6.874767   -1.682913   -3.512506
     52          6           0        6.816424   -0.247504   -4.041071
     53          6           0        8.278394    0.217813   -4.407458
     54          6           0        8.877967    1.198455   -3.316052
     55          6           0        9.252143    2.525066   -3.989099
     56          6           0       10.098892    0.553697   -2.578505
     57          6           0        9.947320    0.668389   -1.044818
     58          6           0       11.225102    1.057715   -0.278492
     59          6           0       11.070376    2.115651    0.760374
     60          6           0       11.239338    3.566637    0.246123
     61          6           0       11.877849    1.817234    2.110984
     62          6           0       11.025043    1.510325    3.261797
     63          6           0       11.808527    1.405332    4.575038
     64          6           0       11.454444    0.090968    5.371257
     65          6           0       11.992972   -1.225827    4.668835
     66          6           0        9.940307    0.064498    5.723444
     67          1           0       -1.041276    2.071922   -0.764314
     68          1           0       -6.967210    4.719844    0.418948
     69          1           0       -9.398942   -1.038442    1.161175
     70          1           0       -1.115550   -2.450781    0.257730
     71          1           0       -0.245926   -0.163593   -1.263811
     72          1           0       -0.109660   -0.933612    1.576854
     73          1           0       -0.526965    0.761835    1.293143
     74          1           0        0.857871    0.258196    0.586719
     75          1           0       -1.883526   -1.947903   -2.592667
     76          1           0       -1.844220   -3.632964   -1.974643
     77          1           0        0.089972   -1.986891   -3.126391
     78          1           0        0.247369   -3.692871   -3.197693
     79          1           0       -0.879350    4.814409    0.111112
     80          1           0       -1.685875    5.660570   -1.197580
     81          1           0       -1.042725    4.186068   -1.588541
     82          1           0       -2.507597    7.040149    0.359082
     83          1           0       -3.840086    8.247446    0.251911
     84          1           0       -3.128485    7.576663   -1.227132
     85          1           0       -9.343538    3.555052    0.062102
     86          1           0       -9.870628    1.508504    1.977975
     87          1           0       -8.215172    4.534362    2.387471
     88          1           0       -9.508572    3.412201    2.950875
     89          1           0       -9.835266    4.745961    1.735901
     90          1           0      -11.513809    2.145981   -0.009554
     91          1           0      -11.215346    0.512194    0.580581
     92          1           0      -11.100332    1.455296   -2.074941
     93          1           0      -10.723966   -0.147230   -1.498138
     94          1           0       -9.459369    1.217434   -1.593879
     95          1           0       -9.472428   -3.387139    0.917009
     96          1           0       -8.697237   -3.348518    2.452077
     97          1           0       -8.617038   -4.800635    1.350476
     98          1           0       -3.640161   -4.548014   -0.835140
     99          1           0       -1.417342   -6.437281    2.339139
    100          1           0       -0.398324   -5.090423    1.770543
    101          1           0       -0.327396   -6.676429    0.922789
    102          1           0        3.949245   -3.628274   -1.031073
    103          1           0        3.649699   -1.880404   -0.734482
    104          1           0        4.360572   -2.066197   -3.526704
    105          1           0        6.975912   -1.552270   -0.397356
    106          1           0        7.827928   -2.886294   -1.194937
    107          1           0        6.251640   -3.162921   -0.518266
    108          1           0        6.715178   -2.397652   -4.320479
    109          1           0        7.899751   -1.863621   -3.187942
    110          1           0        6.395004    0.420260   -3.289756
    111          1           0        6.294969   -0.282626   -4.997957
    112          1           0        8.157181    0.746618   -5.352995
    113          1           0        9.022468   -0.532535   -4.675560
    114          1           0        8.106932    1.449235   -2.587808
    115          1           0        9.402620    2.414662   -5.062643
    116          1           0       10.147497    2.916591   -3.505538
    117          1           0        8.477540    3.273520   -3.821324
    118          1           0       11.018249    1.057682   -2.877449
    119          1           0       10.148378   -0.525659   -2.728556
    120          1           0        9.635923   -0.332320   -0.743598
    121          1           0        9.186442    1.414994   -0.817234
    122          1           0       12.052379    1.318364   -0.938686
    123          1           0       11.595077    0.112516    0.119703
    124          1           0       10.037240    1.978112    1.079238
    125          1           0       11.298124    3.754330   -0.826539
    126          1           0       12.162321    4.036005    0.588365
    127          1           0       10.484679    4.239447    0.653998
    128          1           0       12.416906    2.728575    2.367951
    129          1           0       12.554072    1.001974    1.854957
    130          1           0       10.319855    0.687443    3.141726
    131          1           0       10.406744    2.373937    3.506880
    132          1           0       11.587220    2.249837    5.227246
    133          1           0       12.875658    1.534160    4.395238
    134          1           0       11.977364    0.244592    6.314685
    135          1           0       11.212079   -1.900395    4.318239
    136          1           0       12.595023   -1.803426    5.370137
    137          1           0       12.567114   -1.046387    3.759702
    138          1           0        9.568139   -0.856292    5.274602
    139          1           0        9.388038    0.906929    5.307407
    140          1           0        9.757254    0.065414    6.798453
 ---------------------------------------------------------------------

 SCF Done:  E(RB-LYP) =  -3007.39200560     A.U. after   21 cycles

 Excitation energies and oscillator strengths:

 Excited State   1:      Singlet-A      1.7856 eV  694.35 nm  f=0.1703  <S**2>=0.000
     244 -> 247        0.41582
     245 -> 247        0.18626
     245 -> 248        0.12913
     246 -> 247        0.52930
     246 <- 247       -0.11823
 This state for optimization and/or second-order correction.
 Total Energy, E(TD-HF/TD-DFT) =  -3007.32638553
 Copying the excited state density for this state as the 1-particle RhoCI density.

 Excited State   2:      Singlet-A      1.8081 eV  685.71 nm  f=0.1522  <S**2>=0.000
     244 -> 247        0.50598
     245 -> 247        0.18589
     245 -> 248       -0.10388
     246 -> 247       -0.44643
     246 <- 247        0.10238

 Excited State   3:      Singlet-A      2.0243 eV  612.48 nm  f=0.0638  <S**2>=0.000
     243 -> 247       -0.35272
     244 -> 247       -0.22515
     245 -> 247        0.52101
     246 -> 248       -0.17014
     246 -> 249        0.11417

 Excited State   4:      Singlet-A      2.0371 eV  608.64 nm  f=0.0203  <S**2>=0.000
     243 -> 247        0.61193
     244 -> 247       -0.12562
     245 -> 247        0.29923
     246 -> 248       -0.10996

 Excited State   5:      Singlet-A      2.3769 eV  521.62 nm  f=0.0000  <S**2>=0.000
     241 -> 247        0.63897
     242 -> 247       -0.30272

 The electronic state is 1-A.
 Alpha  occ. eigenvalues --  -46.26353 -18.83212 -18.80787 -18.78231 -18.75873
 Alpha  occ. eigenvalues --  -18.75546 -18.74396 -14.03010 -14.02962 -14.00832
 Alpha  occ. eigenvalues --  -14.00473 -10.05427 -10.02743 -10.00638  -9.98829
 Alpha  occ. eigenvalues --   -9.97909  -9.96646  -9.96466  -9.96016  -9.95885
 Alpha  occ. eigenvalues --   -9.95711  -9.95677  -9.95345  -9.94836  -9.94360
 Alpha  occ. eigenvalues --   -9.93865  -9.93771  -9.93576  -9.93407  -9.93325
 Alpha  occ. eigenvalues --   -9.93111  -9.93080  -9.93067  -9.93013  -9.93002
 Alpha  occ. eigenvalues --   -9.92941  -9.92899  -9.92790  -9.92711  -9.92580
 Alpha  occ. eigenvalues --   -9.92484  -9.92396  -9.92284  -9.92232  -9.92116
 Alpha  occ. eigenvalues --   -9.92078  -9.91989  -9.91957  -9.91888  -9.91717
 Alpha  occ. eigenvalues --   -9.91631  -9.91398  -9.91354  -9.91348  -9.91309
 Alpha  occ. eigenvalues --   -9.91203  -9.91159  -9.91139  -9.91113  -9.90948
 Alpha  occ. eigenvalues --   -9.90942  -9.90898  -9.90841  -9.90648  -9.90574
 Alpha  occ. eigenvalues --   -9.90087  -2.91088  -1.71517  -1.70967  -1.70800
 Alpha  occ. eigenvalues --   -0.97779  -0.95867  -0.91109  -0.90786  -0.89455
 Alpha  occ. eigenvalues --   -0.87731  -0.86847  -0.86441  -0.85614  -0.83975
 Alpha  occ. eigenvalues --   -0.75643  -0.73873  -0.73344  -0.72364  -0.72190
 Alpha  occ. eigenvalues --   -0.72025  -0.71788  -0.70804  -0.70698  -0.70423
 Alpha  occ. eigenvalues --   -0.69731  -0.69053  -0.67981  -0.67208  -0.66921
 Alpha  occ. eigenvalues --   -0.66471  -0.65814  -0.65329  -0.64809  -0.64411
 Alpha  occ. eigenvalues --   -0.64324  -0.62779  -0.61983  -0.61297  -0.60783
 Alpha  occ. eigenvalues --   -0.60242  -0.60204  -0.60059  -0.59579  -0.59034
 Alpha  occ. eigenvalues --   -0.58036  -0.57584  -0.56320  -0.55633  -0.54603
 Alpha  occ. eigenvalues --   -0.54159  -0.53873  -0.52749  -0.52285  -0.51267
 Alpha  occ. eigenvalues --   -0.51170  -0.50643  -0.50543  -0.50357  -0.50041
 Alpha  occ. eigenvalues --   -0.49709  -0.49315  -0.47702  -0.47107  -0.46217
 Alpha  occ. eigenvalues --   -0.46140  -0.45835  -0.45319  -0.44738  -0.44168
 Alpha  occ. eigenvalues --   -0.43846  -0.43736  -0.43058  -0.42802  -0.42465
 Alpha  occ. eigenvalues --   -0.42239  -0.42108  -0.41802  -0.41595  -0.41382
 Alpha  occ. eigenvalues --   -0.41149  -0.40431  -0.40239  -0.40087  -0.39913
 Alpha  occ. eigenvalues --   -0.39638  -0.39517  -0.39316  -0.39191  -0.38996
 Alpha  occ. eigenvalues --   -0.38859  -0.38800  -0.38660  -0.38328  -0.38263
 Alpha  occ. eigenvalues --   -0.37779  -0.37746  -0.37502  -0.37441  -0.37178
 Alpha  occ. eigenvalues --   -0.36852  -0.36798  -0.36677  -0.36575  -0.36352
 Alpha  occ. eigenvalues --   -0.36075  -0.35964  -0.35914  -0.35525  -0.35458
 Alpha  occ. eigenvalues --   -0.35141  -0.34923  -0.34651  -0.34457  -0.34400
 Alpha  occ. eigenvalues --   -0.34158  -0.34127  -0.34113  -0.33976  -0.33860
 Alpha  occ. eigenvalues --   -0.33745  -0.33548  -0.33462  -0.33243  -0.33052
 Alpha  occ. eigenvalues --   -0.32913  -0.32643  -0.32588  -0.32532  -0.32350
 Alpha  occ. eigenvalues --   -0.31876  -0.31752  -0.31644  -0.31607  -0.31420
 Alpha  occ. eigenvalues --   -0.31119  -0.31009  -0.30452  -0.30335  -0.30228
 Alpha  occ. eigenvalues --   -0.30052  -0.29953  -0.29840  -0.29617  -0.29601
 Alpha  occ. eigenvalues --   -0.29341  -0.29298  -0.28968  -0.28941  -0.28699
 Alpha  occ. eigenvalues --   -0.28668  -0.28663  -0.28355  -0.28243  -0.27824
 Alpha  occ. eigenvalues --   -0.27592  -0.27548  -0.27358  -0.27029  -0.26584
 Alpha  occ. eigenvalues --   -0.26478  -0.26127  -0.25820  -0.25744  -0.25695
 Alpha  occ. eigenvalues --   -0.25400  -0.24509  -0.23798  -0.23608  -0.23310
 Alpha  occ. eigenvalues --   -0.23303  -0.22707  -0.21820  -0.20702  -0.20533
 Alpha  occ. eigenvalues --   -0.20191  -0.20162  -0.18834  -0.18018  -0.17122
 Alpha  occ. eigenvalues --   -0.15617
 Alpha virt. eigenvalues --   -0.11451  -0.06861  -0.05696  -0.04534  -0.03855
 Alpha virt. eigenvalues --   -0.02629  -0.02408  -0.02067  -0.00839   0.00532
 Alpha virt. eigenvalues --    0.01306   0.01570   0.01867   0.02266   0.02700

 Mulliken charges:
               1
     1  Mg   0.707515
     2  C    0.036043
     3  C   -0.081708
     4  C   -0.039243
     5  C   -0.069410
     6  N   -0.205832
     7  C   -0.119640
     8  C    0.132000
     9  C   -0.067595
    10  C    0.050228
    11  C    0.139423
    12  C    0.122993
    13  C    0.079375
    14  C    0.120492
    15  O   -0.198057
    16  O   -0.288963
    17  N   -0.355428
    18  C    0.175310
    19  C   -0.140363
    20  C    0.038739
    21  C    0.105492
    22  C    0.169100
    23  C   -0.047736
    24  O   -0.196141
    25  C    0.119841
    26  N   -0.190290
    27  C    0.015921
    28  C    0.024605
    29  C    0.055212
    30  C   -0.008722
    31  C    0.133002
    32  C    0.035529
    33  C    0.062233
    34  N   -0.232767
    35  C    0.108265
    36  C   -0.169870
    37  C    0.160707
    38  C    0.036053
    39  C    0.180085
    40  C   -0.134686
    41  O   -0.121276
    42  C    0.080325
    43  C    0.110052
    44  O   -0.203362
    45  O   -0.296193
    46  C    0.226408
    47  C    0.325117
    48  C   -0.120769
    49  C   -0.180774
    50  C    0.131132
    51  C    0.132852
    52  C    0.128960
    53  C    0.078049
    54  C   -0.089593
    55  C    0.109940
    56  C    0.119566
    57  C    0.031611
    58  C    0.106904
    59  C   -0.050546
    60  C    0.104782
    61  C    0.129030
    62  C    0.052235
    63  C    0.075359
    64  C   -0.077623
    65  C    0.096938
    66  C    0.103448
    67  H   -0.067407
    68  H   -0.036026
    69  H   -0.065661
    70  H   -0.003575
    71  H   -0.033856
    72  H    0.017272
    73  H   -0.023048
    74  H   -0.026942
    75  H   -0.023495
    76  H    0.001231
    77  H   -0.000063
    78  H    0.011703
    79  H    0.007699
    80  H   -0.035231
    81  H   -0.004418
    82  H    0.006523
    83  H   -0.001399
    84  H    0.022732
    85  H   -0.023687
    86  H   -0.032716
    87  H    0.001314
    88  H   -0.005992
    89  H   -0.006339
    90  H   -0.014917
    91  H   -0.023944
    92  H   -0.021173
    93  H   -0.000481
    94  H    0.002443
    95  H   -0.015815
    96  H    0.007007
    97  H    0.005272
    98  H   -0.001563
    99  H    0.018887
   100  H    0.020186
   101  H    0.009645
   102  H    0.022085
   103  H    0.011806
   104  H   -0.024564
   105  H    0.017540
   106  H    0.001397
   107  H   -0.019478
   108  H   -0.018226
   109  H   -0.053342
   110  H   -0.021534
   111  H   -0.031058
   112  H   -0.049299
   113  H   -0.029639
   114  H   -0.032526
   115  H   -0.009149
   116  H   -0.021410
   117  H   -0.020743
   118  H   -0.031003
   119  H   -0.032754
   120  H   -0.025422
   121  H   -0.017595
   122  H   -0.042902
   123  H   -0.053675
   124  H   -0.042293
   125  H   -0.017692
   126  H   -0.027310
   127  H   -0.018750
   128  H   -0.041624
   129  H   -0.032532
   130  H   -0.024988
   131  H   -0.036420
   132  H   -0.040739
   133  H   -0.039015
   134  H   -0.037853
   135  H   -0.023124
   136  H   -0.007697
   137  H   -0.013803
   138  H   -0.021444
   139  H   -0.010376
   140  H   -0.011295
 Sum of Mulliken charges =  -0.00000

 Dipole moment (field-independent basis, Debye):
    X=              4.3728    Y=              1.8615    Z=             -3.5214  Tot=              5.9149
 Quadrupole moment (field-independent basis, Debye-Ang):
   XX=           -371.1736   YY=           -433.4817   ZZ=           -403.2360
   XY=            -11.3576   XZ=              5.0827   YZ=              9.2279

 Normal termination of Gaussian 16 at Wed May  4 15:04:21 2022.
