 Gaussian 16, Revision A.03,
 Gaussian 16:  ES64L-G16RevA.03 25-Dec-2016

 -----------------------------------
 #p cam-b3lyp/Def2SVP td=(nstates=5)
 -----------------------------------

 -------------------------------------------------------
 step_1801_chromophore_9 TDDFT with cam-b3lyp functional
 -------------------------------------------------------
 Symbolic Z-matrix:
 Charge =  0 Multiplicity = 1

                         Standard orientation:
 ---------------------------------------------------------------------
 Center     Atomic      Atomic             Coordinates (Angstroms)
 Number     Number       Type             X           Y           Z
 ---------------------------------------------------------------------
      1         12           0       -5.278042    0.638932   -0.257789
      2          6           0       -4.017769   -2.577973   -0.097964
      3          6           0       -2.077245    1.744863   -0.655411
      4          6           0       -6.454615    3.758148    0.356667
      5          6           0       -8.424411   -0.667417    0.837467
      6          7           0       -3.325620   -0.351587   -0.383146
      7          6           0       -3.001456   -1.664177   -0.293977
      8          6           0       -1.547883   -1.918989   -0.589401
      9          6           0       -0.930705   -0.467754   -0.471836
     10          6           0       -2.189977    0.385225   -0.489929
     11          6           0       -0.127549   -0.140255    0.828848
     12          6           0       -1.379008   -2.648940   -1.927742
     13          6           0        0.078498   -2.876204   -2.495480
     14          6           0        1.306028   -2.752486   -1.528276
     15          8           0        1.205806   -2.707053   -0.300825
     16          8           0        2.466396   -2.713890   -2.287222
     17          7           0       -4.416003    2.466487   -0.271199
     18          6           0       -3.062061    2.724053   -0.493740
     19          6           0       -2.879269    4.110107   -0.450573
     20          6           0       -4.112677    4.775462   -0.274132
     21          6           0       -5.090718    3.677333   -0.045786
     22          6           0       -1.534064    4.678106   -0.749488
     23          6           0       -4.487553    6.290612   -0.141470
     24          8           0       -5.673231    6.673614    0.080410
     25          6           0       -3.391861    7.357798   -0.192486
     26          7           0       -7.162736    1.411132    0.387929
     27          6           0       -7.353377    2.735007    0.513931
     28          6           0       -8.860140    3.055496    0.900970
     29          6           0       -9.457230    1.705547    0.988265
     30          6           0       -8.287080    0.757556    0.740154
     31          6           0       -9.130607    4.008499    2.119931
     32          6           0      -10.754642    1.371828    0.092699
     33          6           0      -10.479676    0.906846   -1.367143
     34          7           0       -6.108226   -1.260776    0.131117
     35          6           0       -7.362805   -1.605221    0.634693
     36          6           0       -7.407336   -3.044968    0.854544
     37          6           0       -6.095174   -3.487115    0.559359
     38          6           0       -5.386515   -2.369141    0.106032
     39          6           0       -8.570009   -3.714012    1.432726
     40          6           0       -5.246539   -4.564779    0.617652
     41          8           0       -5.426964   -5.701079    0.993921
     42          6           0       -3.869970   -4.085774    0.124720
     43          6           0       -2.845070   -4.511452    1.084248
     44          8           0       -2.586791   -3.992516    2.172097
     45          8           0       -2.011624   -5.476538    0.534240
     46          6           0       -0.959873   -5.972838    1.464673
     47          6           0        3.722845   -2.664421   -1.487603
     48          6           0        4.720754   -2.191636   -2.505691
     49          6           0        6.068728   -2.087052   -2.332295
     50          6           0        6.854073   -2.421018   -1.043883
     51          6           0        6.874767   -1.682913   -3.512506
     52          6           0        6.816424   -0.247504   -4.041071
     53          6           0        8.278394    0.217813   -4.407458
     54          6           0        8.877967    1.198455   -3.316052
     55          6           0        9.252143    2.525066   -3.989099
     56          6           0       10.098892    0.553697   -2.578505
     57          6           0        9.947320    0.668389   -1.044818
     58          6           0       11.225102    1.057715   -0.278492
     59          6           0       11.070376    2.115651    0.760374
     60          6           0       11.239338    3.566637    0.246123
     61          6           0       11.877849    1.817234    2.110984
     62          6           0       11.025043    1.510325    3.261797
     63          6           0       11.808527    1.405332    4.575038
     64          6           0       11.454444    0.090968    5.371257
     65          6           0       11.992972   -1.225827    4.668835
     66          6           0        9.940307    0.064498    5.723444
     67          1           0       -1.041276    2.071922   -0.764314
     68          1           0       -6.967210    4.719844    0.418948
     69          1           0       -9.398942   -1.038442    1.161175
     70          1           0       -1.115550   -2.450781    0.257730
     71          1           0       -0.245926   -0.163593   -1.263811
     72          1           0       -0.109660   -0.933612    1.576854
     73          1           0       -0.526965    0.761835    1.293143
     74          1           0        0.857871    0.258196    0.586719
     75          1           0       -1.883526   -1.947903   -2.592667
     76          1           0       -1.844220   -3.632964   -1.974643
     77          1           0        0.089972   -1.986891   -3.126391
     78          1           0        0.247369   -3.692871   -3.197693
     79          1           0       -0.879350    4.814409    0.111112
     80          1           0       -1.685875    5.660570   -1.197580
     81          1           0       -1.042725    4.186068   -1.588541
     82          1           0       -2.507597    7.040149    0.359082
     83          1           0       -3.840086    8.247446    0.251911
     84          1           0       -3.128485    7.576663   -1.227132
     85          1           0       -9.343538    3.555052    0.062102
     86          1           0       -9.870628    1.508504    1.977975
     87          1           0       -8.215172    4.534362    2.387471
     88          1           0       -9.508572    3.412201    2.950875
     89          1           0       -9.835266    4.745961    1.735901
     90          1           0      -11.513809    2.145981   -0.009554
     91          1           0      -11.215346    0.512194    0.580581
     92          1           0      -11.100332    1.455296   -2.074941
     93          1           0      -10.723966   -0.147230   -1.498138
     94          1           0       -9.459369    1.217434   -1.593879
     95          1           0       -9.472428   -3.387139    0.917009
     96          1           0       -8.697237   -3.348518    2.452077
     97          1           0       -8.617038   -4.800635    1.350476
     98          1           0       -3.640161   -4.548014   -0.835140
     99          1           0       -1.417342   -6.437281    2.339139
    100          1           0       -0.398324   -5.090423    1.770543
    101          1           0       -0.327396   -6.676429    0.922789
    102          1           0        3.949245   -3.628274   -1.031073
    103          1           0        3.649699   -1.880404   -0.734482
    104          1           0        4.360572   -2.066197   -3.526704
    105          1           0        6.975912   -1.552270   -0.397356
    106          1           0        7.827928   -2.886294   -1.194937
    107          1           0        6.251640   -3.162921   -0.518266
    108          1           0        6.715178   -2.397652   -4.320479
    109          1           0        7.899751   -1.863621   -3.187942
    110          1           0        6.395004    0.420260   -3.289756
    111          1           0        6.294969   -0.282626   -4.997957
    112          1           0        8.157181    0.746618   -5.352995
    113          1           0        9.022468   -0.532535   -4.675560
    114          1           0        8.106932    1.449235   -2.587808
    115          1           0        9.402620    2.414662   -5.062643
    116          1           0       10.147497    2.916591   -3.505538
    117          1           0        8.477540    3.273520   -3.821324
    118          1           0       11.018249    1.057682   -2.877449
    119          1           0       10.148378   -0.525659   -2.728556
    120          1           0        9.635923   -0.332320   -0.743598
    121          1           0        9.186442    1.414994   -0.817234
    122          1           0       12.052379    1.318364   -0.938686
    123          1           0       11.595077    0.112516    0.119703
    124          1           0       10.037240    1.978112    1.079238
    125          1           0       11.298124    3.754330   -0.826539
    126          1           0       12.162321    4.036005    0.588365
    127          1           0       10.484679    4.239447    0.653998
    128          1           0       12.416906    2.728575    2.367951
    129          1           0       12.554072    1.001974    1.854957
    130          1           0       10.319855    0.687443    3.141726
    131          1           0       10.406744    2.373937    3.506880
    132          1           0       11.587220    2.249837    5.227246
    133          1           0       12.875658    1.534160    4.395238
    134          1           0       11.977364    0.244592    6.314685
    135          1           0       11.212079   -1.900395    4.318239
    136          1           0       12.595023   -1.803426    5.370137
    137          1           0       12.567114   -1.046387    3.759702
    138          1           0        9.568139   -0.856292    5.274602
    139          1           0        9.388038    0.906929    5.307407
    140          1           0        9.757254    0.065414    6.798453
 ---------------------------------------------------------------------

 SCF Done:  E(RCAM-B3LYP) =  -3007.18962759     A.U. after   17 cycles

 Excitation energies and oscillator strengths:

 Excited State   1:      Singlet-A      1.6820 eV  737.11 nm  f=0.3943  <S**2>=0.000
     245 -> 248        0.17071
     246 -> 247        0.68695
     245 <- 248        0.10428
 This state for optimization and/or second-order correction.
 Total Energy, E(TD-HF/TD-DFT) =  -3007.12781393
 Copying the excited state density for this state as the 1-particle RhoCI density.

 Excited State   2:      Singlet-A      2.2304 eV  555.88 nm  f=0.1317  <S**2>=0.000
     245 -> 247        0.64405
     246 -> 248       -0.27144

 Excited State   3:      Singlet-A      3.3481 eV  370.31 nm  f=0.0021  <S**2>=0.000
     242 -> 247       -0.22415
     244 -> 247        0.64994

 Excited State   4:      Singlet-A      3.4292 eV  361.55 nm  f=0.0332  <S**2>=0.000
     241 -> 247        0.57382
     241 -> 249       -0.22266
     241 -> 250        0.19376
     244 -> 247       -0.11156
     246 -> 248        0.18776

 Excited State   5:      Singlet-A      3.4721 eV  357.09 nm  f=0.1349  <S**2>=0.000
     240 -> 247        0.11004
     242 -> 247        0.47789
     244 -> 247        0.16477
     245 -> 247        0.12958
     246 -> 248        0.43651

 The electronic state is 1-A.
 Alpha  occ. eigenvalues --  -46.87839 -19.26099 -19.23657 -19.21191 -19.19219
 Alpha  occ. eigenvalues --  -19.18607 -19.17542 -14.41850 -14.41831 -14.39297
 Alpha  occ. eigenvalues --  -14.38848 -10.40795 -10.38183 -10.36105 -10.33095
 Alpha  occ. eigenvalues --  -10.32901 -10.30884 -10.30599 -10.30538 -10.30312
 Alpha  occ. eigenvalues --  -10.30146 -10.30085 -10.29589 -10.29122 -10.28338
 Alpha  occ. eigenvalues --  -10.28101 -10.27900 -10.27655 -10.27570 -10.27538
 Alpha  occ. eigenvalues --  -10.27503 -10.27291 -10.27224 -10.27080 -10.26997
 Alpha  occ. eigenvalues --  -10.26983 -10.26853 -10.26784 -10.26773 -10.26482
 Alpha  occ. eigenvalues --  -10.26437 -10.26416 -10.26389 -10.26161 -10.25940
 Alpha  occ. eigenvalues --  -10.25866 -10.25746 -10.25663 -10.25658 -10.25551
 Alpha  occ. eigenvalues --  -10.25458 -10.25062 -10.25055 -10.24975 -10.24888
 Alpha  occ. eigenvalues --  -10.24830 -10.24828 -10.24810 -10.24750 -10.24629
 Alpha  occ. eigenvalues --  -10.24532 -10.24530 -10.24501 -10.24284 -10.24184
 Alpha  occ. eigenvalues --  -10.24075  -3.16481  -1.91385  -1.90931  -1.90790
 Alpha  occ. eigenvalues --   -1.16172  -1.14347  -1.09521  -1.08609  -1.07879
 Alpha  occ. eigenvalues --   -1.05564  -1.04594  -1.04136  -1.03185  -1.01506
 Alpha  occ. eigenvalues --   -0.92787  -0.90753  -0.90176  -0.89063  -0.88928
 Alpha  occ. eigenvalues --   -0.88725  -0.88427  -0.87465  -0.87267  -0.86960
 Alpha  occ. eigenvalues --   -0.86339  -0.85313  -0.84255  -0.83363  -0.83105
 Alpha  occ. eigenvalues --   -0.82561  -0.81893  -0.81292  -0.80873  -0.80210
 Alpha  occ. eigenvalues --   -0.80123  -0.78468  -0.77672  -0.76767  -0.76150
 Alpha  occ. eigenvalues --   -0.75600  -0.75557  -0.75392  -0.74848  -0.74296
 Alpha  occ. eigenvalues --   -0.73072  -0.72594  -0.71182  -0.70407  -0.69210
 Alpha  occ. eigenvalues --   -0.68803  -0.68520  -0.67177  -0.66763  -0.65480
 Alpha  occ. eigenvalues --   -0.65349  -0.64718  -0.64445  -0.64420  -0.63962
 Alpha  occ. eigenvalues --   -0.63685  -0.63270  -0.61465  -0.60817  -0.59870
 Alpha  occ. eigenvalues --   -0.59746  -0.59325  -0.58803  -0.58033  -0.57672
 Alpha  occ. eigenvalues --   -0.57328  -0.57084  -0.56241  -0.55904  -0.55482
 Alpha  occ. eigenvalues --   -0.55080  -0.54996  -0.54979  -0.54623  -0.54443
 Alpha  occ. eigenvalues --   -0.54089  -0.53269  -0.52962  -0.52646  -0.52547
 Alpha  occ. eigenvalues --   -0.52340  -0.52150  -0.51995  -0.51906  -0.51785
 Alpha  occ. eigenvalues --   -0.51326  -0.51189  -0.51096  -0.51014  -0.50729
 Alpha  occ. eigenvalues --   -0.50228  -0.50177  -0.49683  -0.49605  -0.49432
 Alpha  occ. eigenvalues --   -0.49316  -0.49209  -0.49035  -0.48731  -0.48586
 Alpha  occ. eigenvalues --   -0.48398  -0.48370  -0.48134  -0.47888  -0.47410
 Alpha  occ. eigenvalues --   -0.47402  -0.47123  -0.46798  -0.46472  -0.46225
 Alpha  occ. eigenvalues --   -0.46177  -0.46069  -0.45874  -0.45807  -0.45618
 Alpha  occ. eigenvalues --   -0.45499  -0.45303  -0.45127  -0.44823  -0.44821
 Alpha  occ. eigenvalues --   -0.44746  -0.44452  -0.44278  -0.44115  -0.44062
 Alpha  occ. eigenvalues --   -0.43512  -0.43388  -0.43263  -0.43118  -0.43026
 Alpha  occ. eigenvalues --   -0.42868  -0.42525  -0.41966  -0.41689  -0.41582
 Alpha  occ. eigenvalues --   -0.41449  -0.41224  -0.41179  -0.41150  -0.41074
 Alpha  occ. eigenvalues --   -0.40736  -0.40494  -0.40418  -0.39995  -0.39955
 Alpha  occ. eigenvalues --   -0.39672  -0.39621  -0.39475  -0.39150  -0.38827
 Alpha  occ. eigenvalues --   -0.38586  -0.38379  -0.38194  -0.38149  -0.37773
 Alpha  occ. eigenvalues --   -0.37367  -0.37223  -0.36734  -0.36500  -0.36354
 Alpha  occ. eigenvalues --   -0.36050  -0.35336  -0.35040  -0.34539  -0.34171
 Alpha  occ. eigenvalues --   -0.33596  -0.33361  -0.32698  -0.31282  -0.31087
 Alpha  occ. eigenvalues --   -0.30191  -0.29845  -0.29775  -0.29445  -0.23906
 Alpha  occ. eigenvalues --   -0.20903
 Alpha virt. eigenvalues --   -0.08656  -0.01423   0.00568   0.02362   0.02860
 Alpha virt. eigenvalues --    0.03978   0.04986   0.05572   0.06263   0.06888
 Alpha virt. eigenvalues --    0.07450   0.07913   0.08713   0.08884   0.09020

 Mulliken charges:
               1
     1  Mg   0.840478
     2  C    0.007254
     3  C   -0.092618
     4  C   -0.058521
     5  C   -0.074454
     6  N   -0.275495
     7  C   -0.073441
     8  C    0.072682
     9  C   -0.116390
    10  C    0.063603
    11  C    0.083455
    12  C    0.078111
    13  C    0.012407
    14  C    0.197950
    15  O   -0.240040
    16  O   -0.354493
    17  N   -0.444357
    18  C    0.184253
    19  C   -0.146294
    20  C   -0.027751
    21  C    0.130189
    22  C    0.103665
    23  C    0.031923
    24  O   -0.236705
    25  C    0.039430
    26  N   -0.264096
    27  C    0.036758
    28  C   -0.033345
    29  C    0.000580
    30  C    0.007303
    31  C    0.075611
    32  C   -0.013464
    33  C    0.002094
    34  N   -0.321782
    35  C    0.110674
    36  C   -0.155469
    37  C    0.071265
    38  C    0.080031
    39  C    0.120516
    40  C   -0.033649
    41  O   -0.161587
    42  C    0.001227
    43  C    0.197573
    44  O   -0.239301
    45  O   -0.359857
    46  C    0.186184
    47  C    0.293477
    48  C   -0.139959
    49  C   -0.204330
    50  C    0.074078
    51  C    0.077607
    52  C    0.067838
    53  C    0.022752
    54  C   -0.144649
    55  C    0.055507
    56  C    0.066295
    57  C   -0.014928
    58  C    0.053465
    59  C   -0.111652
    60  C    0.046957
    61  C    0.078687
    62  C   -0.008152
    63  C    0.026661
    64  C   -0.136697
    65  C    0.037243
    66  C    0.040703
    67  H   -0.030670
    68  H    0.003948
    69  H   -0.029433
    70  H    0.031797
    71  H    0.000155
    72  H    0.042835
    73  H    0.004019
    74  H   -0.002589
    75  H    0.006193
    76  H    0.028017
    77  H    0.030859
    78  H    0.044529
    79  H    0.035915
    80  H   -0.007063
    81  H    0.024223
    82  H    0.034325
    83  H    0.033654
    84  H    0.049667
    85  H    0.010897
    86  H    0.003813
    87  H    0.026290
    88  H    0.018051
    89  H    0.017717
    90  H    0.013536
    91  H    0.002584
    92  H    0.003851
    93  H    0.022467
    94  H    0.022698
    95  H    0.009354
    96  H    0.034389
    97  H    0.034594
    98  H    0.042388
    99  H    0.042037
   100  H    0.043349
   101  H    0.033420
   102  H    0.047500
   103  H    0.040826
   104  H    0.010905
   105  H    0.039801
   106  H    0.025425
   107  H    0.003828
   108  H    0.012207
   109  H   -0.025920
   110  H    0.007579
   111  H   -0.000943
   112  H   -0.018096
   113  H   -0.000593
   114  H   -0.002593
   115  H    0.013860
   116  H   -0.000146
   117  H    0.004044
   118  H   -0.002495
   119  H   -0.005433
   120  H   -0.000853
   121  H    0.007312
   122  H   -0.014122
   123  H   -0.021730
   124  H   -0.009252
   125  H    0.005102
   126  H   -0.002840
   127  H    0.005764
   128  H   -0.012155
   129  H   -0.005692
   130  H    0.001720
   131  H   -0.007189
   132  H   -0.010776
   133  H   -0.009074
   134  H   -0.004436
   135  H    0.000193
   136  H    0.016608
   137  H    0.008057
   138  H    0.001974
   139  H    0.012736
   140  H    0.014074
 Sum of Mulliken charges =  -0.00000

 Dipole moment (field-independent basis, Debye):
    X=              4.6035    Y=              2.4139    Z=             -3.6803  Tot=              6.3690
 Quadrupole moment (field-independent basis, Debye-Ang):
   XX=           -369.3236   YY=           -429.2395   ZZ=           -403.2957
   XY=            -12.3273   XZ=              5.2198   YZ=              9.2372

 Normal termination of Gaussian 16 at Wed May  4 14:04:55 2022.
