 Gaussian 16, Revision A.03,
 Gaussian 16:  ES64L-G16RevA.03 25-Dec-2016

 ---------------------------------
 #p PBE1PBE/Def2SVP td=(nstates=5)
 ---------------------------------

 -----------------------------------------------------
 step_1801_chromophore_9 TDDFT with PBE1PBE functional
 -----------------------------------------------------
 Symbolic Z-matrix:
 Charge =  0 Multiplicity = 1

                         Standard orientation:
 ---------------------------------------------------------------------
 Center     Atomic      Atomic             Coordinates (Angstroms)
 Number     Number       Type             X           Y           Z
 ---------------------------------------------------------------------
      1         12           0       -5.278042    0.638932   -0.257789
      2          6           0       -4.017769   -2.577973   -0.097964
      3          6           0       -2.077245    1.744863   -0.655411
      4          6           0       -6.454615    3.758148    0.356667
      5          6           0       -8.424411   -0.667417    0.837467
      6          7           0       -3.325620   -0.351587   -0.383146
      7          6           0       -3.001456   -1.664177   -0.293977
      8          6           0       -1.547883   -1.918989   -0.589401
      9          6           0       -0.930705   -0.467754   -0.471836
     10          6           0       -2.189977    0.385225   -0.489929
     11          6           0       -0.127549   -0.140255    0.828848
     12          6           0       -1.379008   -2.648940   -1.927742
     13          6           0        0.078498   -2.876204   -2.495480
     14          6           0        1.306028   -2.752486   -1.528276
     15          8           0        1.205806   -2.707053   -0.300825
     16          8           0        2.466396   -2.713890   -2.287222
     17          7           0       -4.416003    2.466487   -0.271199
     18          6           0       -3.062061    2.724053   -0.493740
     19          6           0       -2.879269    4.110107   -0.450573
     20          6           0       -4.112677    4.775462   -0.274132
     21          6           0       -5.090718    3.677333   -0.045786
     22          6           0       -1.534064    4.678106   -0.749488
     23          6           0       -4.487553    6.290612   -0.141470
     24          8           0       -5.673231    6.673614    0.080410
     25          6           0       -3.391861    7.357798   -0.192486
     26          7           0       -7.162736    1.411132    0.387929
     27          6           0       -7.353377    2.735007    0.513931
     28          6           0       -8.860140    3.055496    0.900970
     29          6           0       -9.457230    1.705547    0.988265
     30          6           0       -8.287080    0.757556    0.740154
     31          6           0       -9.130607    4.008499    2.119931
     32          6           0      -10.754642    1.371828    0.092699
     33          6           0      -10.479676    0.906846   -1.367143
     34          7           0       -6.108226   -1.260776    0.131117
     35          6           0       -7.362805   -1.605221    0.634693
     36          6           0       -7.407336   -3.044968    0.854544
     37          6           0       -6.095174   -3.487115    0.559359
     38          6           0       -5.386515   -2.369141    0.106032
     39          6           0       -8.570009   -3.714012    1.432726
     40          6           0       -5.246539   -4.564779    0.617652
     41          8           0       -5.426964   -5.701079    0.993921
     42          6           0       -3.869970   -4.085774    0.124720
     43          6           0       -2.845070   -4.511452    1.084248
     44          8           0       -2.586791   -3.992516    2.172097
     45          8           0       -2.011624   -5.476538    0.534240
     46          6           0       -0.959873   -5.972838    1.464673
     47          6           0        3.722845   -2.664421   -1.487603
     48          6           0        4.720754   -2.191636   -2.505691
     49          6           0        6.068728   -2.087052   -2.332295
     50          6           0        6.854073   -2.421018   -1.043883
     51          6           0        6.874767   -1.682913   -3.512506
     52          6           0        6.816424   -0.247504   -4.041071
     53          6           0        8.278394    0.217813   -4.407458
     54          6           0        8.877967    1.198455   -3.316052
     55          6           0        9.252143    2.525066   -3.989099
     56          6           0       10.098892    0.553697   -2.578505
     57          6           0        9.947320    0.668389   -1.044818
     58          6           0       11.225102    1.057715   -0.278492
     59          6           0       11.070376    2.115651    0.760374
     60          6           0       11.239338    3.566637    0.246123
     61          6           0       11.877849    1.817234    2.110984
     62          6           0       11.025043    1.510325    3.261797
     63          6           0       11.808527    1.405332    4.575038
     64          6           0       11.454444    0.090968    5.371257
     65          6           0       11.992972   -1.225827    4.668835
     66          6           0        9.940307    0.064498    5.723444
     67          1           0       -1.041276    2.071922   -0.764314
     68          1           0       -6.967210    4.719844    0.418948
     69          1           0       -9.398942   -1.038442    1.161175
     70          1           0       -1.115550   -2.450781    0.257730
     71          1           0       -0.245926   -0.163593   -1.263811
     72          1           0       -0.109660   -0.933612    1.576854
     73          1           0       -0.526965    0.761835    1.293143
     74          1           0        0.857871    0.258196    0.586719
     75          1           0       -1.883526   -1.947903   -2.592667
     76          1           0       -1.844220   -3.632964   -1.974643
     77          1           0        0.089972   -1.986891   -3.126391
     78          1           0        0.247369   -3.692871   -3.197693
     79          1           0       -0.879350    4.814409    0.111112
     80          1           0       -1.685875    5.660570   -1.197580
     81          1           0       -1.042725    4.186068   -1.588541
     82          1           0       -2.507597    7.040149    0.359082
     83          1           0       -3.840086    8.247446    0.251911
     84          1           0       -3.128485    7.576663   -1.227132
     85          1           0       -9.343538    3.555052    0.062102
     86          1           0       -9.870628    1.508504    1.977975
     87          1           0       -8.215172    4.534362    2.387471
     88          1           0       -9.508572    3.412201    2.950875
     89          1           0       -9.835266    4.745961    1.735901
     90          1           0      -11.513809    2.145981   -0.009554
     91          1           0      -11.215346    0.512194    0.580581
     92          1           0      -11.100332    1.455296   -2.074941
     93          1           0      -10.723966   -0.147230   -1.498138
     94          1           0       -9.459369    1.217434   -1.593879
     95          1           0       -9.472428   -3.387139    0.917009
     96          1           0       -8.697237   -3.348518    2.452077
     97          1           0       -8.617038   -4.800635    1.350476
     98          1           0       -3.640161   -4.548014   -0.835140
     99          1           0       -1.417342   -6.437281    2.339139
    100          1           0       -0.398324   -5.090423    1.770543
    101          1           0       -0.327396   -6.676429    0.922789
    102          1           0        3.949245   -3.628274   -1.031073
    103          1           0        3.649699   -1.880404   -0.734482
    104          1           0        4.360572   -2.066197   -3.526704
    105          1           0        6.975912   -1.552270   -0.397356
    106          1           0        7.827928   -2.886294   -1.194937
    107          1           0        6.251640   -3.162921   -0.518266
    108          1           0        6.715178   -2.397652   -4.320479
    109          1           0        7.899751   -1.863621   -3.187942
    110          1           0        6.395004    0.420260   -3.289756
    111          1           0        6.294969   -0.282626   -4.997957
    112          1           0        8.157181    0.746618   -5.352995
    113          1           0        9.022468   -0.532535   -4.675560
    114          1           0        8.106932    1.449235   -2.587808
    115          1           0        9.402620    2.414662   -5.062643
    116          1           0       10.147497    2.916591   -3.505538
    117          1           0        8.477540    3.273520   -3.821324
    118          1           0       11.018249    1.057682   -2.877449
    119          1           0       10.148378   -0.525659   -2.728556
    120          1           0        9.635923   -0.332320   -0.743598
    121          1           0        9.186442    1.414994   -0.817234
    122          1           0       12.052379    1.318364   -0.938686
    123          1           0       11.595077    0.112516    0.119703
    124          1           0       10.037240    1.978112    1.079238
    125          1           0       11.298124    3.754330   -0.826539
    126          1           0       12.162321    4.036005    0.588365
    127          1           0       10.484679    4.239447    0.653998
    128          1           0       12.416906    2.728575    2.367951
    129          1           0       12.554072    1.001974    1.854957
    130          1           0       10.319855    0.687443    3.141726
    131          1           0       10.406744    2.373937    3.506880
    132          1           0       11.587220    2.249837    5.227246
    133          1           0       12.875658    1.534160    4.395238
    134          1           0       11.977364    0.244592    6.314685
    135          1           0       11.212079   -1.900395    4.318239
    136          1           0       12.595023   -1.803426    5.370137
    137          1           0       12.567114   -1.046387    3.759702
    138          1           0        9.568139   -0.856292    5.274602
    139          1           0        9.388038    0.906929    5.307407
    140          1           0        9.757254    0.065414    6.798453
 ---------------------------------------------------------------------

 SCF Done:  E(RPBE1PBE) =  -3005.37753804     A.U. after   15 cycles

 Excitation energies and oscillator strengths:

 Excited State   1:      Singlet-A      1.8424 eV  672.96 nm  f=0.3786  <S**2>=0.000
     245 -> 248        0.15888
     246 -> 247        0.69492
     246 <- 247       -0.11374
 This state for optimization and/or second-order correction.
 Total Energy, E(TD-HF/TD-DFT) =  -3005.30983225
 Copying the excited state density for this state as the 1-particle RhoCI density.

 Excited State   2:      Singlet-A      2.2328 eV  555.29 nm  f=0.1249  <S**2>=0.000
     245 -> 247        0.65462
     246 -> 248       -0.23741

 Excited State   3:      Singlet-A      2.8781 eV  430.78 nm  f=0.0004  <S**2>=0.000
     242 -> 247       -0.14864
     244 -> 247        0.66071
     244 -> 249       -0.12818

 Excited State   4:      Singlet-A      3.0349 eV  408.53 nm  f=0.0008  <S**2>=0.000
     241 -> 247       -0.17723
     242 -> 247        0.65372
     244 -> 247        0.16675

 Excited State   5:      Singlet-A      3.1351 eV  395.47 nm  f=0.0016  <S**2>=0.000
     240 -> 247        0.50466
     240 -> 248        0.12942
     240 -> 249        0.12996
     241 -> 247        0.40916
     242 -> 247        0.15326

 The electronic state is 1-A.
 Alpha  occ. eigenvalues --  -46.91257 -19.26807 -19.24324 -19.21467 -19.19412
 Alpha  occ. eigenvalues --  -19.18844 -19.17784 -14.41342 -14.41337 -14.38998
 Alpha  occ. eigenvalues --  -14.38522 -10.37842 -10.35203 -10.33235 -10.30291
 Alpha  occ. eigenvalues --  -10.30198 -10.28662 -10.28235 -10.28045 -10.27854
 Alpha  occ. eigenvalues --  -10.27826 -10.27781 -10.27366 -10.26778 -10.25877
 Alpha  occ. eigenvalues --  -10.25771 -10.25569 -10.25360 -10.25280 -10.25217
 Alpha  occ. eigenvalues --  -10.25152 -10.25120 -10.24882 -10.24821 -10.24804
 Alpha  occ. eigenvalues --  -10.24749 -10.24588 -10.24474 -10.24160 -10.24153
 Alpha  occ. eigenvalues --  -10.23994 -10.23858 -10.23816 -10.23655 -10.23603
 Alpha  occ. eigenvalues --  -10.23490 -10.23318 -10.23311 -10.23152 -10.23099
 Alpha  occ. eigenvalues --  -10.23052 -10.22696 -10.22592 -10.22487 -10.22390
 Alpha  occ. eigenvalues --  -10.22368 -10.22318 -10.22222 -10.22166 -10.22136
 Alpha  occ. eigenvalues --  -10.22097 -10.21927 -10.21894 -10.21819 -10.21785
 Alpha  occ. eigenvalues --  -10.21678  -3.13475  -1.86321  -1.85844  -1.85708
 Alpha  occ. eigenvalues --   -1.10961  -1.09097  -1.04278  -1.03458  -1.02540
 Alpha  occ. eigenvalues --   -1.00386  -0.99222  -0.98758  -0.97884  -0.96145
 Alpha  occ. eigenvalues --   -0.87182  -0.84880  -0.84274  -0.83276  -0.83239
 Alpha  occ. eigenvalues --   -0.82850  -0.82755  -0.81775  -0.81375  -0.81303
 Alpha  occ. eigenvalues --   -0.80618  -0.79534  -0.78456  -0.77586  -0.77385
 Alpha  occ. eigenvalues --   -0.76801  -0.76124  -0.75460  -0.75097  -0.74490
 Alpha  occ. eigenvalues --   -0.74354  -0.72769  -0.71942  -0.71071  -0.70328
 Alpha  occ. eigenvalues --   -0.69904  -0.69643  -0.69505  -0.69207  -0.68463
 Alpha  occ. eigenvalues --   -0.67465  -0.66975  -0.65611  -0.64741  -0.63537
 Alpha  occ. eigenvalues --   -0.63127  -0.62911  -0.61431  -0.61140  -0.59926
 Alpha  occ. eigenvalues --   -0.59656  -0.59219  -0.58988  -0.58533  -0.58423
 Alpha  occ. eigenvalues --   -0.58171  -0.57453  -0.55733  -0.55383  -0.54377
 Alpha  occ. eigenvalues --   -0.54294  -0.53852  -0.53334  -0.52694  -0.52205
 Alpha  occ. eigenvalues --   -0.51787  -0.51414  -0.50761  -0.50507  -0.49964
 Alpha  occ. eigenvalues --   -0.49613  -0.49590  -0.49379  -0.49027  -0.48887
 Alpha  occ. eigenvalues --   -0.48601  -0.47816  -0.47461  -0.47115  -0.47029
 Alpha  occ. eigenvalues --   -0.46960  -0.46691  -0.46499  -0.46408  -0.46286
 Alpha  occ. eigenvalues --   -0.45927  -0.45687  -0.45635  -0.45560  -0.45282
 Alpha  occ. eigenvalues --   -0.44833  -0.44635  -0.44248  -0.44147  -0.44022
 Alpha  occ. eigenvalues --   -0.43933  -0.43803  -0.43621  -0.43366  -0.43190
 Alpha  occ. eigenvalues --   -0.42997  -0.42937  -0.42747  -0.42514  -0.42048
 Alpha  occ. eigenvalues --   -0.41999  -0.41798  -0.41506  -0.41153  -0.40974
 Alpha  occ. eigenvalues --   -0.40802  -0.40766  -0.40485  -0.40415  -0.40350
 Alpha  occ. eigenvalues --   -0.40238  -0.40013  -0.39723  -0.39641  -0.39536
 Alpha  occ. eigenvalues --   -0.39496  -0.39239  -0.39039  -0.38873  -0.38787
 Alpha  occ. eigenvalues --   -0.38320  -0.38146  -0.38092  -0.38001  -0.37770
 Alpha  occ. eigenvalues --   -0.37599  -0.37443  -0.36770  -0.36518  -0.36310
 Alpha  occ. eigenvalues --   -0.36260  -0.36088  -0.36011  -0.35884  -0.35863
 Alpha  occ. eigenvalues --   -0.35497  -0.35349  -0.35190  -0.34883  -0.34765
 Alpha  occ. eigenvalues --   -0.34521  -0.34434  -0.34378  -0.33975  -0.33748
 Alpha  occ. eigenvalues --   -0.33534  -0.33153  -0.33133  -0.32981  -0.32592
 Alpha  occ. eigenvalues --   -0.32373  -0.32025  -0.31785  -0.31446  -0.31293
 Alpha  occ. eigenvalues --   -0.30945  -0.30243  -0.29933  -0.29592  -0.29243
 Alpha  occ. eigenvalues --   -0.28655  -0.28604  -0.27777  -0.26760  -0.25972
 Alpha  occ. eigenvalues --   -0.25478  -0.25134  -0.25058  -0.24972  -0.20837
 Alpha  occ. eigenvalues --   -0.18547
 Alpha virt. eigenvalues --   -0.11079  -0.05029  -0.03554  -0.02010  -0.00574
 Alpha virt. eigenvalues --    0.00017   0.00487   0.00926   0.01917   0.03441
 Alpha virt. eigenvalues --    0.04171   0.04427   0.04686   0.05281   0.05538

 Mulliken charges:
               1
     1  Mg   0.989278
     2  C   -0.010119
     3  C   -0.078674
     4  C   -0.050793
     5  C   -0.061038
     6  N   -0.381927
     7  C   -0.000309
     8  C   -0.004270
     9  C   -0.189416
    10  C    0.094193
    11  C    0.031744
    12  C    0.029571
    13  C   -0.060988
    14  C    0.258021
    15  O   -0.270216
    16  O   -0.384759
    17  N   -0.559653
    18  C    0.211931
    19  C   -0.182439
    20  C   -0.070342
    21  C    0.164820
    22  C    0.042321
    23  C    0.079400
    24  O   -0.272317
    25  C   -0.033726
    26  N   -0.374847
    27  C    0.067959
    28  C   -0.109227
    29  C   -0.066114
    30  C    0.040927
    31  C    0.015705
    32  C   -0.074144
    33  C   -0.071178
    34  N   -0.450028
    35  C    0.130651
    36  C   -0.164954
    37  C    0.012801
    38  C    0.143423
    39  C    0.067298
    40  C    0.065578
    41  O   -0.210727
    42  C   -0.109515
    43  C    0.288643
    44  O   -0.273964
    45  O   -0.391790
    46  C    0.129545
    47  C    0.256169
    48  C   -0.151881
    49  C   -0.245412
    50  C    0.010014
    51  C    0.016143
    52  C   -0.002283
    53  C   -0.030777
    54  C   -0.226684
    55  C   -0.004244
    56  C    0.012240
    57  C   -0.081123
    58  C    0.006471
    59  C   -0.202103
    60  C   -0.011426
    61  C    0.022969
    62  C   -0.075349
    63  C   -0.026676
    64  C   -0.228602
    65  C   -0.022978
    66  C   -0.020670
    67  H   -0.000439
    68  H    0.035087
    69  H    0.000832
    70  H    0.073065
    71  H    0.037609
    72  H    0.068483
    73  H    0.033449
    74  H    0.024839
    75  H    0.040399
    76  H    0.062300
    77  H    0.062814
    78  H    0.074488
    79  H    0.063420
    80  H    0.023779
    81  H    0.050774
    82  H    0.061267
    83  H    0.060888
    84  H    0.075400
    85  H    0.049962
    86  H    0.042277
    87  H    0.053710
    88  H    0.045035
    89  H    0.044927
    90  H    0.045654
    91  H    0.035092
    92  H    0.032650
    93  H    0.049371
    94  H    0.053549
    95  H    0.036782
    96  H    0.062532
    97  H    0.061895
    98  H    0.080325
    99  H    0.064375
   100  H    0.064948
   101  H    0.055610
   102  H    0.072034
   103  H    0.067520
   104  H    0.040375
   105  H    0.066773
   106  H    0.050689
   107  H    0.032028
   108  H    0.044751
   109  H    0.010281
   110  H    0.040062
   111  H    0.032490
   112  H    0.015315
   113  H    0.030082
   114  H    0.033856
   115  H    0.040215
   116  H    0.028743
   117  H    0.032299
   118  H    0.029084
   119  H    0.026783
   120  H    0.034177
   121  H    0.039143
   122  H    0.017909
   123  H    0.011068
   124  H    0.030743
   125  H    0.032733
   126  H    0.024036
   127  H    0.033291
   128  H    0.021156
   129  H    0.027164
   130  H    0.034020
   131  H    0.027093
   132  H    0.022583
   133  H    0.022950
   134  H    0.034005
   135  H    0.026272
   136  H    0.044033
   137  H    0.035786
   138  H    0.029323
   139  H    0.040018
   140  H    0.041830
 Sum of Mulliken charges =  -0.00000

 Dipole moment (field-independent basis, Debye):
    X=              4.5192    Y=              2.3733    Z=             -3.6657  Tot=              6.2844
 Quadrupole moment (field-independent basis, Debye-Ang):
   XX=           -362.8453   YY=           -427.2454   ZZ=           -400.4631
   XY=            -12.1251   XZ=              4.7129   YZ=              9.2902

 Normal termination of Gaussian 16 at Wed May  4 14:22:58 2022.
