 Gaussian 16, Revision A.03,
 Gaussian 16:  ES64L-G16RevA.03 25-Dec-2016

 --------------------------------
 #p wB97XD/Def2SVP td=(nstates=5)
 --------------------------------

 ----------------------------------------------------
 step_1801_chromophore_9 TDDFT with wB97XD functional
 ----------------------------------------------------
 Symbolic Z-matrix:
 Charge =  0 Multiplicity = 1

                         Standard orientation:
 ---------------------------------------------------------------------
 Center     Atomic      Atomic             Coordinates (Angstroms)
 Number     Number       Type             X           Y           Z
 ---------------------------------------------------------------------
      1         12           0       -5.278042    0.638932   -0.257789
      2          6           0       -4.017769   -2.577973   -0.097964
      3          6           0       -2.077245    1.744863   -0.655411
      4          6           0       -6.454615    3.758148    0.356667
      5          6           0       -8.424411   -0.667417    0.837467
      6          7           0       -3.325620   -0.351587   -0.383146
      7          6           0       -3.001456   -1.664177   -0.293977
      8          6           0       -1.547883   -1.918989   -0.589401
      9          6           0       -0.930705   -0.467754   -0.471836
     10          6           0       -2.189977    0.385225   -0.489929
     11          6           0       -0.127549   -0.140255    0.828848
     12          6           0       -1.379008   -2.648940   -1.927742
     13          6           0        0.078498   -2.876204   -2.495480
     14          6           0        1.306028   -2.752486   -1.528276
     15          8           0        1.205806   -2.707053   -0.300825
     16          8           0        2.466396   -2.713890   -2.287222
     17          7           0       -4.416003    2.466487   -0.271199
     18          6           0       -3.062061    2.724053   -0.493740
     19          6           0       -2.879269    4.110107   -0.450573
     20          6           0       -4.112677    4.775462   -0.274132
     21          6           0       -5.090718    3.677333   -0.045786
     22          6           0       -1.534064    4.678106   -0.749488
     23          6           0       -4.487553    6.290612   -0.141470
     24          8           0       -5.673231    6.673614    0.080410
     25          6           0       -3.391861    7.357798   -0.192486
     26          7           0       -7.162736    1.411132    0.387929
     27          6           0       -7.353377    2.735007    0.513931
     28          6           0       -8.860140    3.055496    0.900970
     29          6           0       -9.457230    1.705547    0.988265
     30          6           0       -8.287080    0.757556    0.740154
     31          6           0       -9.130607    4.008499    2.119931
     32          6           0      -10.754642    1.371828    0.092699
     33          6           0      -10.479676    0.906846   -1.367143
     34          7           0       -6.108226   -1.260776    0.131117
     35          6           0       -7.362805   -1.605221    0.634693
     36          6           0       -7.407336   -3.044968    0.854544
     37          6           0       -6.095174   -3.487115    0.559359
     38          6           0       -5.386515   -2.369141    0.106032
     39          6           0       -8.570009   -3.714012    1.432726
     40          6           0       -5.246539   -4.564779    0.617652
     41          8           0       -5.426964   -5.701079    0.993921
     42          6           0       -3.869970   -4.085774    0.124720
     43          6           0       -2.845070   -4.511452    1.084248
     44          8           0       -2.586791   -3.992516    2.172097
     45          8           0       -2.011624   -5.476538    0.534240
     46          6           0       -0.959873   -5.972838    1.464673
     47          6           0        3.722845   -2.664421   -1.487603
     48          6           0        4.720754   -2.191636   -2.505691
     49          6           0        6.068728   -2.087052   -2.332295
     50          6           0        6.854073   -2.421018   -1.043883
     51          6           0        6.874767   -1.682913   -3.512506
     52          6           0        6.816424   -0.247504   -4.041071
     53          6           0        8.278394    0.217813   -4.407458
     54          6           0        8.877967    1.198455   -3.316052
     55          6           0        9.252143    2.525066   -3.989099
     56          6           0       10.098892    0.553697   -2.578505
     57          6           0        9.947320    0.668389   -1.044818
     58          6           0       11.225102    1.057715   -0.278492
     59          6           0       11.070376    2.115651    0.760374
     60          6           0       11.239338    3.566637    0.246123
     61          6           0       11.877849    1.817234    2.110984
     62          6           0       11.025043    1.510325    3.261797
     63          6           0       11.808527    1.405332    4.575038
     64          6           0       11.454444    0.090968    5.371257
     65          6           0       11.992972   -1.225827    4.668835
     66          6           0        9.940307    0.064498    5.723444
     67          1           0       -1.041276    2.071922   -0.764314
     68          1           0       -6.967210    4.719844    0.418948
     69          1           0       -9.398942   -1.038442    1.161175
     70          1           0       -1.115550   -2.450781    0.257730
     71          1           0       -0.245926   -0.163593   -1.263811
     72          1           0       -0.109660   -0.933612    1.576854
     73          1           0       -0.526965    0.761835    1.293143
     74          1           0        0.857871    0.258196    0.586719
     75          1           0       -1.883526   -1.947903   -2.592667
     76          1           0       -1.844220   -3.632964   -1.974643
     77          1           0        0.089972   -1.986891   -3.126391
     78          1           0        0.247369   -3.692871   -3.197693
     79          1           0       -0.879350    4.814409    0.111112
     80          1           0       -1.685875    5.660570   -1.197580
     81          1           0       -1.042725    4.186068   -1.588541
     82          1           0       -2.507597    7.040149    0.359082
     83          1           0       -3.840086    8.247446    0.251911
     84          1           0       -3.128485    7.576663   -1.227132
     85          1           0       -9.343538    3.555052    0.062102
     86          1           0       -9.870628    1.508504    1.977975
     87          1           0       -8.215172    4.534362    2.387471
     88          1           0       -9.508572    3.412201    2.950875
     89          1           0       -9.835266    4.745961    1.735901
     90          1           0      -11.513809    2.145981   -0.009554
     91          1           0      -11.215346    0.512194    0.580581
     92          1           0      -11.100332    1.455296   -2.074941
     93          1           0      -10.723966   -0.147230   -1.498138
     94          1           0       -9.459369    1.217434   -1.593879
     95          1           0       -9.472428   -3.387139    0.917009
     96          1           0       -8.697237   -3.348518    2.452077
     97          1           0       -8.617038   -4.800635    1.350476
     98          1           0       -3.640161   -4.548014   -0.835140
     99          1           0       -1.417342   -6.437281    2.339139
    100          1           0       -0.398324   -5.090423    1.770543
    101          1           0       -0.327396   -6.676429    0.922789
    102          1           0        3.949245   -3.628274   -1.031073
    103          1           0        3.649699   -1.880404   -0.734482
    104          1           0        4.360572   -2.066197   -3.526704
    105          1           0        6.975912   -1.552270   -0.397356
    106          1           0        7.827928   -2.886294   -1.194937
    107          1           0        6.251640   -3.162921   -0.518266
    108          1           0        6.715178   -2.397652   -4.320479
    109          1           0        7.899751   -1.863621   -3.187942
    110          1           0        6.395004    0.420260   -3.289756
    111          1           0        6.294969   -0.282626   -4.997957
    112          1           0        8.157181    0.746618   -5.352995
    113          1           0        9.022468   -0.532535   -4.675560
    114          1           0        8.106932    1.449235   -2.587808
    115          1           0        9.402620    2.414662   -5.062643
    116          1           0       10.147497    2.916591   -3.505538
    117          1           0        8.477540    3.273520   -3.821324
    118          1           0       11.018249    1.057682   -2.877449
    119          1           0       10.148378   -0.525659   -2.728556
    120          1           0        9.635923   -0.332320   -0.743598
    121          1           0        9.186442    1.414994   -0.817234
    122          1           0       12.052379    1.318364   -0.938686
    123          1           0       11.595077    0.112516    0.119703
    124          1           0       10.037240    1.978112    1.079238
    125          1           0       11.298124    3.754330   -0.826539
    126          1           0       12.162321    4.036005    0.588365
    127          1           0       10.484679    4.239447    0.653998
    128          1           0       12.416906    2.728575    2.367951
    129          1           0       12.554072    1.001974    1.854957
    130          1           0       10.319855    0.687443    3.141726
    131          1           0       10.406744    2.373937    3.506880
    132          1           0       11.587220    2.249837    5.227246
    133          1           0       12.875658    1.534160    4.395238
    134          1           0       11.977364    0.244592    6.314685
    135          1           0       11.212079   -1.900395    4.318239
    136          1           0       12.595023   -1.803426    5.370137
    137          1           0       12.567114   -1.046387    3.759702
    138          1           0        9.568139   -0.856292    5.274602
    139          1           0        9.388038    0.906929    5.307407
    140          1           0        9.757254    0.065414    6.798453
 ---------------------------------------------------------------------

 SCF Done:  E(RwB97XD) =  -3007.88770061     A.U. after   19 cycles

 Excitation energies and oscillator strengths:

 Excited State   1:      Singlet-A      1.6218 eV  764.51 nm  f=0.3933  <S**2>=0.000
     245 -> 248        0.17704
     246 -> 247        0.68465
     245 <- 248        0.11407
 This state for optimization and/or second-order correction.
 Total Energy, E(TD-HF/TD-DFT) =  -3007.82810223
 Copying the excited state density for this state as the 1-particle RhoCI density.

 Excited State   2:      Singlet-A      2.1720 eV  570.82 nm  f=0.1283  <S**2>=0.000
     245 -> 247        0.64225
     246 -> 248       -0.27455

 Excited State   3:      Singlet-A      3.3648 eV  368.47 nm  f=0.0017  <S**2>=0.000
     242 -> 247       -0.22157
     244 -> 247        0.64981

 Excited State   4:      Singlet-A      3.4589 eV  358.45 nm  f=0.0646  <S**2>=0.000
     241 -> 247        0.54788
     241 -> 249       -0.20101
     241 -> 250        0.17722
     242 -> 249        0.12661
     246 -> 248        0.26358

 Excited State   5:      Singlet-A      3.4919 eV  355.06 nm  f=0.1246  <S**2>=0.000
     241 -> 249        0.12677
     242 -> 247        0.48786
     244 -> 247        0.17104
     245 -> 247        0.11826
     246 -> 248        0.40361

 The electronic state is 1-A.
 Alpha  occ. eigenvalues --  -46.94183 -19.31350 -19.28887 -19.26103 -19.24268
 Alpha  occ. eigenvalues --  -19.23553 -19.22600 -14.46453 -14.46410 -14.43924
 Alpha  occ. eigenvalues --  -14.43445 -10.44610 -10.42036 -10.40111 -10.37077
 Alpha  occ. eigenvalues --  -10.36789 -10.34889 -10.34600 -10.34332 -10.34328
 Alpha  occ. eigenvalues --  -10.34155 -10.34086 -10.33632 -10.33139 -10.32261
 Alpha  occ. eigenvalues --  -10.32084 -10.32033 -10.31683 -10.31637 -10.31605
 Alpha  occ. eigenvalues --  -10.31596 -10.31364 -10.31230 -10.31135 -10.31118
 Alpha  occ. eigenvalues --  -10.31005 -10.30896 -10.30794 -10.30603 -10.30429
 Alpha  occ. eigenvalues --  -10.30422 -10.30371 -10.30284 -10.30124 -10.29881
 Alpha  occ. eigenvalues --  -10.29866 -10.29702 -10.29684 -10.29540 -10.29443
 Alpha  occ. eigenvalues --  -10.29405 -10.29026 -10.28982 -10.28845 -10.28752
 Alpha  occ. eigenvalues --  -10.28741 -10.28700 -10.28648 -10.28575 -10.28554
 Alpha  occ. eigenvalues --  -10.28453 -10.28354 -10.28319 -10.28200 -10.28103
 Alpha  occ. eigenvalues --  -10.28082  -3.20250  -1.93847  -1.93370  -1.93230
 Alpha  occ. eigenvalues --   -1.18335  -1.16502  -1.11756  -1.10787  -1.10095
 Alpha  occ. eigenvalues --   -1.07760  -1.06593  -1.06134  -1.05227  -1.03546
 Alpha  occ. eigenvalues --   -0.94787  -0.92556  -0.91943  -0.90904  -0.90835
 Alpha  occ. eigenvalues --   -0.90513  -0.90312  -0.89398  -0.89044  -0.88898
 Alpha  occ. eigenvalues --   -0.88282  -0.87179  -0.86107  -0.85234  -0.85011
 Alpha  occ. eigenvalues --   -0.84438  -0.83790  -0.83163  -0.82794  -0.82103
 Alpha  occ. eigenvalues --   -0.82019  -0.80400  -0.79603  -0.78665  -0.78003
 Alpha  occ. eigenvalues --   -0.77530  -0.77345  -0.77195  -0.76786  -0.76130
 Alpha  occ. eigenvalues --   -0.75025  -0.74550  -0.73141  -0.72338  -0.71100
 Alpha  occ. eigenvalues --   -0.70701  -0.70494  -0.69056  -0.68738  -0.67404
 Alpha  occ. eigenvalues --   -0.67276  -0.66711  -0.66386  -0.66234  -0.65906
 Alpha  occ. eigenvalues --   -0.65643  -0.65101  -0.63329  -0.62812  -0.61857
 Alpha  occ. eigenvalues --   -0.61718  -0.61296  -0.60776  -0.60034  -0.59637
 Alpha  occ. eigenvalues --   -0.59302  -0.58923  -0.58167  -0.57873  -0.57392
 Alpha  occ. eigenvalues --   -0.57002  -0.56991  -0.56843  -0.56478  -0.56343
 Alpha  occ. eigenvalues --   -0.56008  -0.55183  -0.54860  -0.54514  -0.54439
 Alpha  occ. eigenvalues --   -0.54262  -0.54047  -0.53908  -0.53819  -0.53717
 Alpha  occ. eigenvalues --   -0.53241  -0.53052  -0.53016  -0.52926  -0.52611
 Alpha  occ. eigenvalues --   -0.52157  -0.52102  -0.51577  -0.51472  -0.51337
 Alpha  occ. eigenvalues --   -0.51251  -0.51156  -0.50954  -0.50627  -0.50489
 Alpha  occ. eigenvalues --   -0.50312  -0.50246  -0.50059  -0.49798  -0.49330
 Alpha  occ. eigenvalues --   -0.49282  -0.49049  -0.48721  -0.48427  -0.48138
 Alpha  occ. eigenvalues --   -0.48044  -0.47994  -0.47705  -0.47662  -0.47535
 Alpha  occ. eigenvalues --   -0.47420  -0.47193  -0.46967  -0.46779  -0.46697
 Alpha  occ. eigenvalues --   -0.46656  -0.46376  -0.46221  -0.46020  -0.45954
 Alpha  occ. eigenvalues --   -0.45414  -0.45273  -0.45199  -0.45051  -0.44910
 Alpha  occ. eigenvalues --   -0.44785  -0.44443  -0.43900  -0.43620  -0.43448
 Alpha  occ. eigenvalues --   -0.43408  -0.43190  -0.43104  -0.43041  -0.43009
 Alpha  occ. eigenvalues --   -0.42599  -0.42371  -0.42268  -0.41876  -0.41832
 Alpha  occ. eigenvalues --   -0.41542  -0.41527  -0.41374  -0.41002  -0.40706
 Alpha  occ. eigenvalues --   -0.40500  -0.40218  -0.40186  -0.39988  -0.39634
 Alpha  occ. eigenvalues --   -0.39300  -0.39059  -0.38647  -0.38468  -0.38343
 Alpha  occ. eigenvalues --   -0.37916  -0.37341  -0.36899  -0.36481  -0.36134
 Alpha  occ. eigenvalues --   -0.35441  -0.35436  -0.34807  -0.33360  -0.33141
 Alpha  occ. eigenvalues --   -0.32189  -0.32005  -0.31815  -0.31625  -0.25822
 Alpha  occ. eigenvalues --   -0.22702
 Alpha virt. eigenvalues --   -0.07021   0.00521   0.02611   0.04475   0.05960
 Alpha virt. eigenvalues --    0.06263   0.07279   0.07728   0.08621   0.09858
 Alpha virt. eigenvalues --    0.10853   0.10954   0.11441   0.12116   0.12255

 Mulliken charges:
               1
     1  Mg   0.978295
     2  C   -0.008322
     3  C   -0.100520
     4  C   -0.068422
     5  C   -0.080394
     6  N   -0.346326
     7  C   -0.032990
     8  C    0.029393
     9  C   -0.168867
    10  C    0.087279
    11  C    0.038839
    12  C    0.040263
    13  C   -0.044598
    14  C    0.247648
    15  O   -0.267584
    16  O   -0.383919
    17  N   -0.529000
    18  C    0.202603
    19  C   -0.167240
    20  C   -0.067183
    21  C    0.155202
    22  C    0.053472
    23  C    0.075995
    24  O   -0.266466
    25  C   -0.023553
    26  N   -0.338130
    27  C    0.057079
    28  C   -0.086853
    29  C   -0.044124
    30  C    0.030705
    31  C    0.028271
    32  C   -0.060150
    33  C   -0.052453
    34  N   -0.410879
    35  C    0.123102
    36  C   -0.161959
    37  C    0.018680
    38  C    0.121416
    39  C    0.075302
    40  C    0.047588
    41  O   -0.200482
    42  C   -0.069758
    43  C    0.263105
    44  O   -0.267530
    45  O   -0.390445
    46  C    0.145058
    47  C    0.265243
    48  C   -0.159429
    49  C   -0.234206
    50  C    0.026142
    51  C    0.038316
    52  C    0.015269
    53  C   -0.015304
    54  C   -0.198843
    55  C    0.009549
    56  C    0.027279
    57  C   -0.057731
    58  C    0.015970
    59  C   -0.167899
    60  C   -0.000836
    61  C    0.040668
    62  C   -0.057176
    63  C   -0.013423
    64  C   -0.198966
    65  C   -0.011922
    66  C   -0.009419
    67  H   -0.006184
    68  H    0.030104
    69  H   -0.004963
    70  H    0.056040
    71  H    0.026360
    72  H    0.065614
    73  H    0.025320
    74  H    0.019707
    75  H    0.030739
    76  H    0.052817
    77  H    0.055306
    78  H    0.071074
    79  H    0.060603
    80  H    0.016045
    81  H    0.046433
    82  H    0.055997
    83  H    0.059633
    84  H    0.071835
    85  H    0.038599
    86  H    0.030656
    87  H    0.047262
    88  H    0.039421
    89  H    0.039775
    90  H    0.038945
    91  H    0.026293
    92  H    0.027338
    93  H    0.044216
    94  H    0.041903
    95  H    0.030487
    96  H    0.057781
    97  H    0.059726
    98  H    0.072451
    99  H    0.060151
   100  H    0.061042
   101  H    0.052607
   102  H    0.068102
   103  H    0.062798
   104  H    0.037689
   105  H    0.061215
   106  H    0.046281
   107  H    0.025073
   108  H    0.038217
   109  H   -0.006626
   110  H    0.030682
   111  H    0.025863
   112  H    0.006332
   113  H    0.021893
   114  H    0.018712
   115  H    0.033911
   116  H    0.020519
   117  H    0.027035
   118  H    0.018403
   119  H    0.017717
   120  H    0.024795
   121  H    0.025927
   122  H    0.008520
   123  H    0.003057
   124  H    0.014304
   125  H    0.026812
   126  H    0.017428
   127  H    0.027902
   128  H    0.011249
   129  H    0.016468
   130  H    0.023270
   131  H    0.017277
   132  H    0.014739
   133  H    0.014590
   134  H    0.024415
   135  H    0.019719
   136  H    0.039152
   137  H    0.028658
   138  H    0.021865
   139  H    0.032932
   140  H    0.037544
 Sum of Mulliken charges =  -0.00000

 Dipole moment (field-independent basis, Debye):
    X=              4.6521    Y=              2.4984    Z=             -3.7185  Tot=              6.4584
 Quadrupole moment (field-independent basis, Debye-Ang):
   XX=           -364.2744   YY=           -425.1082   ZZ=           -400.1889
   XY=            -12.2055   XZ=              5.1214   YZ=              9.1035

 Normal termination of Gaussian 16 at Wed May  4 14:50:29 2022.
