 Gaussian 16, Revision A.03,
 Gaussian 16:  ES64L-G16RevA.03 25-Dec-2016

 --------------------
 #p ZINDO=(nstates=5)
 --------------------

 -----------------------------
 step_1801_chromophore_9 ZINDO
 -----------------------------
 Symbolic Z-matrix:
 Charge =  0 Multiplicity = 1

                         Standard orientation:
 ---------------------------------------------------------------------
 Center     Atomic      Atomic             Coordinates (Angstroms)
 Number     Number       Type             X           Y           Z
 ---------------------------------------------------------------------
      1         12           0       -5.278042    0.638932   -0.257789
      2          6           0       -4.017769   -2.577973   -0.097964
      3          6           0       -2.077245    1.744863   -0.655411
      4          6           0       -6.454615    3.758148    0.356667
      5          6           0       -8.424411   -0.667417    0.837467
      6          7           0       -3.325620   -0.351587   -0.383146
      7          6           0       -3.001456   -1.664177   -0.293977
      8          6           0       -1.547883   -1.918989   -0.589401
      9          6           0       -0.930705   -0.467754   -0.471836
     10          6           0       -2.189977    0.385225   -0.489929
     11          6           0       -0.127549   -0.140255    0.828848
     12          6           0       -1.379008   -2.648940   -1.927742
     13          6           0        0.078498   -2.876204   -2.495480
     14          6           0        1.306028   -2.752486   -1.528276
     15          8           0        1.205806   -2.707053   -0.300825
     16          8           0        2.466396   -2.713890   -2.287222
     17          7           0       -4.416003    2.466487   -0.271199
     18          6           0       -3.062061    2.724053   -0.493740
     19          6           0       -2.879269    4.110107   -0.450573
     20          6           0       -4.112677    4.775462   -0.274132
     21          6           0       -5.090718    3.677333   -0.045786
     22          6           0       -1.534064    4.678106   -0.749488
     23          6           0       -4.487553    6.290612   -0.141470
     24          8           0       -5.673231    6.673614    0.080410
     25          6           0       -3.391861    7.357798   -0.192486
     26          7           0       -7.162736    1.411132    0.387929
     27          6           0       -7.353377    2.735007    0.513931
     28          6           0       -8.860140    3.055496    0.900970
     29          6           0       -9.457230    1.705547    0.988265
     30          6           0       -8.287080    0.757556    0.740154
     31          6           0       -9.130607    4.008499    2.119931
     32          6           0      -10.754642    1.371828    0.092699
     33          6           0      -10.479676    0.906846   -1.367143
     34          7           0       -6.108226   -1.260776    0.131117
     35          6           0       -7.362805   -1.605221    0.634693
     36          6           0       -7.407336   -3.044968    0.854544
     37          6           0       -6.095174   -3.487115    0.559359
     38          6           0       -5.386515   -2.369141    0.106032
     39          6           0       -8.570009   -3.714012    1.432726
     40          6           0       -5.246539   -4.564779    0.617652
     41          8           0       -5.426964   -5.701079    0.993921
     42          6           0       -3.869970   -4.085774    0.124720
     43          6           0       -2.845070   -4.511452    1.084248
     44          8           0       -2.586791   -3.992516    2.172097
     45          8           0       -2.011624   -5.476538    0.534240
     46          6           0       -0.959873   -5.972838    1.464673
     47          6           0        3.722845   -2.664421   -1.487603
     48          6           0        4.720754   -2.191636   -2.505691
     49          6           0        6.068728   -2.087052   -2.332295
     50          6           0        6.854073   -2.421018   -1.043883
     51          6           0        6.874767   -1.682913   -3.512506
     52          6           0        6.816424   -0.247504   -4.041071
     53          6           0        8.278394    0.217813   -4.407458
     54          6           0        8.877967    1.198455   -3.316052
     55          6           0        9.252143    2.525066   -3.989099
     56          6           0       10.098892    0.553697   -2.578505
     57          6           0        9.947320    0.668389   -1.044818
     58          6           0       11.225102    1.057715   -0.278492
     59          6           0       11.070376    2.115651    0.760374
     60          6           0       11.239338    3.566637    0.246123
     61          6           0       11.877849    1.817234    2.110984
     62          6           0       11.025043    1.510325    3.261797
     63          6           0       11.808527    1.405332    4.575038
     64          6           0       11.454444    0.090968    5.371257
     65          6           0       11.992972   -1.225827    4.668835
     66          6           0        9.940307    0.064498    5.723444
     67          1           0       -1.041276    2.071922   -0.764314
     68          1           0       -6.967210    4.719844    0.418948
     69          1           0       -9.398942   -1.038442    1.161175
     70          1           0       -1.115550   -2.450781    0.257730
     71          1           0       -0.245926   -0.163593   -1.263811
     72          1           0       -0.109660   -0.933612    1.576854
     73          1           0       -0.526965    0.761835    1.293143
     74          1           0        0.857871    0.258196    0.586719
     75          1           0       -1.883526   -1.947903   -2.592667
     76          1           0       -1.844220   -3.632964   -1.974643
     77          1           0        0.089972   -1.986891   -3.126391
     78          1           0        0.247369   -3.692871   -3.197693
     79          1           0       -0.879350    4.814409    0.111112
     80          1           0       -1.685875    5.660570   -1.197580
     81          1           0       -1.042725    4.186068   -1.588541
     82          1           0       -2.507597    7.040149    0.359082
     83          1           0       -3.840086    8.247446    0.251911
     84          1           0       -3.128485    7.576663   -1.227132
     85          1           0       -9.343538    3.555052    0.062102
     86          1           0       -9.870628    1.508504    1.977975
     87          1           0       -8.215172    4.534362    2.387471
     88          1           0       -9.508572    3.412201    2.950875
     89          1           0       -9.835266    4.745961    1.735901
     90          1           0      -11.513809    2.145981   -0.009554
     91          1           0      -11.215346    0.512194    0.580581
     92          1           0      -11.100332    1.455296   -2.074941
     93          1           0      -10.723966   -0.147230   -1.498138
     94          1           0       -9.459369    1.217434   -1.593879
     95          1           0       -9.472428   -3.387139    0.917009
     96          1           0       -8.697237   -3.348518    2.452077
     97          1           0       -8.617038   -4.800635    1.350476
     98          1           0       -3.640161   -4.548014   -0.835140
     99          1           0       -1.417342   -6.437281    2.339139
    100          1           0       -0.398324   -5.090423    1.770543
    101          1           0       -0.327396   -6.676429    0.922789
    102          1           0        3.949245   -3.628274   -1.031073
    103          1           0        3.649699   -1.880404   -0.734482
    104          1           0        4.360572   -2.066197   -3.526704
    105          1           0        6.975912   -1.552270   -0.397356
    106          1           0        7.827928   -2.886294   -1.194937
    107          1           0        6.251640   -3.162921   -0.518266
    108          1           0        6.715178   -2.397652   -4.320479
    109          1           0        7.899751   -1.863621   -3.187942
    110          1           0        6.395004    0.420260   -3.289756
    111          1           0        6.294969   -0.282626   -4.997957
    112          1           0        8.157181    0.746618   -5.352995
    113          1           0        9.022468   -0.532535   -4.675560
    114          1           0        8.106932    1.449235   -2.587808
    115          1           0        9.402620    2.414662   -5.062643
    116          1           0       10.147497    2.916591   -3.505538
    117          1           0        8.477540    3.273520   -3.821324
    118          1           0       11.018249    1.057682   -2.877449
    119          1           0       10.148378   -0.525659   -2.728556
    120          1           0        9.635923   -0.332320   -0.743598
    121          1           0        9.186442    1.414994   -0.817234
    122          1           0       12.052379    1.318364   -0.938686
    123          1           0       11.595077    0.112516    0.119703
    124          1           0       10.037240    1.978112    1.079238
    125          1           0       11.298124    3.754330   -0.826539
    126          1           0       12.162321    4.036005    0.588365
    127          1           0       10.484679    4.239447    0.653998
    128          1           0       12.416906    2.728575    2.367951
    129          1           0       12.554072    1.001974    1.854957
    130          1           0       10.319855    0.687443    3.141726
    131          1           0       10.406744    2.373937    3.506880
    132          1           0       11.587220    2.249837    5.227246
    133          1           0       12.875658    1.534160    4.395238
    134          1           0       11.977364    0.244592    6.314685
    135          1           0       11.212079   -1.900395    4.318239
    136          1           0       12.595023   -1.803426    5.370137
    137          1           0       12.567114   -1.046387    3.759702
    138          1           0        9.568139   -0.856292    5.274602
    139          1           0        9.388038    0.906929    5.307407
    140          1           0        9.757254    0.065414    6.798453
 ---------------------------------------------------------------------

 SCF Done:  E(RZINDO/S) =  -474.380189273     A.U. after   20 cycles

 Excitation energies and oscillator strengths:

 Excited State   1:      Singlet-A      1.2287 eV 1009.03 nm  f=0.6360  <S**2>=0.000
     175 ->178         0.19051
     176 ->177         0.66262
 This state for optimization and/or second-order correction.
 Total Energy, E(CIS/TDA) =  -474.335033868
 Copying the excited state density for this state as the 1-particle RhoCI density.

 Excited State   2:      Singlet-A      1.9536 eV  634.66 nm  f=0.0551  <S**2>=0.000
     175 ->177         0.55086
     176 ->178        -0.41910

 Excited State   3:      Singlet-A      2.9130 eV  425.62 nm  f=0.0221  <S**2>=0.000
     170 ->177         0.36723
     170 ->179        -0.36708
     170 ->181         0.28869
     170 ->186        -0.17291
     170 ->187         0.13791
     170 ->202         0.10982

 Excited State   4:      Singlet-A      3.0052 eV  412.56 nm  f=0.0767  <S**2>=0.000
     168 ->177         0.23697
     168 ->178         0.15911
     168 ->179         0.31973
     168 ->181         0.32107
     168 ->186         0.18053
     175 ->177         0.11150
     176 ->178         0.16935
     176 ->179         0.25087

 Excited State   5:      Singlet-A      3.0206 eV  410.46 nm  f=0.5684  <S**2>=0.000
     168 ->177        -0.13163
     168 ->179        -0.18217
     168 ->181        -0.17674
     175 ->177         0.27835
     176 ->178         0.40459
     176 ->179         0.33230

 The electronic state is 1-A.
 Alpha  occ. eigenvalues --   -1.86029  -1.81540  -1.80598  -1.72473  -1.71616
 Alpha  occ. eigenvalues --   -1.70169  -1.65627  -1.61532  -1.60276  -1.55305
 Alpha  occ. eigenvalues --   -1.54885  -1.51947  -1.48927  -1.48480  -1.46390
 Alpha  occ. eigenvalues --   -1.42474  -1.41598  -1.40292  -1.39853  -1.39243
 Alpha  occ. eigenvalues --   -1.37146  -1.34854  -1.33056  -1.31498  -1.28366
 Alpha  occ. eigenvalues --   -1.27784  -1.25079  -1.22311  -1.20950  -1.18758
 Alpha  occ. eigenvalues --   -1.17510  -1.16111  -1.15156  -1.14807  -1.13908
 Alpha  occ. eigenvalues --   -1.12449  -1.10922  -1.09570  -1.03971  -1.03405
 Alpha  occ. eigenvalues --   -1.02022  -1.01173  -1.00003  -0.97706  -0.97174
 Alpha  occ. eigenvalues --   -0.96152  -0.95152  -0.94317  -0.92589  -0.92497
 Alpha  occ. eigenvalues --   -0.90890  -0.90024  -0.88878  -0.87195  -0.85583
 Alpha  occ. eigenvalues --   -0.84944  -0.83526  -0.82559  -0.81436  -0.80451
 Alpha  occ. eigenvalues --   -0.78921  -0.78069  -0.77746  -0.76865  -0.75961
 Alpha  occ. eigenvalues --   -0.75612  -0.74770  -0.74624  -0.74241  -0.73882
 Alpha  occ. eigenvalues --   -0.73176  -0.72838  -0.71749  -0.71600  -0.71205
 Alpha  occ. eigenvalues --   -0.69550  -0.69076  -0.68849  -0.68625  -0.68525
 Alpha  occ. eigenvalues --   -0.67371  -0.66682  -0.66482  -0.65769  -0.65598
 Alpha  occ. eigenvalues --   -0.65222  -0.64751  -0.63827  -0.63568  -0.63211
 Alpha  occ. eigenvalues --   -0.62838  -0.62392  -0.62290  -0.62043  -0.61763
 Alpha  occ. eigenvalues --   -0.61356  -0.61012  -0.60402  -0.60175  -0.59815
 Alpha  occ. eigenvalues --   -0.59482  -0.59038  -0.58859  -0.58717  -0.58513
 Alpha  occ. eigenvalues --   -0.58030  -0.57446  -0.57391  -0.56865  -0.56770
 Alpha  occ. eigenvalues --   -0.56465  -0.55684  -0.55162  -0.54787  -0.54367
 Alpha  occ. eigenvalues --   -0.54112  -0.53767  -0.53421  -0.53188  -0.52524
 Alpha  occ. eigenvalues --   -0.52149  -0.51997  -0.51842  -0.51267  -0.51124
 Alpha  occ. eigenvalues --   -0.51007  -0.50471  -0.50338  -0.50070  -0.49761
 Alpha  occ. eigenvalues --   -0.49602  -0.49379  -0.49294  -0.49236  -0.48839
 Alpha  occ. eigenvalues --   -0.48588  -0.48410  -0.48367  -0.47878  -0.47660
 Alpha  occ. eigenvalues --   -0.47478  -0.47466  -0.47336  -0.47038  -0.46801
 Alpha  occ. eigenvalues --   -0.46207  -0.45926  -0.45879  -0.45057  -0.44876
 Alpha  occ. eigenvalues --   -0.44780  -0.44766  -0.44657  -0.43907  -0.43775
 Alpha  occ. eigenvalues --   -0.43464  -0.43228  -0.42769  -0.42531  -0.42482
 Alpha  occ. eigenvalues --   -0.41866  -0.41498  -0.40956  -0.39210  -0.38489
 Alpha  occ. eigenvalues --   -0.37644  -0.36869  -0.35676  -0.34592  -0.34287
 Alpha  occ. eigenvalues --   -0.33164  -0.32488  -0.32281  -0.32205  -0.26562
 Alpha  occ. eigenvalues --   -0.21531
 Alpha virt. eigenvalues --   -0.08485  -0.01697  -0.00283   0.01190   0.01466
 Alpha virt. eigenvalues --    0.02379   0.02812   0.03289   0.04084   0.05135
 Alpha virt. eigenvalues --    0.06614   0.07331   0.07735   0.07973   0.08617

 Mulliken charges:
               1
     1  Mg   0.421541
     2  C   -0.053602
     3  C   -0.077547
     4  C   -0.055806
     5  C   -0.075564
     6  N   -0.283597
     7  C    0.140770
     8  C    0.019455
     9  C    0.000781
    10  C    0.142044
    11  C   -0.049813
    12  C   -0.014367
    13  C   -0.012185
    14  C    0.462224
    15  O   -0.512018
    16  O   -0.272529
    17  N   -0.337479
    18  C    0.107645
    19  C    0.016302
    20  C   -0.050424
    21  C    0.126971
    22  C   -0.049235
    23  C    0.322825
    24  O   -0.532220
    25  C   -0.027860
    26  N   -0.249357
    27  C    0.129046
    28  C   -0.002740
    29  C    0.010532
    30  C    0.130837
    31  C   -0.054379
    32  C   -0.039602
    33  C   -0.061915
    34  N   -0.323319
    35  C    0.083881
    36  C    0.046921
    37  C   -0.051971
    38  C    0.132865
    39  C   -0.031159
    40  C    0.342937
    41  O   -0.534515
    42  C    0.051815
    43  C    0.492632
    44  O   -0.528900
    45  O   -0.281812
    46  C    0.075055
    47  C    0.107450
    48  C   -0.095666
    49  C   -0.013092
    50  C   -0.042801
    51  C   -0.022187
    52  C   -0.028174
    53  C   -0.045874
    54  C   -0.016754
    55  C   -0.057240
    56  C   -0.039427
    57  C   -0.041556
    58  C   -0.027866
    59  C   -0.012875
    60  C   -0.056576
    61  C   -0.028519
    62  C   -0.026619
    63  C   -0.036684
    64  C   -0.012836
    65  C   -0.056968
    66  C   -0.056860
    67  H    0.023204
    68  H    0.050068
    69  H    0.033883
    70  H    0.051746
    71  H    0.029020
    72  H    0.041416
    73  H    0.013709
    74  H    0.018044
    75  H    0.021493
    76  H    0.028806
    77  H    0.031655
    78  H    0.051559
    79  H    0.037847
    80  H    0.009076
    81  H    0.025688
    82  H    0.034734
    83  H    0.038810
    84  H    0.043202
    85  H    0.027326
    86  H    0.021883
    87  H    0.029844
    88  H    0.027024
    89  H    0.024407
    90  H    0.027224
    91  H    0.012537
    92  H    0.011622
    93  H    0.026882
    94  H    0.026351
    95  H    0.018827
    96  H    0.038323
    97  H    0.035024
    98  H    0.048230
    99  H    0.049496
   100  H    0.047804
   101  H    0.031472
   102  H    0.059000
   103  H    0.054596
   104  H    0.037765
   105  H    0.033815
   106  H    0.029282
   107  H    0.016787
   108  H    0.024073
   109  H    0.008095
   110  H    0.034500
   111  H    0.022395
   112  H    0.005788
   113  H    0.027846
   114  H    0.024849
   115  H    0.023667
   116  H    0.014635
   117  H    0.013519
   118  H    0.025864
   119  H    0.019607
   120  H    0.018015
   121  H    0.021545
   122  H    0.013490
   123  H    0.008005
   124  H    0.012605
   125  H    0.020700
   126  H    0.012043
   127  H    0.014804
   128  H    0.020411
   129  H    0.022635
   130  H    0.025076
   131  H    0.010583
   132  H    0.010611
   133  H    0.013989
   134  H    0.012909
   135  H    0.017556
   136  H    0.018899
   137  H    0.019503
   138  H    0.018604
   139  H    0.021498
   140  H    0.020165
 Sum of Mulliken charges =  -0.00000

 Dipole moment (field-independent basis, Debye):
    X=              5.1030    Y=              3.0413    Z=             -5.5813  Tot=              8.1511
 N-N= 4.335078783188D+03 E-N= 0.000000000000D+00  KE=-9.345014010601D+03
 Leave Link  601 at Wed May  4 15:04:27 2022, MaxMem=  6710886400 cpu:               1.1 elap:               0.1
 (Enter /sw/apps/gaussian-16.0/g16/l9999.exe)
 1\1\GINC-BP1-COMPUTE067\SP\RZINDO CIS\STO-3G\C55H74Mg1N4O6\OF15641\04-
 May-2022\0\\#p ZINDO=(nstates=5)\\step_1801_chromophore_9 ZINDO\\0,1\M
 g,0,36.484,0.417,29.643\C,0,34.267,1.605,32.017\C,0,38.893,0.438,32.05
 6\C,0,38.748,0.004,27.154\C,0,34.009,1.117,27.155\N,0,36.507,0.942,31.
 772\C,0,35.517,1.41,32.57\C,0,35.933,1.493,34.014\C,0,37.507,1.383,33.
 908\C,0,37.668,0.899,32.475\C,0,38.325,2.704,34.081\C,0,35.209,0.435,3
 4.856\C,0,35.618,0.254,36.372\C,0,36.414,1.396,37.093\O,0,36.556,2.528

 Normal termination of Gaussian 16 at Wed May  4 15:04:28 2022.
