 Gaussian 16, Revision A.03,
 Gaussian 16:  ES64L-G16RevA.03 25-Dec-2016

 ------------------------------
 #p blyp/Def2SVP td=(nstates=5)
 ------------------------------

 --------------------------------------------------
 step_1651_chromophore_8 TDDFT with blyp functional
 --------------------------------------------------
 Symbolic Z-matrix:
 Charge =  0 Multiplicity = 1

                         Standard orientation:
 ---------------------------------------------------------------------
 Center     Atomic      Atomic             Coordinates (Angstroms)
 Number     Number       Type             X           Y           Z
 ---------------------------------------------------------------------
      1         12           0        4.466340    1.122136    0.378577
      2          6           0        4.427852   -2.440506    0.863373
      3          6           0        5.245131    0.560076   -2.896903
      4          6           0        4.009782    4.403727   -0.137596
      5          6           0        3.112189    1.443257    3.628574
      6          7           0        4.824314   -0.675144   -0.828250
      7          6           0        4.702830   -2.033708   -0.481469
      8          6           0        4.946605   -2.928565   -1.703133
      9          6           0        5.290245   -1.906866   -2.750430
     10          6           0        5.139276   -0.556897   -2.110531
     11          6           0        6.635166   -2.273342   -3.447610
     12          6           0        3.612582   -3.783691   -2.075690
     13          6           0        2.363857   -3.121891   -2.463809
     14          6           0        1.061347   -3.526525   -1.841663
     15          8           0        0.858995   -3.849876   -0.687406
     16          8           0        0.017788   -3.505577   -2.809800
     17          7           0        4.648445    2.342756   -1.289050
     18          6           0        4.957921    1.923972   -2.601133
     19          6           0        4.869333    3.054646   -3.509819
     20          6           0        4.538756    4.245159   -2.740925
     21          6           0        4.425352    3.685687   -1.320629
     22          6           0        4.994930    2.928254   -5.007594
     23          6           0        4.196592    5.624453   -3.311730
     24          8           0        4.284572    5.863955   -4.532861
     25          6           0        3.749491    6.724358   -2.412704
     26          7           0        3.737043    2.722479    1.633170
     27          6           0        3.735874    3.976931    1.163497
     28          6           0        3.258562    4.902459    2.247688
     29          6           0        3.028727    3.952968    3.484405
     30          6           0        3.365343    2.577996    2.886877
     31          6           0        4.252217    6.039565    2.678757
     32          6           0        1.538075    4.008844    4.030931
     33          6           0        1.403431    4.784026    5.392575
     34          7           0        3.825464   -0.174080    1.971908
     35          6           0        3.340878    0.101635    3.214310
     36          6           0        3.146703   -1.169508    3.888894
     37          6           0        3.599748   -2.204841    3.050785
     38          6           0        3.976576   -1.545310    1.912235
     39          6           0        2.647748   -1.274300    5.264000
     40          6           0        3.849127   -3.610159    2.867883
     41          8           0        3.633631   -4.570507    3.646405
     42          6           0        4.349356   -3.870978    1.419485
     43          6           0        5.600316   -4.611428    1.394249
     44          8           0        6.525744   -4.439144    2.184152
     45          8           0        5.550229   -5.511646    0.360718
     46          6           0        6.691315   -6.384071    0.030892
     47          6           0       -1.305197   -3.725873   -2.272779
     48          6           0       -1.811945   -2.480809   -1.476923
     49          6           0       -3.074625   -2.285440   -1.003550
     50          6           0       -4.131934   -3.408914   -1.075839
     51          6           0       -3.672409   -0.937117   -0.446290
     52          6           0       -4.296018    0.042613   -1.500769
     53          6           0       -4.767092    1.394708   -0.946178
     54          6           0       -6.297589    1.541724   -1.050734
     55          6           0       -6.636282    2.958382   -1.404745
     56          6           0       -6.984175    1.085526    0.286822
     57          6           0       -7.860378   -0.215544    0.229991
     58          6           0       -8.746344   -0.286802    1.432022
     59          6           0      -10.192422    0.206282    1.162250
     60          6           0      -10.758946    0.891801    2.437393
     61          6           0      -11.126634   -0.971535    0.540358
     62          6           0      -12.127652   -0.468382   -0.518368
     63          6           0      -13.595123   -1.013326   -0.302924
     64          6           0      -14.678168    0.096290   -0.431966
     65          6           0      -14.999903    0.445914   -1.888364
     66          6           0      -16.070444   -0.383358    0.219620
     67          1           0        5.359166    0.377212   -3.966898
     68          1           0        3.783024    5.470014   -0.195709
     69          1           0        2.981289    1.599531    4.701809
     70          1           0        5.802014   -3.563753   -1.472782
     71          1           0        4.477559   -1.859620   -3.474899
     72          1           0        6.326028   -1.968201   -4.446808
     73          1           0        6.800187   -3.341660   -3.304660
     74          1           0        7.507619   -1.676065   -3.183144
     75          1           0        3.486179   -4.507090   -1.269920
     76          1           0        3.888992   -4.371873   -2.950869
     77          1           0        2.377887   -3.253538   -3.544850
     78          1           0        2.308058   -2.033517   -2.444838
     79          1           0        5.344384    3.832159   -5.505924
     80          1           0        4.043920    2.656159   -5.464472
     81          1           0        5.707343    2.131994   -5.225508
     82          1           0        4.430649    6.814841   -1.566266
     83          1           0        2.772684    6.432812   -2.024844
     84          1           0        3.664500    7.660100   -2.965268
     85          1           0        2.278540    5.207213    1.880198
     86          1           0        3.716573    4.251144    4.276027
     87          1           0        5.270161    5.775978    2.392319
     88          1           0        4.121099    6.241878    3.742280
     89          1           0        3.927978    6.952169    2.179510
     90          1           0        1.139798    3.033679    4.309615
     91          1           0        0.906404    4.572980    3.343937
     92          1           0        2.373718    4.943069    5.863038
     93          1           0        0.819824    4.211944    6.112987
     94          1           0        0.973536    5.767835    5.203484
     95          1           0        1.648346   -1.690762    5.134447
     96          1           0        2.479647   -0.348485    5.814514
     97          1           0        3.293378   -1.915502    5.863358
     98          1           0        3.494115   -4.386767    0.984292
     99          1           0        6.796690   -6.882142    0.994979
    100          1           0        7.621636   -5.818980   -0.038397
    101          1           0        6.485230   -7.209162   -0.651346
    102          1           0       -1.349756   -4.533795   -1.542398
    103          1           0       -2.056181   -4.089427   -2.973708
    104          1           0       -1.183825   -1.622490   -1.239809
    105          1           0       -5.108404   -3.058161   -1.409043
    106          1           0       -4.321983   -3.683992   -0.039190
    107          1           0       -3.607036   -4.176381   -1.645750
    108          1           0       -2.804355   -0.467249    0.016400
    109          1           0       -4.335918   -1.084899    0.405912
    110          1           0       -5.167506   -0.465597   -1.913879
    111          1           0       -3.629889    0.353117   -2.305088
    112          1           0       -4.362454    2.123205   -1.649067
    113          1           0       -4.328061    1.666323    0.014130
    114          1           0       -6.710613    0.923886   -1.847900
    115          1           0       -7.705426    3.135143   -1.287306
    116          1           0       -6.424373    3.136317   -2.458813
    117          1           0       -5.985348    3.656255   -0.879719
    118          1           0       -7.491174    1.898300    0.805353
    119          1           0       -6.246976    0.917449    1.072080
    120          1           0       -7.093274   -0.990351    0.230038
    121          1           0       -8.397111   -0.350059   -0.710001
    122          1           0       -8.332739    0.359981    2.205868
    123          1           0       -8.619703   -1.271601    1.881763
    124          1           0      -10.097336    0.959131    0.379305
    125          1           0      -10.259696    0.565825    3.349941
    126          1           0      -11.840538    0.848138    2.564673
    127          1           0      -10.512067    1.950566    2.359267
    128          1           0      -11.647589   -1.496401    1.340793
    129          1           0      -10.492927   -1.776959    0.166784
    130          1           0      -11.722210   -1.006897   -1.374440
    131          1           0      -12.114636    0.615805   -0.619734
    132          1           0      -13.677255   -1.472438    0.681694
    133          1           0      -13.783302   -1.879851   -0.936618
    134          1           0      -14.412036    0.989812    0.132117
    135          1           0      -14.391023    1.325522   -2.098811
    136          1           0      -16.046890    0.687866   -2.068233
    137          1           0      -14.616902   -0.316453   -2.567144
    138          1           0      -15.980005   -0.214495    1.293110
    139          1           0      -16.079106   -1.444970   -0.023703
    140          1           0      -16.862858    0.219462   -0.225714
 ---------------------------------------------------------------------

 SCF Done:  E(RB-LYP) =  -3007.37002673     A.U. after   21 cycles

 Excitation energies and oscillator strengths:

 Excited State   1:      Singlet-A      1.7146 eV  723.10 nm  f=0.0008  <S**2>=0.000
     244 -> 247        0.70477
 This state for optimization and/or second-order correction.
 Total Energy, E(TD-HF/TD-DFT) =  -3007.30701541
 Copying the excited state density for this state as the 1-particle RhoCI density.

 Excited State   2:      Singlet-A      1.7968 eV  690.02 nm  f=0.3072  <S**2>=0.000
     245 -> 248        0.18230
     246 -> 247        0.69151
     246 <- 247       -0.15862

 Excited State   3:      Singlet-A      1.8778 eV  660.26 nm  f=0.0005  <S**2>=0.000
     243 -> 247        0.70514

 Excited State   4:      Singlet-A      2.0189 eV  614.13 nm  f=0.0811  <S**2>=0.000
     245 -> 247        0.64626
     246 -> 248       -0.22693
     246 -> 249        0.10249

 Excited State   5:      Singlet-A      2.0574 eV  602.63 nm  f=0.0001  <S**2>=0.000
     242 -> 247        0.70685

 The electronic state is 1-A.
 Alpha  occ. eigenvalues --  -46.27739 -18.82566 -18.82273 -18.78231 -18.76787
 Alpha  occ. eigenvalues --  -18.75480 -18.74879 -14.03761 -14.03036 -14.01907
 Alpha  occ. eigenvalues --  -14.00693 -10.05160 -10.04203 -10.00197  -9.99229
 Alpha  occ. eigenvalues --   -9.98601  -9.98438  -9.97254  -9.97102  -9.96511
 Alpha  occ. eigenvalues --   -9.96288  -9.96137  -9.96132  -9.95295  -9.94615
 Alpha  occ. eigenvalues --   -9.94518  -9.94404  -9.94372  -9.94288  -9.93825
 Alpha  occ. eigenvalues --   -9.93705  -9.93633  -9.93602  -9.93579  -9.93503
 Alpha  occ. eigenvalues --   -9.93437  -9.93137  -9.93075  -9.93013  -9.92937
 Alpha  occ. eigenvalues --   -9.92935  -9.92733  -9.92629  -9.92438  -9.92272
 Alpha  occ. eigenvalues --   -9.92176  -9.91968  -9.91915  -9.91846  -9.91828
 Alpha  occ. eigenvalues --   -9.91790  -9.91642  -9.91636  -9.91634  -9.91354
 Alpha  occ. eigenvalues --   -9.91296  -9.91164  -9.91151  -9.91011  -9.90953
 Alpha  occ. eigenvalues --   -9.90880  -9.90796  -9.90769  -9.90719  -9.90571
 Alpha  occ. eigenvalues --   -9.90448  -2.92245  -1.72688  -1.72091  -1.71980
 Alpha  occ. eigenvalues --   -0.97737  -0.97531  -0.90596  -0.90256  -0.90034
 Alpha  occ. eigenvalues --   -0.88920  -0.87618  -0.86759  -0.85580  -0.84502
 Alpha  occ. eigenvalues --   -0.75613  -0.74052  -0.73279  -0.72257  -0.72115
 Alpha  occ. eigenvalues --   -0.71933  -0.71614  -0.71354  -0.70717  -0.70310
 Alpha  occ. eigenvalues --   -0.69929  -0.69279  -0.68285  -0.67725  -0.67420
 Alpha  occ. eigenvalues --   -0.66536  -0.66462  -0.65692  -0.65153  -0.64687
 Alpha  occ. eigenvalues --   -0.64097  -0.62530  -0.62026  -0.61715  -0.60907
 Alpha  occ. eigenvalues --   -0.60139  -0.60048  -0.59501  -0.59324  -0.58977
 Alpha  occ. eigenvalues --   -0.58677  -0.57516  -0.57352  -0.56327  -0.54441
 Alpha  occ. eigenvalues --   -0.54267  -0.53576  -0.53133  -0.52226  -0.52061
 Alpha  occ. eigenvalues --   -0.51705  -0.51314  -0.51119  -0.50460  -0.50040
 Alpha  occ. eigenvalues --   -0.49487  -0.49403  -0.49340  -0.48553  -0.46481
 Alpha  occ. eigenvalues --   -0.46214  -0.45801  -0.45597  -0.45447  -0.45251
 Alpha  occ. eigenvalues --   -0.44845  -0.44128  -0.43534  -0.42778  -0.42558
 Alpha  occ. eigenvalues --   -0.42135  -0.42093  -0.41478  -0.41407  -0.41261
 Alpha  occ. eigenvalues --   -0.40783  -0.40685  -0.40403  -0.40097  -0.39926
 Alpha  occ. eigenvalues --   -0.39826  -0.39720  -0.39488  -0.39121  -0.38974
 Alpha  occ. eigenvalues --   -0.38772  -0.38750  -0.38524  -0.38471  -0.38385
 Alpha  occ. eigenvalues --   -0.38312  -0.37970  -0.37805  -0.37578  -0.37341
 Alpha  occ. eigenvalues --   -0.37214  -0.37076  -0.36880  -0.36653  -0.36473
 Alpha  occ. eigenvalues --   -0.36223  -0.36090  -0.35972  -0.35802  -0.35582
 Alpha  occ. eigenvalues --   -0.35431  -0.35286  -0.34941  -0.34882  -0.34755
 Alpha  occ. eigenvalues --   -0.34553  -0.34507  -0.34254  -0.34104  -0.33845
 Alpha  occ. eigenvalues --   -0.33707  -0.33655  -0.33552  -0.33292  -0.33217
 Alpha  occ. eigenvalues --   -0.33039  -0.32931  -0.32743  -0.32580  -0.32459
 Alpha  occ. eigenvalues --   -0.32275  -0.32235  -0.32042  -0.31861  -0.31443
 Alpha  occ. eigenvalues --   -0.31285  -0.31135  -0.31001  -0.30714  -0.30536
 Alpha  occ. eigenvalues --   -0.30429  -0.30076  -0.29898  -0.29890  -0.29879
 Alpha  occ. eigenvalues --   -0.29624  -0.29557  -0.29206  -0.29109  -0.29019
 Alpha  occ. eigenvalues --   -0.28827  -0.28708  -0.28030  -0.27994  -0.27642
 Alpha  occ. eigenvalues --   -0.27546  -0.27364  -0.27240  -0.26641  -0.26424
 Alpha  occ. eigenvalues --   -0.26380  -0.26058  -0.25729  -0.25446  -0.25095
 Alpha  occ. eigenvalues --   -0.25071  -0.24531  -0.24491  -0.24082  -0.23711
 Alpha  occ. eigenvalues --   -0.23287  -0.23264  -0.22515  -0.21756  -0.20680
 Alpha  occ. eigenvalues --   -0.20139  -0.19430  -0.18686  -0.18084  -0.17580
 Alpha  occ. eigenvalues --   -0.16009
 Alpha virt. eigenvalues --   -0.11869  -0.07170  -0.06217  -0.04644  -0.03653
 Alpha virt. eigenvalues --   -0.02986  -0.02365  -0.01209  -0.01160  -0.00283
 Alpha virt. eigenvalues --    0.00359   0.01185   0.01951   0.02147   0.02654

 Mulliken charges:
               1
     1  Mg   0.689547
     2  C   -0.048303
     3  C   -0.088742
     4  C   -0.024523
     5  C   -0.075766
     6  N   -0.205498
     7  C   -0.099472
     8  C    0.070445
     9  C   -0.022996
    10  C    0.061791
    11  C    0.142133
    12  C    0.113265
    13  C    0.116863
    14  C    0.084356
    15  O   -0.157516
    16  O   -0.283762
    17  N   -0.311839
    18  C    0.121636
    19  C   -0.128208
    20  C    0.018073
    21  C    0.135123
    22  C    0.167911
    23  C   -0.076810
    24  O   -0.182645
    25  C    0.144648
    26  N   -0.176291
    27  C   -0.055741
    28  C    0.027325
    29  C    0.008357
    30  C    0.013693
    31  C    0.132837
    32  C    0.080141
    33  C    0.032559
    34  N   -0.245658
    35  C    0.116809
    36  C   -0.188139
    37  C    0.143035
    38  C    0.072093
    39  C    0.171989
    40  C   -0.091076
    41  O   -0.162973
    42  C    0.123300
    43  C    0.121152
    44  O   -0.174401
    45  O   -0.287460
    46  C    0.229943
    47  C    0.317247
    48  C   -0.076606
    49  C   -0.188117
    50  C    0.139230
    51  C    0.114744
    52  C    0.093326
    53  C    0.121056
    54  C   -0.055526
    55  C    0.117362
    56  C    0.070659
    57  C    0.069119
    58  C    0.113828
    59  C   -0.057921
    60  C    0.107660
    61  C    0.075585
    62  C    0.107680
    63  C    0.085436
    64  C   -0.124371
    65  C    0.118947
    66  C    0.080963
    67  H   -0.066247
    68  H   -0.092282
    69  H   -0.043421
    70  H   -0.026222
    71  H   -0.028167
    72  H   -0.006084
    73  H    0.002521
    74  H    0.002256
    75  H    0.002139
    76  H   -0.027225
    77  H   -0.008913
    78  H    0.019252
    79  H    0.008693
    80  H    0.004873
    81  H   -0.014203
    82  H    0.021747
    83  H    0.011560
    84  H   -0.005618
    85  H   -0.020719
    86  H   -0.020737
    87  H    0.006530
    88  H   -0.001149
    89  H   -0.010328
    90  H   -0.007678
    91  H   -0.016350
    92  H   -0.017426
    93  H   -0.005104
    94  H   -0.005977
    95  H    0.005026
    96  H   -0.030603
    97  H    0.018314
    98  H    0.028728
    99  H    0.005189
   100  H    0.017359
   101  H    0.032016
   102  H    0.002662
   103  H    0.012441
   104  H   -0.044097
   105  H   -0.002770
   106  H   -0.002699
   107  H   -0.023379
   108  H   -0.038750
   109  H   -0.030056
   110  H   -0.029855
   111  H   -0.027163
   112  H   -0.055506
   113  H   -0.029213
   114  H   -0.038885
   115  H   -0.017705
   116  H   -0.027175
   117  H   -0.017054
   118  H   -0.046932
   119  H   -0.047550
   120  H   -0.040945
   121  H   -0.025325
   122  H   -0.050666
   123  H   -0.041044
   124  H   -0.034834
   125  H   -0.010726
   126  H   -0.015793
   127  H   -0.022055
   128  H   -0.041224
   129  H   -0.040609
   130  H   -0.028620
   131  H   -0.010042
   132  H   -0.039533
   133  H   -0.033209
   134  H   -0.029868
   135  H   -0.023423
   136  H   -0.012185
   137  H   -0.017925
   138  H   -0.012647
   139  H   -0.008550
   140  H   -0.010343
 Sum of Mulliken charges =  -0.00000

 Dipole moment (field-independent basis, Debye):
    X=             -0.8349    Y=              1.5101    Z=             -1.4421  Tot=              2.2488
 Quadrupole moment (field-independent basis, Debye-Ang):
   XX=           -403.2746   YY=           -407.2464   ZZ=           -420.7154
   XY=             -6.6547   XZ=            -11.2399   YZ=             58.6474

 Normal termination of Gaussian 16 at Thu Apr 28 18:38:44 2022.
