 Gaussian 16, Revision A.03,
 Gaussian 16:  ES64L-G16RevA.03 25-Dec-2016

 -----------------------------------
 #p cam-b3lyp/Def2SVP td=(nstates=5)
 -----------------------------------

 -------------------------------------------------------
 step_1651_chromophore_8 TDDFT with cam-b3lyp functional
 -------------------------------------------------------
 Symbolic Z-matrix:
 Charge =  0 Multiplicity = 1

                         Standard orientation:
 ---------------------------------------------------------------------
 Center     Atomic      Atomic             Coordinates (Angstroms)
 Number     Number       Type             X           Y           Z
 ---------------------------------------------------------------------
      1         12           0        4.466340    1.122136    0.378577
      2          6           0        4.427852   -2.440506    0.863373
      3          6           0        5.245131    0.560076   -2.896903
      4          6           0        4.009782    4.403727   -0.137596
      5          6           0        3.112189    1.443257    3.628574
      6          7           0        4.824314   -0.675144   -0.828250
      7          6           0        4.702830   -2.033708   -0.481469
      8          6           0        4.946605   -2.928565   -1.703133
      9          6           0        5.290245   -1.906866   -2.750430
     10          6           0        5.139276   -0.556897   -2.110531
     11          6           0        6.635166   -2.273342   -3.447610
     12          6           0        3.612582   -3.783691   -2.075690
     13          6           0        2.363857   -3.121891   -2.463809
     14          6           0        1.061347   -3.526525   -1.841663
     15          8           0        0.858995   -3.849876   -0.687406
     16          8           0        0.017788   -3.505577   -2.809800
     17          7           0        4.648445    2.342756   -1.289050
     18          6           0        4.957921    1.923972   -2.601133
     19          6           0        4.869333    3.054646   -3.509819
     20          6           0        4.538756    4.245159   -2.740925
     21          6           0        4.425352    3.685687   -1.320629
     22          6           0        4.994930    2.928254   -5.007594
     23          6           0        4.196592    5.624453   -3.311730
     24          8           0        4.284572    5.863955   -4.532861
     25          6           0        3.749491    6.724358   -2.412704
     26          7           0        3.737043    2.722479    1.633170
     27          6           0        3.735874    3.976931    1.163497
     28          6           0        3.258562    4.902459    2.247688
     29          6           0        3.028727    3.952968    3.484405
     30          6           0        3.365343    2.577996    2.886877
     31          6           0        4.252217    6.039565    2.678757
     32          6           0        1.538075    4.008844    4.030931
     33          6           0        1.403431    4.784026    5.392575
     34          7           0        3.825464   -0.174080    1.971908
     35          6           0        3.340878    0.101635    3.214310
     36          6           0        3.146703   -1.169508    3.888894
     37          6           0        3.599748   -2.204841    3.050785
     38          6           0        3.976576   -1.545310    1.912235
     39          6           0        2.647748   -1.274300    5.264000
     40          6           0        3.849127   -3.610159    2.867883
     41          8           0        3.633631   -4.570507    3.646405
     42          6           0        4.349356   -3.870978    1.419485
     43          6           0        5.600316   -4.611428    1.394249
     44          8           0        6.525744   -4.439144    2.184152
     45          8           0        5.550229   -5.511646    0.360718
     46          6           0        6.691315   -6.384071    0.030892
     47          6           0       -1.305197   -3.725873   -2.272779
     48          6           0       -1.811945   -2.480809   -1.476923
     49          6           0       -3.074625   -2.285440   -1.003550
     50          6           0       -4.131934   -3.408914   -1.075839
     51          6           0       -3.672409   -0.937117   -0.446290
     52          6           0       -4.296018    0.042613   -1.500769
     53          6           0       -4.767092    1.394708   -0.946178
     54          6           0       -6.297589    1.541724   -1.050734
     55          6           0       -6.636282    2.958382   -1.404745
     56          6           0       -6.984175    1.085526    0.286822
     57          6           0       -7.860378   -0.215544    0.229991
     58          6           0       -8.746344   -0.286802    1.432022
     59          6           0      -10.192422    0.206282    1.162250
     60          6           0      -10.758946    0.891801    2.437393
     61          6           0      -11.126634   -0.971535    0.540358
     62          6           0      -12.127652   -0.468382   -0.518368
     63          6           0      -13.595123   -1.013326   -0.302924
     64          6           0      -14.678168    0.096290   -0.431966
     65          6           0      -14.999903    0.445914   -1.888364
     66          6           0      -16.070444   -0.383358    0.219620
     67          1           0        5.359166    0.377212   -3.966898
     68          1           0        3.783024    5.470014   -0.195709
     69          1           0        2.981289    1.599531    4.701809
     70          1           0        5.802014   -3.563753   -1.472782
     71          1           0        4.477559   -1.859620   -3.474899
     72          1           0        6.326028   -1.968201   -4.446808
     73          1           0        6.800187   -3.341660   -3.304660
     74          1           0        7.507619   -1.676065   -3.183144
     75          1           0        3.486179   -4.507090   -1.269920
     76          1           0        3.888992   -4.371873   -2.950869
     77          1           0        2.377887   -3.253538   -3.544850
     78          1           0        2.308058   -2.033517   -2.444838
     79          1           0        5.344384    3.832159   -5.505924
     80          1           0        4.043920    2.656159   -5.464472
     81          1           0        5.707343    2.131994   -5.225508
     82          1           0        4.430649    6.814841   -1.566266
     83          1           0        2.772684    6.432812   -2.024844
     84          1           0        3.664500    7.660100   -2.965268
     85          1           0        2.278540    5.207213    1.880198
     86          1           0        3.716573    4.251144    4.276027
     87          1           0        5.270161    5.775978    2.392319
     88          1           0        4.121099    6.241878    3.742280
     89          1           0        3.927978    6.952169    2.179510
     90          1           0        1.139798    3.033679    4.309615
     91          1           0        0.906404    4.572980    3.343937
     92          1           0        2.373718    4.943069    5.863038
     93          1           0        0.819824    4.211944    6.112987
     94          1           0        0.973536    5.767835    5.203484
     95          1           0        1.648346   -1.690762    5.134447
     96          1           0        2.479647   -0.348485    5.814514
     97          1           0        3.293378   -1.915502    5.863358
     98          1           0        3.494115   -4.386767    0.984292
     99          1           0        6.796690   -6.882142    0.994979
    100          1           0        7.621636   -5.818980   -0.038397
    101          1           0        6.485230   -7.209162   -0.651346
    102          1           0       -1.349756   -4.533795   -1.542398
    103          1           0       -2.056181   -4.089427   -2.973708
    104          1           0       -1.183825   -1.622490   -1.239809
    105          1           0       -5.108404   -3.058161   -1.409043
    106          1           0       -4.321983   -3.683992   -0.039190
    107          1           0       -3.607036   -4.176381   -1.645750
    108          1           0       -2.804355   -0.467249    0.016400
    109          1           0       -4.335918   -1.084899    0.405912
    110          1           0       -5.167506   -0.465597   -1.913879
    111          1           0       -3.629889    0.353117   -2.305088
    112          1           0       -4.362454    2.123205   -1.649067
    113          1           0       -4.328061    1.666323    0.014130
    114          1           0       -6.710613    0.923886   -1.847900
    115          1           0       -7.705426    3.135143   -1.287306
    116          1           0       -6.424373    3.136317   -2.458813
    117          1           0       -5.985348    3.656255   -0.879719
    118          1           0       -7.491174    1.898300    0.805353
    119          1           0       -6.246976    0.917449    1.072080
    120          1           0       -7.093274   -0.990351    0.230038
    121          1           0       -8.397111   -0.350059   -0.710001
    122          1           0       -8.332739    0.359981    2.205868
    123          1           0       -8.619703   -1.271601    1.881763
    124          1           0      -10.097336    0.959131    0.379305
    125          1           0      -10.259696    0.565825    3.349941
    126          1           0      -11.840538    0.848138    2.564673
    127          1           0      -10.512067    1.950566    2.359267
    128          1           0      -11.647589   -1.496401    1.340793
    129          1           0      -10.492927   -1.776959    0.166784
    130          1           0      -11.722210   -1.006897   -1.374440
    131          1           0      -12.114636    0.615805   -0.619734
    132          1           0      -13.677255   -1.472438    0.681694
    133          1           0      -13.783302   -1.879851   -0.936618
    134          1           0      -14.412036    0.989812    0.132117
    135          1           0      -14.391023    1.325522   -2.098811
    136          1           0      -16.046890    0.687866   -2.068233
    137          1           0      -14.616902   -0.316453   -2.567144
    138          1           0      -15.980005   -0.214495    1.293110
    139          1           0      -16.079106   -1.444970   -0.023703
    140          1           0      -16.862858    0.219462   -0.225714
 ---------------------------------------------------------------------

 SCF Done:  E(RCAM-B3LYP) =  -3007.15599841     A.U. after   17 cycles

 Excitation energies and oscillator strengths:

 Excited State   1:      Singlet-A      1.6851 eV  735.78 nm  f=0.3903  <S**2>=0.000
     245 -> 248        0.17175
     246 -> 247        0.68707
     245 <- 248        0.10511
 This state for optimization and/or second-order correction.
 Total Energy, E(TD-HF/TD-DFT) =  -3007.09407284
 Copying the excited state density for this state as the 1-particle RhoCI density.

 Excited State   2:      Singlet-A      2.2361 eV  554.46 nm  f=0.1155  <S**2>=0.000
     245 -> 247        0.63844
     246 -> 248       -0.28492

 Excited State   3:      Singlet-A      3.2498 eV  381.51 nm  f=0.0005  <S**2>=0.000
     242 -> 247       -0.14086
     243 -> 247        0.67080

 Excited State   4:      Singlet-A      3.4014 eV  364.51 nm  f=0.0010  <S**2>=0.000
     241 -> 247        0.51204
     241 -> 249       -0.29465
     241 -> 250       -0.24427
     242 -> 247        0.26204

 Excited State   5:      Singlet-A      3.4186 eV  362.67 nm  f=0.0208  <S**2>=0.000
     241 -> 247       -0.24520
     242 -> 247        0.58330
     243 -> 247        0.10547
     246 -> 248        0.24670

 The electronic state is 1-A.
 Alpha  occ. eigenvalues --  -46.89366 -19.25515 -19.25059 -19.21186 -19.19854
 Alpha  occ. eigenvalues --  -19.18867 -19.17943 -14.42786 -14.41783 -14.40617
 Alpha  occ. eigenvalues --  -14.38993 -10.40485 -10.39642 -10.35620 -10.34454
 Alpha  occ. eigenvalues --  -10.32653 -10.32402 -10.32125 -10.31606 -10.31115
 Alpha  occ. eigenvalues --  -10.30846 -10.30803 -10.30363 -10.29311 -10.29252
 Alpha  occ. eigenvalues --  -10.28939 -10.28785 -10.28438 -10.28349 -10.28264
 Alpha  occ. eigenvalues --  -10.27884 -10.27791 -10.27619 -10.27585 -10.27511
 Alpha  occ. eigenvalues --  -10.27507 -10.27317 -10.27268 -10.26851 -10.26811
 Alpha  occ. eigenvalues --  -10.26768 -10.26689 -10.26683 -10.26342 -10.26224
 Alpha  occ. eigenvalues --  -10.26012 -10.25828 -10.25755 -10.25700 -10.25561
 Alpha  occ. eigenvalues --  -10.25446 -10.25315 -10.25278 -10.25105 -10.24998
 Alpha  occ. eigenvalues --  -10.24986 -10.24872 -10.24779 -10.24698 -10.24632
 Alpha  occ. eigenvalues --  -10.24571 -10.24534 -10.24387 -10.24345 -10.24119
 Alpha  occ. eigenvalues --  -10.24007  -3.17769  -1.92691  -1.92190  -1.92090
 Alpha  occ. eigenvalues --   -1.16134  -1.16039  -1.08778  -1.08347  -1.08048
 Alpha  occ. eigenvalues --   -1.07060  -1.05367  -1.04577  -1.03031  -1.02221
 Alpha  occ. eigenvalues --   -0.92710  -0.90873  -0.90090  -0.89042  -0.88840
 Alpha  occ. eigenvalues --   -0.88568  -0.88245  -0.88013  -0.87278  -0.86807
 Alpha  occ. eigenvalues --   -0.86386  -0.85994  -0.84517  -0.83942  -0.83749
 Alpha  occ. eigenvalues --   -0.82546  -0.82543  -0.81710  -0.81071  -0.80544
 Alpha  occ. eigenvalues --   -0.79762  -0.78098  -0.77580  -0.77454  -0.76360
 Alpha  occ. eigenvalues --   -0.75519  -0.75354  -0.74798  -0.74604  -0.74075
 Alpha  occ. eigenvalues --   -0.73872  -0.72457  -0.72299  -0.71147  -0.68957
 Alpha  occ. eigenvalues --   -0.68890  -0.68102  -0.67683  -0.66425  -0.66309
 Alpha  occ. eigenvalues --   -0.65886  -0.65505  -0.65274  -0.64542  -0.64048
 Alpha  occ. eigenvalues --   -0.63447  -0.63051  -0.62975  -0.62435  -0.60059
 Alpha  occ. eigenvalues --   -0.59914  -0.59355  -0.59150  -0.58857  -0.58798
 Alpha  occ. eigenvalues --   -0.58235  -0.57475  -0.56596  -0.56090  -0.55732
 Alpha  occ. eigenvalues --   -0.55315  -0.55263  -0.54736  -0.54391  -0.53973
 Alpha  occ. eigenvalues --   -0.53471  -0.53328  -0.53124  -0.52739  -0.52596
 Alpha  occ. eigenvalues --   -0.52545  -0.52288  -0.51964  -0.51882  -0.51707
 Alpha  occ. eigenvalues --   -0.51404  -0.51377  -0.51154  -0.50855  -0.50789
 Alpha  occ. eigenvalues --   -0.50655  -0.50235  -0.50072  -0.50011  -0.49742
 Alpha  occ. eigenvalues --   -0.49599  -0.49207  -0.49163  -0.48950  -0.48653
 Alpha  occ. eigenvalues --   -0.48549  -0.48433  -0.48112  -0.48019  -0.47684
 Alpha  occ. eigenvalues --   -0.47516  -0.47489  -0.47233  -0.47109  -0.46723
 Alpha  occ. eigenvalues --   -0.46413  -0.46339  -0.46294  -0.45964  -0.45828
 Alpha  occ. eigenvalues --   -0.45599  -0.45322  -0.45218  -0.44985  -0.44814
 Alpha  occ. eigenvalues --   -0.44565  -0.44489  -0.44381  -0.44106  -0.44074
 Alpha  occ. eigenvalues --   -0.43901  -0.43804  -0.43716  -0.43532  -0.42939
 Alpha  occ. eigenvalues --   -0.42872  -0.42814  -0.42407  -0.42333  -0.42072
 Alpha  occ. eigenvalues --   -0.41992  -0.41569  -0.41538  -0.41317  -0.41025
 Alpha  occ. eigenvalues --   -0.40995  -0.40981  -0.40705  -0.40171  -0.40056
 Alpha  occ. eigenvalues --   -0.39800  -0.39747  -0.38928  -0.38834  -0.38640
 Alpha  occ. eigenvalues --   -0.38554  -0.38168  -0.38062  -0.37976  -0.37557
 Alpha  occ. eigenvalues --   -0.37114  -0.36865  -0.36820  -0.36414  -0.36136
 Alpha  occ. eigenvalues --   -0.35703  -0.35364  -0.35096  -0.34958  -0.34737
 Alpha  occ. eigenvalues --   -0.34219  -0.34038  -0.33334  -0.31347  -0.31243
 Alpha  occ. eigenvalues --   -0.30300  -0.30223  -0.29188  -0.28983  -0.24411
 Alpha  occ. eigenvalues --   -0.21320
 Alpha virt. eigenvalues --   -0.09151  -0.01975   0.00187   0.02335   0.02468
 Alpha virt. eigenvalues --    0.04424   0.04931   0.05136   0.06324   0.06643
 Alpha virt. eigenvalues --    0.06948   0.08106   0.08247   0.08385   0.08999

 Mulliken charges:
               1
     1  Mg   0.820996
     2  C   -0.068018
     3  C   -0.095409
     4  C   -0.053776
     5  C   -0.080037
     6  N   -0.275302
     7  C   -0.059338
     8  C    0.020835
     9  C   -0.086846
    10  C    0.084918
    11  C    0.086370
    12  C    0.064762
    13  C    0.039638
    14  C    0.169741
    15  O   -0.197644
    16  O   -0.349018
    17  N   -0.398297
    18  C    0.126724
    19  C   -0.133013
    20  C   -0.047066
    21  C    0.171220
    22  C    0.112693
    23  C    0.004052
    24  O   -0.223142
    25  C    0.057891
    26  N   -0.255423
    27  C   -0.020620
    28  C   -0.036764
    29  C   -0.045544
    30  C    0.038916
    31  C    0.074994
    32  C    0.022234
    33  C   -0.023549
    34  N   -0.332454
    35  C    0.119797
    36  C   -0.187435
    37  C    0.059536
    38  C    0.106999
    39  C    0.117771
    40  C    0.021074
    41  O   -0.201906
    42  C    0.036971
    43  C    0.212936
    44  O   -0.212358
    45  O   -0.354221
    46  C    0.185348
    47  C    0.281183
    48  C   -0.099109
    49  C   -0.208015
    50  C    0.082528
    51  C    0.062058
    52  C    0.044528
    53  C    0.057716
    54  C   -0.113669
    55  C    0.057761
    56  C    0.021365
    57  C    0.020780
    58  C    0.053922
    59  C   -0.111249
    60  C    0.048868
    61  C    0.028570
    62  C    0.047506
    63  C    0.031940
    64  C   -0.181872
    65  C    0.057515
    66  C    0.026226
    67  H   -0.030816
    68  H   -0.056587
    69  H   -0.010678
    70  H    0.008634
    71  H    0.005810
    72  H    0.016337
    73  H    0.025999
    74  H    0.028734
    75  H    0.032091
    76  H    0.003821
    77  H    0.028286
    78  H    0.048578
    79  H    0.040860
    80  H    0.033358
    81  H    0.010580
    82  H    0.047149
    83  H    0.039571
    84  H    0.031425
    85  H    0.013454
    86  H    0.012613
    87  H    0.031871
    88  H    0.022231
    89  H    0.013163
    90  H    0.022686
    91  H    0.011161
    92  H    0.004057
    93  H    0.018618
    94  H    0.016363
    95  H    0.030657
    96  H   -0.005270
    97  H    0.042902
    98  H    0.071158
    99  H    0.030684
   100  H    0.041765
   101  H    0.056081
   102  H    0.033499
   103  H    0.039725
   104  H   -0.011001
   105  H    0.019103
   106  H    0.021682
   107  H   -0.003189
   108  H   -0.008828
   109  H   -0.003366
   110  H   -0.005564
   111  H    0.002150
   112  H   -0.021903
   113  H    0.000264
   114  H   -0.006020
   115  H    0.007100
   116  H   -0.001695
   117  H    0.006496
   118  H   -0.018458
   119  H   -0.019023
   120  H   -0.015045
   121  H   -0.000018
   122  H   -0.019948
   123  H   -0.010312
   124  H   -0.004920
   125  H    0.012902
   126  H    0.007560
   127  H    0.001795
   128  H   -0.012955
   129  H   -0.011475
   130  H    0.000587
   131  H    0.015519
   132  H   -0.010660
   133  H   -0.004676
   134  H    0.000061
   135  H    0.000534
   136  H    0.012020
   137  H    0.006273
   138  H    0.010857
   139  H    0.013275
   140  H    0.012517
 Sum of Mulliken charges =  -0.00000

 Dipole moment (field-independent basis, Debye):
    X=             -0.5996    Y=              2.0751    Z=             -1.9723  Tot=              2.9250
 Quadrupole moment (field-independent basis, Debye-Ang):
   XX=           -402.4396   YY=           -402.8585   ZZ=           -419.8898
   XY=             -5.7525   XZ=            -15.0014   YZ=             59.9940

 Normal termination of Gaussian 16 at Thu Apr 28 17:37:56 2022.
