 Gaussian 16, Revision A.03,
 Gaussian 16:  ES64L-G16RevA.03 25-Dec-2016

 ---------------------------------
 #p PBE1PBE/Def2SVP td=(nstates=5)
 ---------------------------------

 -----------------------------------------------------
 step_1651_chromophore_8 TDDFT with PBE1PBE functional
 -----------------------------------------------------
 Symbolic Z-matrix:
 Charge =  0 Multiplicity = 1

                         Standard orientation:
 ---------------------------------------------------------------------
 Center     Atomic      Atomic             Coordinates (Angstroms)
 Number     Number       Type             X           Y           Z
 ---------------------------------------------------------------------
      1         12           0        4.466340    1.122136    0.378577
      2          6           0        4.427852   -2.440506    0.863373
      3          6           0        5.245131    0.560076   -2.896903
      4          6           0        4.009782    4.403727   -0.137596
      5          6           0        3.112189    1.443257    3.628574
      6          7           0        4.824314   -0.675144   -0.828250
      7          6           0        4.702830   -2.033708   -0.481469
      8          6           0        4.946605   -2.928565   -1.703133
      9          6           0        5.290245   -1.906866   -2.750430
     10          6           0        5.139276   -0.556897   -2.110531
     11          6           0        6.635166   -2.273342   -3.447610
     12          6           0        3.612582   -3.783691   -2.075690
     13          6           0        2.363857   -3.121891   -2.463809
     14          6           0        1.061347   -3.526525   -1.841663
     15          8           0        0.858995   -3.849876   -0.687406
     16          8           0        0.017788   -3.505577   -2.809800
     17          7           0        4.648445    2.342756   -1.289050
     18          6           0        4.957921    1.923972   -2.601133
     19          6           0        4.869333    3.054646   -3.509819
     20          6           0        4.538756    4.245159   -2.740925
     21          6           0        4.425352    3.685687   -1.320629
     22          6           0        4.994930    2.928254   -5.007594
     23          6           0        4.196592    5.624453   -3.311730
     24          8           0        4.284572    5.863955   -4.532861
     25          6           0        3.749491    6.724358   -2.412704
     26          7           0        3.737043    2.722479    1.633170
     27          6           0        3.735874    3.976931    1.163497
     28          6           0        3.258562    4.902459    2.247688
     29          6           0        3.028727    3.952968    3.484405
     30          6           0        3.365343    2.577996    2.886877
     31          6           0        4.252217    6.039565    2.678757
     32          6           0        1.538075    4.008844    4.030931
     33          6           0        1.403431    4.784026    5.392575
     34          7           0        3.825464   -0.174080    1.971908
     35          6           0        3.340878    0.101635    3.214310
     36          6           0        3.146703   -1.169508    3.888894
     37          6           0        3.599748   -2.204841    3.050785
     38          6           0        3.976576   -1.545310    1.912235
     39          6           0        2.647748   -1.274300    5.264000
     40          6           0        3.849127   -3.610159    2.867883
     41          8           0        3.633631   -4.570507    3.646405
     42          6           0        4.349356   -3.870978    1.419485
     43          6           0        5.600316   -4.611428    1.394249
     44          8           0        6.525744   -4.439144    2.184152
     45          8           0        5.550229   -5.511646    0.360718
     46          6           0        6.691315   -6.384071    0.030892
     47          6           0       -1.305197   -3.725873   -2.272779
     48          6           0       -1.811945   -2.480809   -1.476923
     49          6           0       -3.074625   -2.285440   -1.003550
     50          6           0       -4.131934   -3.408914   -1.075839
     51          6           0       -3.672409   -0.937117   -0.446290
     52          6           0       -4.296018    0.042613   -1.500769
     53          6           0       -4.767092    1.394708   -0.946178
     54          6           0       -6.297589    1.541724   -1.050734
     55          6           0       -6.636282    2.958382   -1.404745
     56          6           0       -6.984175    1.085526    0.286822
     57          6           0       -7.860378   -0.215544    0.229991
     58          6           0       -8.746344   -0.286802    1.432022
     59          6           0      -10.192422    0.206282    1.162250
     60          6           0      -10.758946    0.891801    2.437393
     61          6           0      -11.126634   -0.971535    0.540358
     62          6           0      -12.127652   -0.468382   -0.518368
     63          6           0      -13.595123   -1.013326   -0.302924
     64          6           0      -14.678168    0.096290   -0.431966
     65          6           0      -14.999903    0.445914   -1.888364
     66          6           0      -16.070444   -0.383358    0.219620
     67          1           0        5.359166    0.377212   -3.966898
     68          1           0        3.783024    5.470014   -0.195709
     69          1           0        2.981289    1.599531    4.701809
     70          1           0        5.802014   -3.563753   -1.472782
     71          1           0        4.477559   -1.859620   -3.474899
     72          1           0        6.326028   -1.968201   -4.446808
     73          1           0        6.800187   -3.341660   -3.304660
     74          1           0        7.507619   -1.676065   -3.183144
     75          1           0        3.486179   -4.507090   -1.269920
     76          1           0        3.888992   -4.371873   -2.950869
     77          1           0        2.377887   -3.253538   -3.544850
     78          1           0        2.308058   -2.033517   -2.444838
     79          1           0        5.344384    3.832159   -5.505924
     80          1           0        4.043920    2.656159   -5.464472
     81          1           0        5.707343    2.131994   -5.225508
     82          1           0        4.430649    6.814841   -1.566266
     83          1           0        2.772684    6.432812   -2.024844
     84          1           0        3.664500    7.660100   -2.965268
     85          1           0        2.278540    5.207213    1.880198
     86          1           0        3.716573    4.251144    4.276027
     87          1           0        5.270161    5.775978    2.392319
     88          1           0        4.121099    6.241878    3.742280
     89          1           0        3.927978    6.952169    2.179510
     90          1           0        1.139798    3.033679    4.309615
     91          1           0        0.906404    4.572980    3.343937
     92          1           0        2.373718    4.943069    5.863038
     93          1           0        0.819824    4.211944    6.112987
     94          1           0        0.973536    5.767835    5.203484
     95          1           0        1.648346   -1.690762    5.134447
     96          1           0        2.479647   -0.348485    5.814514
     97          1           0        3.293378   -1.915502    5.863358
     98          1           0        3.494115   -4.386767    0.984292
     99          1           0        6.796690   -6.882142    0.994979
    100          1           0        7.621636   -5.818980   -0.038397
    101          1           0        6.485230   -7.209162   -0.651346
    102          1           0       -1.349756   -4.533795   -1.542398
    103          1           0       -2.056181   -4.089427   -2.973708
    104          1           0       -1.183825   -1.622490   -1.239809
    105          1           0       -5.108404   -3.058161   -1.409043
    106          1           0       -4.321983   -3.683992   -0.039190
    107          1           0       -3.607036   -4.176381   -1.645750
    108          1           0       -2.804355   -0.467249    0.016400
    109          1           0       -4.335918   -1.084899    0.405912
    110          1           0       -5.167506   -0.465597   -1.913879
    111          1           0       -3.629889    0.353117   -2.305088
    112          1           0       -4.362454    2.123205   -1.649067
    113          1           0       -4.328061    1.666323    0.014130
    114          1           0       -6.710613    0.923886   -1.847900
    115          1           0       -7.705426    3.135143   -1.287306
    116          1           0       -6.424373    3.136317   -2.458813
    117          1           0       -5.985348    3.656255   -0.879719
    118          1           0       -7.491174    1.898300    0.805353
    119          1           0       -6.246976    0.917449    1.072080
    120          1           0       -7.093274   -0.990351    0.230038
    121          1           0       -8.397111   -0.350059   -0.710001
    122          1           0       -8.332739    0.359981    2.205868
    123          1           0       -8.619703   -1.271601    1.881763
    124          1           0      -10.097336    0.959131    0.379305
    125          1           0      -10.259696    0.565825    3.349941
    126          1           0      -11.840538    0.848138    2.564673
    127          1           0      -10.512067    1.950566    2.359267
    128          1           0      -11.647589   -1.496401    1.340793
    129          1           0      -10.492927   -1.776959    0.166784
    130          1           0      -11.722210   -1.006897   -1.374440
    131          1           0      -12.114636    0.615805   -0.619734
    132          1           0      -13.677255   -1.472438    0.681694
    133          1           0      -13.783302   -1.879851   -0.936618
    134          1           0      -14.412036    0.989812    0.132117
    135          1           0      -14.391023    1.325522   -2.098811
    136          1           0      -16.046890    0.687866   -2.068233
    137          1           0      -14.616902   -0.316453   -2.567144
    138          1           0      -15.980005   -0.214495    1.293110
    139          1           0      -16.079106   -1.444970   -0.023703
    140          1           0      -16.862858    0.219462   -0.225714
 ---------------------------------------------------------------------

 SCF Done:  E(RPBE1PBE) =  -3005.34485446     A.U. after   15 cycles

 Excitation energies and oscillator strengths:

 Excited State   1:      Singlet-A      1.8408 eV  673.54 nm  f=0.3749  <S**2>=0.000
     245 -> 248        0.16557
     246 -> 247        0.69474
     246 <- 247       -0.11633
 This state for optimization and/or second-order correction.
 Total Energy, E(TD-HF/TD-DFT) =  -3005.27720669
 Copying the excited state density for this state as the 1-particle RhoCI density.

 Excited State   2:      Singlet-A      2.2402 eV  553.46 nm  f=0.1096  <S**2>=0.000
     245 -> 247        0.64964
     246 -> 248       -0.25593

 Excited State   3:      Singlet-A      2.8475 eV  435.42 nm  f=0.0004  <S**2>=0.000
     242 -> 247        0.65733
     242 -> 249        0.16357
     242 -> 250       -0.10584
     243 -> 247        0.16217

 Excited State   4:      Singlet-A      2.9228 eV  424.19 nm  f=0.0037  <S**2>=0.000
     241 -> 247       -0.10616
     242 -> 247       -0.16139
     243 -> 247        0.66769

 Excited State   5:      Singlet-A      3.0140 eV  411.35 nm  f=0.0014  <S**2>=0.000
     240 -> 247        0.49008
     240 -> 248       -0.10912
     240 -> 249       -0.12964
     241 -> 247       -0.45497

 The electronic state is 1-A.
 Alpha  occ. eigenvalues --  -46.92739 -19.26200 -19.25776 -19.21428 -19.20109
 Alpha  occ. eigenvalues --  -19.18983 -19.18332 -14.42233 -14.41296 -14.40180
 Alpha  occ. eigenvalues --  -14.38753 -10.37512 -10.36658 -10.32647 -10.31747
 Alpha  occ. eigenvalues --  -10.29887 -10.29848 -10.29643 -10.29471 -10.28694
 Alpha  occ. eigenvalues --  -10.28399 -10.28342 -10.28146 -10.27194 -10.26778
 Alpha  occ. eigenvalues --  -10.26722 -10.26624 -10.26281 -10.25967 -10.25751
 Alpha  occ. eigenvalues --  -10.25602 -10.25563 -10.25472 -10.25413 -10.25287
 Alpha  occ. eigenvalues --  -10.25256 -10.24966 -10.24765 -10.24440 -10.24413
 Alpha  occ. eigenvalues --  -10.24395 -10.24322 -10.24272 -10.23940 -10.23563
 Alpha  occ. eigenvalues --  -10.23553 -10.23379 -10.23325 -10.23138 -10.23040
 Alpha  occ. eigenvalues --  -10.23000 -10.22845 -10.22807 -10.22662 -10.22554
 Alpha  occ. eigenvalues --  -10.22536 -10.22533 -10.22438 -10.22297 -10.22202
 Alpha  occ. eigenvalues --  -10.22146 -10.21939 -10.21914 -10.21766 -10.21491
 Alpha  occ. eigenvalues --  -10.21382  -3.14727  -1.87589  -1.87065  -1.86971
 Alpha  occ. eigenvalues --   -1.10918  -1.10828  -1.03384  -1.03226  -1.02871
 Alpha  occ. eigenvalues --   -1.01917  -1.00004  -0.99140  -0.97836  -0.96756
 Alpha  occ. eigenvalues --   -0.87146  -0.85108  -0.84164  -0.83342  -0.82927
 Alpha  occ. eigenvalues --   -0.82849  -0.82524  -0.82169  -0.81407  -0.81040
 Alpha  occ. eigenvalues --   -0.80768  -0.80223  -0.78835  -0.78088  -0.77922
 Alpha  occ. eigenvalues --   -0.76785  -0.76681  -0.76001  -0.75376  -0.74702
 Alpha  occ. eigenvalues --   -0.74018  -0.72424  -0.71938  -0.71678  -0.70666
 Alpha  occ. eigenvalues --   -0.69840  -0.69495  -0.68895  -0.68706  -0.68374
 Alpha  occ. eigenvalues --   -0.68053  -0.66939  -0.66730  -0.65472  -0.63450
 Alpha  occ. eigenvalues --   -0.63310  -0.62348  -0.62078  -0.60783  -0.60645
 Alpha  occ. eigenvalues --   -0.60297  -0.59840  -0.59664  -0.59091  -0.58168
 Alpha  occ. eigenvalues --   -0.57660  -0.57586  -0.57536  -0.56622  -0.54549
 Alpha  occ. eigenvalues --   -0.54407  -0.53920  -0.53644  -0.53325  -0.53247
 Alpha  occ. eigenvalues --   -0.52784  -0.52162  -0.51111  -0.50577  -0.50279
 Alpha  occ. eigenvalues --   -0.49872  -0.49773  -0.49334  -0.49000  -0.48325
 Alpha  occ. eigenvalues --   -0.48065  -0.47743  -0.47633  -0.47313  -0.47165
 Alpha  occ. eigenvalues --   -0.47056  -0.46811  -0.46430  -0.46300  -0.46125
 Alpha  occ. eigenvalues --   -0.46009  -0.45904  -0.45796  -0.45416  -0.45369
 Alpha  occ. eigenvalues --   -0.45180  -0.44732  -0.44680  -0.44655  -0.44313
 Alpha  occ. eigenvalues --   -0.44069  -0.43793  -0.43712  -0.43531  -0.43281
 Alpha  occ. eigenvalues --   -0.43220  -0.43053  -0.42737  -0.42612  -0.42313
 Alpha  occ. eigenvalues --   -0.42209  -0.42151  -0.41943  -0.41743  -0.41361
 Alpha  occ. eigenvalues --   -0.41156  -0.40948  -0.40921  -0.40657  -0.40571
 Alpha  occ. eigenvalues --   -0.40240  -0.40034  -0.39758  -0.39753  -0.39591
 Alpha  occ. eigenvalues --   -0.39305  -0.39237  -0.39139  -0.38880  -0.38817
 Alpha  occ. eigenvalues --   -0.38653  -0.38595  -0.38403  -0.38376  -0.37831
 Alpha  occ. eigenvalues --   -0.37732  -0.37556  -0.37246  -0.37123  -0.36925
 Alpha  occ. eigenvalues --   -0.36703  -0.36443  -0.36262  -0.36076  -0.35864
 Alpha  occ. eigenvalues --   -0.35816  -0.35752  -0.35635  -0.35040  -0.34906
 Alpha  occ. eigenvalues --   -0.34755  -0.34548  -0.33656  -0.33635  -0.33582
 Alpha  occ. eigenvalues --   -0.33561  -0.32967  -0.32951  -0.32846  -0.32450
 Alpha  occ. eigenvalues --   -0.32181  -0.31881  -0.31619  -0.31409  -0.30984
 Alpha  occ. eigenvalues --   -0.30618  -0.30192  -0.30023  -0.29867  -0.29651
 Alpha  occ. eigenvalues --   -0.29439  -0.28997  -0.28861  -0.26976  -0.25907
 Alpha  occ. eigenvalues --   -0.25672  -0.25200  -0.24990  -0.24240  -0.21322
 Alpha  occ. eigenvalues --   -0.18961
 Alpha virt. eigenvalues --   -0.11549  -0.05498  -0.03999  -0.02101  -0.00466
 Alpha virt. eigenvalues --   -0.00073   0.00305   0.01506   0.01890   0.02603
 Alpha virt. eigenvalues --    0.02913   0.04156   0.04839   0.05050   0.05548

 Mulliken charges:
               1
     1  Mg   0.965121
     2  C   -0.068859
     3  C   -0.081728
     4  C   -0.052608
     5  C   -0.071952
     6  N   -0.386168
     7  C    0.021194
     8  C   -0.063029
     9  C   -0.164627
    10  C    0.124665
    11  C    0.028347
    12  C    0.011428
    13  C   -0.036062
    14  C    0.237264
    15  O   -0.229872
    16  O   -0.380328
    17  N   -0.508831
    18  C    0.148307
    19  C   -0.160585
    20  C   -0.084436
    21  C    0.201066
    22  C    0.056673
    23  C    0.050068
    24  O   -0.259380
    25  C   -0.018685
    26  N   -0.370319
    27  C    0.026527
    28  C   -0.119677
    29  C   -0.123099
    30  C    0.087466
    31  C    0.013603
    32  C   -0.039184
    33  C   -0.091391
    34  N   -0.455084
    35  C    0.154088
    36  C   -0.223714
    37  C    0.009148
    38  C    0.153533
    39  C    0.068485
    40  C    0.133464
    41  O   -0.245482
    42  C   -0.087411
    43  C    0.308022
    44  O   -0.249195
    45  O   -0.387958
    46  C    0.129924
    47  C    0.234184
    48  C   -0.107494
    49  C   -0.246733
    50  C    0.015998
    51  C   -0.003599
    52  C   -0.014991
    53  C    0.000862
    54  C   -0.204245
    55  C   -0.006296
    56  C   -0.020044
    57  C   -0.048589
    58  C   -0.001459
    59  C   -0.197045
    60  C   -0.012837
    61  C   -0.017064
    62  C   -0.019696
    63  C   -0.019914
    64  C   -0.274456
    65  C   -0.000855
    66  C   -0.038924
    67  H   -0.000363
    68  H   -0.022277
    69  H    0.021023
    70  H    0.049611
    71  H    0.045274
    72  H    0.043246
    73  H    0.052583
    74  H    0.056274
    75  H    0.065784
    76  H    0.038432
    77  H    0.059188
    78  H    0.081335
    79  H    0.067499
    80  H    0.060700
    81  H    0.036961
    82  H    0.072377
    83  H    0.066776
    84  H    0.059005
    85  H    0.050224
    86  H    0.048688
    87  H    0.059415
    88  H    0.049919
    89  H    0.040994
    90  H    0.054821
    91  H    0.043725
    92  H    0.030987
    93  H    0.045776
    94  H    0.044270
    95  H    0.060328
    96  H    0.022426
    97  H    0.070210
    98  H    0.107593
    99  H    0.052696
   100  H    0.063261
   101  H    0.077115
   102  H    0.061888
   103  H    0.066034
   104  H    0.019541
   105  H    0.046559
   106  H    0.050913
   107  H    0.025389
   108  H    0.024448
   109  H    0.028920
   110  H    0.027719
   111  H    0.034142
   112  H    0.013215
   113  H    0.030839
   114  H    0.031157
   115  H    0.035569
   116  H    0.027680
   117  H    0.034672
   118  H    0.013083
   119  H    0.013170
   120  H    0.022033
   121  H    0.031311
   122  H    0.013182
   123  H    0.021746
   124  H    0.033505
   125  H    0.039746
   126  H    0.035436
   127  H    0.030011
   128  H    0.018656
   129  H    0.020128
   130  H    0.034730
   131  H    0.045926
   132  H    0.021763
   133  H    0.026394
   134  H    0.037501
   135  H    0.028684
   136  H    0.038262
   137  H    0.033820
   138  H    0.039300
   139  H    0.041580
   140  H    0.039945
 Sum of Mulliken charges =  -0.00000

 Dipole moment (field-independent basis, Debye):
    X=             -0.7170    Y=              1.9142    Z=             -1.6497  Tot=              2.6267
 Quadrupole moment (field-independent basis, Debye-Ang):
   XX=           -400.8666   YY=           -399.8495   ZZ=           -415.4622
   XY=             -6.9626   XZ=            -14.3888   YZ=             61.3719

 Normal termination of Gaussian 16 at Thu Apr 28 17:57:48 2022.
