 Gaussian 16, Revision A.03,
 Gaussian 16:  ES64L-G16RevA.03 25-Dec-2016

 --------------------------------
 #p wB97XD/Def2SVP td=(nstates=5)
 --------------------------------

 ----------------------------------------------------
 step_1651_chromophore_8 TDDFT with wB97XD functional
 ----------------------------------------------------
 Symbolic Z-matrix:
 Charge =  0 Multiplicity = 1

                         Standard orientation:
 ---------------------------------------------------------------------
 Center     Atomic      Atomic             Coordinates (Angstroms)
 Number     Number       Type             X           Y           Z
 ---------------------------------------------------------------------
      1         12           0        4.466340    1.122136    0.378577
      2          6           0        4.427852   -2.440506    0.863373
      3          6           0        5.245131    0.560076   -2.896903
      4          6           0        4.009782    4.403727   -0.137596
      5          6           0        3.112189    1.443257    3.628574
      6          7           0        4.824314   -0.675144   -0.828250
      7          6           0        4.702830   -2.033708   -0.481469
      8          6           0        4.946605   -2.928565   -1.703133
      9          6           0        5.290245   -1.906866   -2.750430
     10          6           0        5.139276   -0.556897   -2.110531
     11          6           0        6.635166   -2.273342   -3.447610
     12          6           0        3.612582   -3.783691   -2.075690
     13          6           0        2.363857   -3.121891   -2.463809
     14          6           0        1.061347   -3.526525   -1.841663
     15          8           0        0.858995   -3.849876   -0.687406
     16          8           0        0.017788   -3.505577   -2.809800
     17          7           0        4.648445    2.342756   -1.289050
     18          6           0        4.957921    1.923972   -2.601133
     19          6           0        4.869333    3.054646   -3.509819
     20          6           0        4.538756    4.245159   -2.740925
     21          6           0        4.425352    3.685687   -1.320629
     22          6           0        4.994930    2.928254   -5.007594
     23          6           0        4.196592    5.624453   -3.311730
     24          8           0        4.284572    5.863955   -4.532861
     25          6           0        3.749491    6.724358   -2.412704
     26          7           0        3.737043    2.722479    1.633170
     27          6           0        3.735874    3.976931    1.163497
     28          6           0        3.258562    4.902459    2.247688
     29          6           0        3.028727    3.952968    3.484405
     30          6           0        3.365343    2.577996    2.886877
     31          6           0        4.252217    6.039565    2.678757
     32          6           0        1.538075    4.008844    4.030931
     33          6           0        1.403431    4.784026    5.392575
     34          7           0        3.825464   -0.174080    1.971908
     35          6           0        3.340878    0.101635    3.214310
     36          6           0        3.146703   -1.169508    3.888894
     37          6           0        3.599748   -2.204841    3.050785
     38          6           0        3.976576   -1.545310    1.912235
     39          6           0        2.647748   -1.274300    5.264000
     40          6           0        3.849127   -3.610159    2.867883
     41          8           0        3.633631   -4.570507    3.646405
     42          6           0        4.349356   -3.870978    1.419485
     43          6           0        5.600316   -4.611428    1.394249
     44          8           0        6.525744   -4.439144    2.184152
     45          8           0        5.550229   -5.511646    0.360718
     46          6           0        6.691315   -6.384071    0.030892
     47          6           0       -1.305197   -3.725873   -2.272779
     48          6           0       -1.811945   -2.480809   -1.476923
     49          6           0       -3.074625   -2.285440   -1.003550
     50          6           0       -4.131934   -3.408914   -1.075839
     51          6           0       -3.672409   -0.937117   -0.446290
     52          6           0       -4.296018    0.042613   -1.500769
     53          6           0       -4.767092    1.394708   -0.946178
     54          6           0       -6.297589    1.541724   -1.050734
     55          6           0       -6.636282    2.958382   -1.404745
     56          6           0       -6.984175    1.085526    0.286822
     57          6           0       -7.860378   -0.215544    0.229991
     58          6           0       -8.746344   -0.286802    1.432022
     59          6           0      -10.192422    0.206282    1.162250
     60          6           0      -10.758946    0.891801    2.437393
     61          6           0      -11.126634   -0.971535    0.540358
     62          6           0      -12.127652   -0.468382   -0.518368
     63          6           0      -13.595123   -1.013326   -0.302924
     64          6           0      -14.678168    0.096290   -0.431966
     65          6           0      -14.999903    0.445914   -1.888364
     66          6           0      -16.070444   -0.383358    0.219620
     67          1           0        5.359166    0.377212   -3.966898
     68          1           0        3.783024    5.470014   -0.195709
     69          1           0        2.981289    1.599531    4.701809
     70          1           0        5.802014   -3.563753   -1.472782
     71          1           0        4.477559   -1.859620   -3.474899
     72          1           0        6.326028   -1.968201   -4.446808
     73          1           0        6.800187   -3.341660   -3.304660
     74          1           0        7.507619   -1.676065   -3.183144
     75          1           0        3.486179   -4.507090   -1.269920
     76          1           0        3.888992   -4.371873   -2.950869
     77          1           0        2.377887   -3.253538   -3.544850
     78          1           0        2.308058   -2.033517   -2.444838
     79          1           0        5.344384    3.832159   -5.505924
     80          1           0        4.043920    2.656159   -5.464472
     81          1           0        5.707343    2.131994   -5.225508
     82          1           0        4.430649    6.814841   -1.566266
     83          1           0        2.772684    6.432812   -2.024844
     84          1           0        3.664500    7.660100   -2.965268
     85          1           0        2.278540    5.207213    1.880198
     86          1           0        3.716573    4.251144    4.276027
     87          1           0        5.270161    5.775978    2.392319
     88          1           0        4.121099    6.241878    3.742280
     89          1           0        3.927978    6.952169    2.179510
     90          1           0        1.139798    3.033679    4.309615
     91          1           0        0.906404    4.572980    3.343937
     92          1           0        2.373718    4.943069    5.863038
     93          1           0        0.819824    4.211944    6.112987
     94          1           0        0.973536    5.767835    5.203484
     95          1           0        1.648346   -1.690762    5.134447
     96          1           0        2.479647   -0.348485    5.814514
     97          1           0        3.293378   -1.915502    5.863358
     98          1           0        3.494115   -4.386767    0.984292
     99          1           0        6.796690   -6.882142    0.994979
    100          1           0        7.621636   -5.818980   -0.038397
    101          1           0        6.485230   -7.209162   -0.651346
    102          1           0       -1.349756   -4.533795   -1.542398
    103          1           0       -2.056181   -4.089427   -2.973708
    104          1           0       -1.183825   -1.622490   -1.239809
    105          1           0       -5.108404   -3.058161   -1.409043
    106          1           0       -4.321983   -3.683992   -0.039190
    107          1           0       -3.607036   -4.176381   -1.645750
    108          1           0       -2.804355   -0.467249    0.016400
    109          1           0       -4.335918   -1.084899    0.405912
    110          1           0       -5.167506   -0.465597   -1.913879
    111          1           0       -3.629889    0.353117   -2.305088
    112          1           0       -4.362454    2.123205   -1.649067
    113          1           0       -4.328061    1.666323    0.014130
    114          1           0       -6.710613    0.923886   -1.847900
    115          1           0       -7.705426    3.135143   -1.287306
    116          1           0       -6.424373    3.136317   -2.458813
    117          1           0       -5.985348    3.656255   -0.879719
    118          1           0       -7.491174    1.898300    0.805353
    119          1           0       -6.246976    0.917449    1.072080
    120          1           0       -7.093274   -0.990351    0.230038
    121          1           0       -8.397111   -0.350059   -0.710001
    122          1           0       -8.332739    0.359981    2.205868
    123          1           0       -8.619703   -1.271601    1.881763
    124          1           0      -10.097336    0.959131    0.379305
    125          1           0      -10.259696    0.565825    3.349941
    126          1           0      -11.840538    0.848138    2.564673
    127          1           0      -10.512067    1.950566    2.359267
    128          1           0      -11.647589   -1.496401    1.340793
    129          1           0      -10.492927   -1.776959    0.166784
    130          1           0      -11.722210   -1.006897   -1.374440
    131          1           0      -12.114636    0.615805   -0.619734
    132          1           0      -13.677255   -1.472438    0.681694
    133          1           0      -13.783302   -1.879851   -0.936618
    134          1           0      -14.412036    0.989812    0.132117
    135          1           0      -14.391023    1.325522   -2.098811
    136          1           0      -16.046890    0.687866   -2.068233
    137          1           0      -14.616902   -0.316453   -2.567144
    138          1           0      -15.980005   -0.214495    1.293110
    139          1           0      -16.079106   -1.444970   -0.023703
    140          1           0      -16.862858    0.219462   -0.225714
 ---------------------------------------------------------------------

 SCF Done:  E(RwB97XD) =  -3007.85368396     A.U. after   20 cycles

 Excitation energies and oscillator strengths:

 Excited State   1:      Singlet-A      1.6266 eV  762.25 nm  f=0.3894  <S**2>=0.000
     245 -> 248        0.17726
     246 -> 247        0.68458
     245 <- 248        0.11432
 This state for optimization and/or second-order correction.
 Total Energy, E(TD-HF/TD-DFT) =  -3007.79390928
 Copying the excited state density for this state as the 1-particle RhoCI density.

 Excited State   2:      Singlet-A      2.1803 eV  568.66 nm  f=0.1116  <S**2>=0.000
     245 -> 247        0.63600
     246 -> 248       -0.28792

 Excited State   3:      Singlet-A      3.2883 eV  377.05 nm  f=0.0005  <S**2>=0.000
     241 -> 247       -0.16762
     243 -> 247        0.65718
     246 -> 248        0.10267

 Excited State   4:      Singlet-A      3.4412 eV  360.30 nm  f=0.0285  <S**2>=0.000
     241 -> 247        0.53199
     242 -> 247        0.28836
     242 -> 249       -0.14150
     242 -> 250       -0.11900
     246 -> 248        0.25094

 Excited State   5:      Singlet-A      3.4482 eV  359.56 nm  f=0.0235  <S**2>=0.000
     241 -> 247       -0.29063
     242 -> 247        0.46561
     242 -> 249       -0.29545
     242 -> 250       -0.24195
     246 -> 248       -0.17845

 The electronic state is 1-A.
 Alpha  occ. eigenvalues --  -46.95700 -19.30750 -19.30317 -19.26077 -19.24800
 Alpha  occ. eigenvalues --  -19.23937 -19.23012 -14.47411 -14.46331 -14.45253
 Alpha  occ. eigenvalues --  -14.43581 -10.44286 -10.43482 -10.39627 -10.38481
 Alpha  occ. eigenvalues --  -10.36396 -10.36301 -10.36232 -10.35646 -10.35138
 Alpha  occ. eigenvalues --  -10.34911 -10.34860 -10.34316 -10.33462 -10.33285
 Alpha  occ. eigenvalues --  -10.33098 -10.32762 -10.32524 -10.32521 -10.32172
 Alpha  occ. eigenvalues --  -10.31927 -10.31826 -10.31652 -10.31624 -10.31561
 Alpha  occ. eigenvalues --  -10.31550 -10.31390 -10.31360 -10.30761 -10.30727
 Alpha  occ. eigenvalues --  -10.30708 -10.30702 -10.30632 -10.30233 -10.30213
 Alpha  occ. eigenvalues --  -10.29932 -10.29789 -10.29694 -10.29638 -10.29377
 Alpha  occ. eigenvalues --  -10.29275 -10.29258 -10.29183 -10.28929 -10.28909
 Alpha  occ. eigenvalues --  -10.28897 -10.28792 -10.28699 -10.28669 -10.28546
 Alpha  occ. eigenvalues --  -10.28501 -10.28341 -10.28294 -10.28171 -10.27925
 Alpha  occ. eigenvalues --  -10.27804  -3.21556  -1.95166  -1.94640  -1.94546
 Alpha  occ. eigenvalues --   -1.18278  -1.18216  -1.11024  -1.10549  -1.10239
 Alpha  occ. eigenvalues --   -1.09285  -1.07351  -1.06587  -1.05056  -1.04294
 Alpha  occ. eigenvalues --   -0.94688  -0.92732  -0.91827  -0.90994  -0.90596
 Alpha  occ. eigenvalues --   -0.90414  -0.90133  -0.89828  -0.89063  -0.88696
 Alpha  occ. eigenvalues --   -0.88339  -0.87957  -0.86460  -0.85763  -0.85621
 Alpha  occ. eigenvalues --   -0.84433  -0.84355  -0.83664  -0.83016  -0.82358
 Alpha  occ. eigenvalues --   -0.81643  -0.80019  -0.79543  -0.79403  -0.78276
 Alpha  occ. eigenvalues --   -0.77483  -0.77168  -0.76583  -0.76396  -0.75979
 Alpha  occ. eigenvalues --   -0.75706  -0.74426  -0.74272  -0.73080  -0.70914
 Alpha  occ. eigenvalues --   -0.70860  -0.69965  -0.69687  -0.68324  -0.68186
 Alpha  occ. eigenvalues --   -0.67827  -0.67373  -0.67263  -0.66553  -0.65837
 Alpha  occ. eigenvalues --   -0.65244  -0.65043  -0.64955  -0.64257  -0.61988
 Alpha  occ. eigenvalues --   -0.61923  -0.61361  -0.61081  -0.60770  -0.60724
 Alpha  occ. eigenvalues --   -0.60190  -0.59487  -0.58547  -0.58087  -0.57673
 Alpha  occ. eigenvalues --   -0.57232  -0.57200  -0.56699  -0.56334  -0.55802
 Alpha  occ. eigenvalues --   -0.55366  -0.55181  -0.55035  -0.54626  -0.54525
 Alpha  occ. eigenvalues --   -0.54429  -0.54171  -0.53845  -0.53814  -0.53652
 Alpha  occ. eigenvalues --   -0.53330  -0.53266  -0.53083  -0.52717  -0.52712
 Alpha  occ. eigenvalues --   -0.52528  -0.52095  -0.51956  -0.51920  -0.51660
 Alpha  occ. eigenvalues --   -0.51535  -0.51150  -0.51042  -0.50822  -0.50612
 Alpha  occ. eigenvalues --   -0.50494  -0.50349  -0.50016  -0.49905  -0.49575
 Alpha  occ. eigenvalues --   -0.49434  -0.49413  -0.49160  -0.49043  -0.48617
 Alpha  occ. eigenvalues --   -0.48381  -0.48254  -0.48191  -0.47869  -0.47742
 Alpha  occ. eigenvalues --   -0.47465  -0.47209  -0.47029  -0.46917  -0.46725
 Alpha  occ. eigenvalues --   -0.46418  -0.46412  -0.46261  -0.46017  -0.45982
 Alpha  occ. eigenvalues --   -0.45796  -0.45755  -0.45561  -0.45456  -0.44909
 Alpha  occ. eigenvalues --   -0.44794  -0.44707  -0.44301  -0.44246  -0.44016
 Alpha  occ. eigenvalues --   -0.43845  -0.43627  -0.43486  -0.43158  -0.43006
 Alpha  occ. eigenvalues --   -0.42880  -0.42860  -0.42625  -0.42008  -0.41985
 Alpha  occ. eigenvalues --   -0.41699  -0.41600  -0.40733  -0.40656  -0.40538
 Alpha  occ. eigenvalues --   -0.40455  -0.39992  -0.39892  -0.39889  -0.39492
 Alpha  occ. eigenvalues --   -0.39215  -0.38802  -0.38649  -0.38468  -0.37976
 Alpha  occ. eigenvalues --   -0.37551  -0.37235  -0.36948  -0.36794  -0.36706
 Alpha  occ. eigenvalues --   -0.36192  -0.35856  -0.35567  -0.33558  -0.33217
 Alpha  occ. eigenvalues --   -0.32454  -0.32254  -0.31347  -0.30986  -0.26325
 Alpha  occ. eigenvalues --   -0.23112
 Alpha virt. eigenvalues --   -0.07516  -0.00059   0.02240   0.04409   0.05594
 Alpha virt. eigenvalues --    0.06703   0.07097   0.07967   0.08582   0.09060
 Alpha virt. eigenvalues --    0.09600   0.10960   0.11577   0.11741   0.12313

 Mulliken charges:
               1
     1  Mg   0.956165
     2  C   -0.076730
     3  C   -0.099074
     4  C   -0.067410
     5  C   -0.088705
     6  N   -0.349197
     7  C   -0.015836
     8  C   -0.028492
     9  C   -0.136798
    10  C    0.108004
    11  C    0.038708
    12  C    0.029185
    13  C   -0.022961
    14  C    0.227166
    15  O   -0.226781
    16  O   -0.380579
    17  N   -0.478780
    18  C    0.142240
    19  C   -0.151048
    20  C   -0.084537
    21  C    0.198249
    22  C    0.067473
    23  C    0.049005
    24  O   -0.253625
    25  C   -0.005337
    26  N   -0.332764
    27  C    0.011342
    28  C   -0.092885
    29  C   -0.093599
    30  C    0.068188
    31  C    0.026586
    32  C   -0.023617
    33  C   -0.075494
    34  N   -0.417708
    35  C    0.140852
    36  C   -0.213159
    37  C    0.015596
    38  C    0.138001
    39  C    0.076674
    40  C    0.107664
    41  O   -0.237063
    42  C   -0.040936
    43  C    0.281650
    44  O   -0.242951
    45  O   -0.385185
    46  C    0.143074
    47  C    0.256147
    48  C   -0.121561
    49  C   -0.235205
    50  C    0.033682
    51  C    0.017558
    52  C    0.002250
    53  C    0.012654
    54  C   -0.171213
    55  C    0.007586
    56  C   -0.011147
    57  C   -0.026072
    58  C    0.015122
    59  C   -0.166435
    60  C   -0.000069
    61  C   -0.006058
    62  C   -0.003487
    63  C   -0.006253
    64  C   -0.245437
    65  C    0.009319
    66  C   -0.022589
    67  H   -0.007123
    68  H   -0.034458
    69  H    0.013651
    70  H    0.034881
    71  H    0.030299
    72  H    0.037166
    73  H    0.047434
    74  H    0.051778
    75  H    0.053332
    76  H    0.030258
    77  H    0.054913
    78  H    0.072976
    79  H    0.064949
    80  H    0.057559
    81  H    0.031715
    82  H    0.066796
    83  H    0.061337
    84  H    0.058751
    85  H    0.039075
    86  H    0.035379
    87  H    0.054116
    88  H    0.043056
    89  H    0.035204
    90  H    0.046056
    91  H    0.035330
    92  H    0.023416
    93  H    0.040698
    94  H    0.037995
    95  H    0.053873
    96  H    0.016608
    97  H    0.065441
    98  H    0.101652
    99  H    0.047997
   100  H    0.060452
   101  H    0.075096
   102  H    0.054374
   103  H    0.061279
   104  H    0.015693
   105  H    0.040757
   106  H    0.044496
   107  H    0.017106
   108  H    0.015954
   109  H    0.019743
   110  H    0.014472
   111  H    0.027623
   112  H    0.004098
   113  H    0.023684
   114  H    0.018877
   115  H    0.029579
   116  H    0.021127
   117  H    0.028029
   118  H    0.002306
   119  H    0.002863
   120  H    0.009809
   121  H    0.021272
   122  H    0.001430
   123  H    0.015209
   124  H    0.018000
   125  H    0.033674
   126  H    0.029592
   127  H    0.023590
   128  H    0.008818
   129  H    0.012519
   130  H    0.026686
   131  H    0.036609
   132  H    0.011020
   133  H    0.018625
   134  H    0.026870
   135  H    0.022301
   136  H    0.032632
   137  H    0.027401
   138  H    0.033484
   139  H    0.033881
   140  H    0.033501
 Sum of Mulliken charges =  -0.00000

 Dipole moment (field-independent basis, Debye):
    X=             -0.5903    Y=              2.1704    Z=             -2.0900  Tot=              3.0703
 Quadrupole moment (field-independent basis, Debye-Ang):
   XX=           -399.0221   YY=           -398.3092   ZZ=           -415.5985
   XY=             -5.8433   XZ=            -16.2056   YZ=             60.5934

 Normal termination of Gaussian 16 at Thu Apr 28 18:25:57 2022.
