 Gaussian 16, Revision A.03,
 Gaussian 16:  ES64L-G16RevA.03 25-Dec-2016

 --------------------
 #p ZINDO=(nstates=5)
 --------------------

 -----------------------------
 step_1651_chromophore_8 ZINDO
 -----------------------------
 Symbolic Z-matrix:
 Charge =  0 Multiplicity = 1

                         Standard orientation:
 ---------------------------------------------------------------------
 Center     Atomic      Atomic             Coordinates (Angstroms)
 Number     Number       Type             X           Y           Z
 ---------------------------------------------------------------------
      1         12           0        4.466340    1.122136    0.378577
      2          6           0        4.427852   -2.440506    0.863373
      3          6           0        5.245131    0.560076   -2.896903
      4          6           0        4.009782    4.403727   -0.137596
      5          6           0        3.112189    1.443257    3.628574
      6          7           0        4.824314   -0.675144   -0.828250
      7          6           0        4.702830   -2.033708   -0.481469
      8          6           0        4.946605   -2.928565   -1.703133
      9          6           0        5.290245   -1.906866   -2.750430
     10          6           0        5.139276   -0.556897   -2.110531
     11          6           0        6.635166   -2.273342   -3.447610
     12          6           0        3.612582   -3.783691   -2.075690
     13          6           0        2.363857   -3.121891   -2.463809
     14          6           0        1.061347   -3.526525   -1.841663
     15          8           0        0.858995   -3.849876   -0.687406
     16          8           0        0.017788   -3.505577   -2.809800
     17          7           0        4.648445    2.342756   -1.289050
     18          6           0        4.957921    1.923972   -2.601133
     19          6           0        4.869333    3.054646   -3.509819
     20          6           0        4.538756    4.245159   -2.740925
     21          6           0        4.425352    3.685687   -1.320629
     22          6           0        4.994930    2.928254   -5.007594
     23          6           0        4.196592    5.624453   -3.311730
     24          8           0        4.284572    5.863955   -4.532861
     25          6           0        3.749491    6.724358   -2.412704
     26          7           0        3.737043    2.722479    1.633170
     27          6           0        3.735874    3.976931    1.163497
     28          6           0        3.258562    4.902459    2.247688
     29          6           0        3.028727    3.952968    3.484405
     30          6           0        3.365343    2.577996    2.886877
     31          6           0        4.252217    6.039565    2.678757
     32          6           0        1.538075    4.008844    4.030931
     33          6           0        1.403431    4.784026    5.392575
     34          7           0        3.825464   -0.174080    1.971908
     35          6           0        3.340878    0.101635    3.214310
     36          6           0        3.146703   -1.169508    3.888894
     37          6           0        3.599748   -2.204841    3.050785
     38          6           0        3.976576   -1.545310    1.912235
     39          6           0        2.647748   -1.274300    5.264000
     40          6           0        3.849127   -3.610159    2.867883
     41          8           0        3.633631   -4.570507    3.646405
     42          6           0        4.349356   -3.870978    1.419485
     43          6           0        5.600316   -4.611428    1.394249
     44          8           0        6.525744   -4.439144    2.184152
     45          8           0        5.550229   -5.511646    0.360718
     46          6           0        6.691315   -6.384071    0.030892
     47          6           0       -1.305197   -3.725873   -2.272779
     48          6           0       -1.811945   -2.480809   -1.476923
     49          6           0       -3.074625   -2.285440   -1.003550
     50          6           0       -4.131934   -3.408914   -1.075839
     51          6           0       -3.672409   -0.937117   -0.446290
     52          6           0       -4.296018    0.042613   -1.500769
     53          6           0       -4.767092    1.394708   -0.946178
     54          6           0       -6.297589    1.541724   -1.050734
     55          6           0       -6.636282    2.958382   -1.404745
     56          6           0       -6.984175    1.085526    0.286822
     57          6           0       -7.860378   -0.215544    0.229991
     58          6           0       -8.746344   -0.286802    1.432022
     59          6           0      -10.192422    0.206282    1.162250
     60          6           0      -10.758946    0.891801    2.437393
     61          6           0      -11.126634   -0.971535    0.540358
     62          6           0      -12.127652   -0.468382   -0.518368
     63          6           0      -13.595123   -1.013326   -0.302924
     64          6           0      -14.678168    0.096290   -0.431966
     65          6           0      -14.999903    0.445914   -1.888364
     66          6           0      -16.070444   -0.383358    0.219620
     67          1           0        5.359166    0.377212   -3.966898
     68          1           0        3.783024    5.470014   -0.195709
     69          1           0        2.981289    1.599531    4.701809
     70          1           0        5.802014   -3.563753   -1.472782
     71          1           0        4.477559   -1.859620   -3.474899
     72          1           0        6.326028   -1.968201   -4.446808
     73          1           0        6.800187   -3.341660   -3.304660
     74          1           0        7.507619   -1.676065   -3.183144
     75          1           0        3.486179   -4.507090   -1.269920
     76          1           0        3.888992   -4.371873   -2.950869
     77          1           0        2.377887   -3.253538   -3.544850
     78          1           0        2.308058   -2.033517   -2.444838
     79          1           0        5.344384    3.832159   -5.505924
     80          1           0        4.043920    2.656159   -5.464472
     81          1           0        5.707343    2.131994   -5.225508
     82          1           0        4.430649    6.814841   -1.566266
     83          1           0        2.772684    6.432812   -2.024844
     84          1           0        3.664500    7.660100   -2.965268
     85          1           0        2.278540    5.207213    1.880198
     86          1           0        3.716573    4.251144    4.276027
     87          1           0        5.270161    5.775978    2.392319
     88          1           0        4.121099    6.241878    3.742280
     89          1           0        3.927978    6.952169    2.179510
     90          1           0        1.139798    3.033679    4.309615
     91          1           0        0.906404    4.572980    3.343937
     92          1           0        2.373718    4.943069    5.863038
     93          1           0        0.819824    4.211944    6.112987
     94          1           0        0.973536    5.767835    5.203484
     95          1           0        1.648346   -1.690762    5.134447
     96          1           0        2.479647   -0.348485    5.814514
     97          1           0        3.293378   -1.915502    5.863358
     98          1           0        3.494115   -4.386767    0.984292
     99          1           0        6.796690   -6.882142    0.994979
    100          1           0        7.621636   -5.818980   -0.038397
    101          1           0        6.485230   -7.209162   -0.651346
    102          1           0       -1.349756   -4.533795   -1.542398
    103          1           0       -2.056181   -4.089427   -2.973708
    104          1           0       -1.183825   -1.622490   -1.239809
    105          1           0       -5.108404   -3.058161   -1.409043
    106          1           0       -4.321983   -3.683992   -0.039190
    107          1           0       -3.607036   -4.176381   -1.645750
    108          1           0       -2.804355   -0.467249    0.016400
    109          1           0       -4.335918   -1.084899    0.405912
    110          1           0       -5.167506   -0.465597   -1.913879
    111          1           0       -3.629889    0.353117   -2.305088
    112          1           0       -4.362454    2.123205   -1.649067
    113          1           0       -4.328061    1.666323    0.014130
    114          1           0       -6.710613    0.923886   -1.847900
    115          1           0       -7.705426    3.135143   -1.287306
    116          1           0       -6.424373    3.136317   -2.458813
    117          1           0       -5.985348    3.656255   -0.879719
    118          1           0       -7.491174    1.898300    0.805353
    119          1           0       -6.246976    0.917449    1.072080
    120          1           0       -7.093274   -0.990351    0.230038
    121          1           0       -8.397111   -0.350059   -0.710001
    122          1           0       -8.332739    0.359981    2.205868
    123          1           0       -8.619703   -1.271601    1.881763
    124          1           0      -10.097336    0.959131    0.379305
    125          1           0      -10.259696    0.565825    3.349941
    126          1           0      -11.840538    0.848138    2.564673
    127          1           0      -10.512067    1.950566    2.359267
    128          1           0      -11.647589   -1.496401    1.340793
    129          1           0      -10.492927   -1.776959    0.166784
    130          1           0      -11.722210   -1.006897   -1.374440
    131          1           0      -12.114636    0.615805   -0.619734
    132          1           0      -13.677255   -1.472438    0.681694
    133          1           0      -13.783302   -1.879851   -0.936618
    134          1           0      -14.412036    0.989812    0.132117
    135          1           0      -14.391023    1.325522   -2.098811
    136          1           0      -16.046890    0.687866   -2.068233
    137          1           0      -14.616902   -0.316453   -2.567144
    138          1           0      -15.980005   -0.214495    1.293110
    139          1           0      -16.079106   -1.444970   -0.023703
    140          1           0      -16.862858    0.219462   -0.225714
 ---------------------------------------------------------------------

 SCF Done:  E(RZINDO/S) =  -474.135486244     A.U. after   19 cycles

 Excitation energies and oscillator strengths:

 Excited State   1:      Singlet-A      1.2469 eV  994.35 nm  f=0.6312  <S**2>=0.000
     175 ->178         0.18567
     176 ->177         0.66337
 This state for optimization and/or second-order correction.
 Total Energy, E(CIS/TDA) =  -474.089664179
 Copying the excited state density for this state as the 1-particle RhoCI density.

 Excited State   2:      Singlet-A      1.9322 eV  641.69 nm  f=0.0430  <S**2>=0.000
     175 ->177         0.53934
     176 ->178        -0.42869

 Excited State   3:      Singlet-A      2.9518 eV  420.02 nm  f=0.0032  <S**2>=0.000
     170 ->177         0.31240
     170 ->178        -0.10205
     170 ->179         0.35285
     170 ->180        -0.33775
     170 ->182         0.13673
     170 ->185         0.22870
     170 ->188         0.10740
     170 ->201        -0.13342

 Excited State   4:      Singlet-A      2.9947 eV  414.01 nm  f=0.2808  <S**2>=0.000
     168 ->177         0.25596
     168 ->178        -0.16365
     168 ->179        -0.32043
     168 ->180        -0.24373
     168 ->185        -0.17850
     168 ->187         0.11694
     175 ->177         0.19601
     176 ->178         0.27477
     176 ->179         0.15156

 Excited State   5:      Singlet-A      3.0008 eV  413.17 nm  f=0.5621  <S**2>=0.000
     168 ->177        -0.16001
     168 ->178         0.10276
     168 ->179         0.20413
     168 ->180         0.15413
     168 ->185         0.11478
     175 ->177         0.28266
     176 ->178         0.40422
     176 ->179         0.28894

 The electronic state is 1-A.
 Alpha  occ. eigenvalues --   -1.84267  -1.83066  -1.79802  -1.72444  -1.71672
 Alpha  occ. eigenvalues --   -1.70672  -1.64704  -1.59282  -1.58337  -1.57729
 Alpha  occ. eigenvalues --   -1.54151  -1.51185  -1.47768  -1.46523  -1.45590
 Alpha  occ. eigenvalues --   -1.44809  -1.44031  -1.40716  -1.39390  -1.38776
 Alpha  occ. eigenvalues --   -1.36242  -1.33961  -1.33068  -1.32061  -1.28998
 Alpha  occ. eigenvalues --   -1.28264  -1.27786  -1.23770  -1.20355  -1.17847
 Alpha  occ. eigenvalues --   -1.16700  -1.14279  -1.14192  -1.13487  -1.13092
 Alpha  occ. eigenvalues --   -1.12345  -1.09812  -1.09552  -1.05773  -1.04488
 Alpha  occ. eigenvalues --   -1.03727  -1.01017  -0.98799  -0.97374  -0.96361
 Alpha  occ. eigenvalues --   -0.94738  -0.94370  -0.94007  -0.92939  -0.92469
 Alpha  occ. eigenvalues --   -0.92222  -0.90901  -0.89409  -0.88507  -0.86889
 Alpha  occ. eigenvalues --   -0.86040  -0.83754  -0.83153  -0.82230  -0.79766
 Alpha  occ. eigenvalues --   -0.79670  -0.78448  -0.77292  -0.76625  -0.75947
 Alpha  occ. eigenvalues --   -0.75895  -0.75711  -0.75129  -0.73762  -0.73586
 Alpha  occ. eigenvalues --   -0.73015  -0.72227  -0.72131  -0.71788  -0.71011
 Alpha  occ. eigenvalues --   -0.69810  -0.69570  -0.69426  -0.68735  -0.67654
 Alpha  occ. eigenvalues --   -0.67456  -0.67010  -0.66300  -0.65693  -0.65155
 Alpha  occ. eigenvalues --   -0.64904  -0.64362  -0.64139  -0.63939  -0.63795
 Alpha  occ. eigenvalues --   -0.63318  -0.63205  -0.62856  -0.62273  -0.62120
 Alpha  occ. eigenvalues --   -0.61918  -0.61512  -0.60868  -0.60504  -0.60050
 Alpha  occ. eigenvalues --   -0.59705  -0.59174  -0.58520  -0.58267  -0.58027
 Alpha  occ. eigenvalues --   -0.57796  -0.57701  -0.57562  -0.56556  -0.56467
 Alpha  occ. eigenvalues --   -0.56127  -0.55906  -0.55552  -0.55276  -0.54461
 Alpha  occ. eigenvalues --   -0.54324  -0.54219  -0.53744  -0.53597  -0.53081
 Alpha  occ. eigenvalues --   -0.52866  -0.52032  -0.52009  -0.51791  -0.51726
 Alpha  occ. eigenvalues --   -0.51382  -0.50995  -0.50953  -0.50783  -0.50311
 Alpha  occ. eigenvalues --   -0.50119  -0.49757  -0.49632  -0.49199  -0.48839
 Alpha  occ. eigenvalues --   -0.48536  -0.48459  -0.48158  -0.47686  -0.47630
 Alpha  occ. eigenvalues --   -0.47402  -0.47066  -0.47004  -0.46851  -0.46683
 Alpha  occ. eigenvalues --   -0.46185  -0.45988  -0.45703  -0.45456  -0.45148
 Alpha  occ. eigenvalues --   -0.44863  -0.44726  -0.44343  -0.43887  -0.43784
 Alpha  occ. eigenvalues --   -0.43720  -0.43515  -0.43004  -0.42419  -0.42134
 Alpha  occ. eigenvalues --   -0.41746  -0.41372  -0.41261  -0.39536  -0.39171
 Alpha  occ. eigenvalues --   -0.38284  -0.36848  -0.35934  -0.34981  -0.34491
 Alpha  occ. eigenvalues --   -0.33459  -0.32875  -0.31780  -0.31553  -0.26948
 Alpha  occ. eigenvalues --   -0.21896
 Alpha virt. eigenvalues --   -0.08854  -0.02307  -0.00650   0.01389   0.01551
 Alpha virt. eigenvalues --    0.01836   0.02518   0.03038   0.04459   0.05097
 Alpha virt. eigenvalues --    0.05831   0.06339   0.06620   0.07523   0.08009

 Mulliken charges:
               1
     1  Mg   0.426749
     2  C   -0.037425
     3  C   -0.080297
     4  C   -0.101922
     5  C   -0.068875
     6  N   -0.276138
     7  C    0.087318
     8  C   -0.000255
     9  C    0.000880
    10  C    0.161268
    11  C   -0.057303
    12  C   -0.016150
    13  C    0.020627
    14  C    0.473783
    15  O   -0.500470
    16  O   -0.282509
    17  N   -0.322729
    18  C    0.102925
    19  C    0.048355
    20  C   -0.068345
    21  C    0.139289
    22  C   -0.034033
    23  C    0.336300
    24  O   -0.532693
    25  C   -0.023370
    26  N   -0.258088
    27  C    0.150533
    28  C   -0.005304
    29  C   -0.012942
    30  C    0.124667
    31  C   -0.049453
    32  C   -0.041177
    33  C   -0.066815
    34  N   -0.335247
    35  C    0.088635
    36  C    0.037892
    37  C   -0.040176
    38  C    0.108075
    39  C   -0.040808
    40  C    0.339551
    41  O   -0.535395
    42  C    0.063292
    43  C    0.504179
    44  O   -0.513952
    45  O   -0.284449
    46  C    0.059873
    47  C    0.110285
    48  C   -0.086268
    49  C   -0.028312
    50  C   -0.059918
    51  C   -0.022700
    52  C   -0.030498
    53  C   -0.033175
    54  C   -0.006157
    55  C   -0.052868
    56  C   -0.045532
    57  C   -0.031711
    58  C   -0.028315
    59  C   -0.012755
    60  C   -0.056626
    61  C   -0.040797
    62  C   -0.040917
    63  C   -0.033878
    64  C   -0.019926
    65  C   -0.057018
    66  C   -0.072613
    67  H    0.022439
    68  H    0.022827
    69  H    0.028930
    70  H    0.041550
    71  H    0.025590
    72  H    0.019462
    73  H    0.030673
    74  H    0.033220
    75  H    0.032085
    76  H    0.012844
    77  H    0.029967
    78  H    0.050589
    79  H    0.043048
    80  H    0.037417
    81  H    0.017928
    82  H    0.036542
    83  H    0.039176
    84  H    0.040516
    85  H    0.037854
    86  H    0.036855
    87  H    0.033986
    88  H    0.025636
    89  H    0.014053
    90  H    0.031972
    91  H    0.025801
    92  H    0.015741
    93  H    0.021411
    94  H    0.018034
    95  H    0.033267
    96  H    0.017168
    97  H    0.037826
    98  H    0.066468
    99  H    0.034391
   100  H    0.053731
   101  H    0.053295
   102  H    0.047730
   103  H    0.045193
   104  H    0.037625
   105  H    0.029778
   106  H    0.028823
   107  H    0.032126
   108  H    0.011628
   109  H    0.027834
   110  H    0.020331
   111  H    0.024531
   112  H    0.004693
   113  H    0.029372
   114  H    0.022958
   115  H    0.015752
   116  H    0.007520
   117  H    0.021566
   118  H    0.016189
   119  H    0.010916
   120  H    0.010040
   121  H    0.022232
   122  H    0.010884
   123  H    0.017926
   124  H    0.021631
   125  H    0.021980
   126  H    0.020083
   127  H    0.010909
   128  H    0.016493
   129  H    0.016567
   130  H    0.019263
   131  H    0.034048
   132  H    0.012785
   133  H    0.021654
   134  H    0.023198
   135  H    0.007688
   136  H    0.026232
   137  H    0.020770
   138  H    0.017203
   139  H    0.026307
   140  H    0.027082
 Sum of Mulliken charges =  -0.00000

 Dipole moment (field-independent basis, Debye):
    X=             -1.4550    Y=              3.9519    Z=             -3.6626  Tot=              5.5812
 N-N= 4.422727463101D+03 E-N= 0.000000000000D+00  KE=-9.519537714463D+03
 Leave Link  601 at Thu Apr 28 18:38:52 2022, MaxMem=  6710886400 cpu:               1.0 elap:               0.1
 (Enter /sw/apps/gaussian-16.0/g16/l9999.exe)
 1\1\GINC-BP1-COMPUTE161\SP\RZINDO CIS\STO-3G\C55H74Mg1N4O6\OF15641\28-
 Apr-2022\0\\#p ZINDO=(nstates=5)\\step_1651_chromophore_8 ZINDO\\0,1\M
 g,0,44.319,2.305,47.127\C,0,42.64,5.484,47.189\C,0,41.267,0.808,47.436
 \C,0,45.864,-0.619,46.573\C,0,47.274,4.035,46.247\N,0,42.261,3.04,47.3
 25\C,0,41.763,4.355,47.266\C,0,40.231,4.358,47.341\C,0,39.944,2.894,47
 .523\C,0,41.262,2.178,47.453\C,0,39.02,2.67,48.758\C,0,39.581,4.959,45
 .975\C,0,39.792,4.31,44.678\C,0,40.202,5.114,43.481\O,0,40.966,6.059,4

 Normal termination of Gaussian 16 at Thu Apr 28 18:38:52 2022.
