 Gaussian 16, Revision A.03,
 Gaussian 16:  ES64L-G16RevA.03 25-Dec-2016

 ------------------------------
 #p blyp/Def2SVP td=(nstates=5)
 ------------------------------

 ---------------------------------------------------
 step_1051_chromophore_17 TDDFT with blyp functional
 ---------------------------------------------------
 Symbolic Z-matrix:
 Charge =  0 Multiplicity = 1

                         Standard orientation:
 ---------------------------------------------------------------------
 Center     Atomic      Atomic             Coordinates (Angstroms)
 Number     Number       Type             X           Y           Z
 ---------------------------------------------------------------------
      1         12           0       -4.584719    1.284082    0.636611
      2          6           0       -4.702955   -2.142635    0.109443
      3          6           0       -1.744404    0.825259    2.640405
      4          6           0       -3.835658    4.600030    0.264609
      5          6           0       -6.898578    1.577292   -2.084285
      6          7           0       -3.378486   -0.524249    1.202811
      7          6           0       -3.674816   -1.824900    0.972426
      8          6           0       -2.605368   -2.719812    1.636307
      9          6           0       -2.012753   -1.739966    2.731880
     10          6           0       -2.313494   -0.386067    2.100775
     11          6           0       -2.444542   -1.969643    4.220811
     12          6           0       -1.520644   -3.336731    0.681985
     13          6           0       -0.764710   -4.591905    1.121448
     14          6           0        0.213519   -5.157608    0.089816
     15          8           0       -0.107902   -6.052277   -0.674587
     16          8           0        1.411692   -4.415398   -0.038110
     17          7           0       -3.141812    2.544302    1.494865
     18          6           0       -2.049288    2.127138    2.224574
     19          6           0       -1.284729    3.348052    2.545369
     20          6           0       -1.923763    4.481438    1.980907
     21          6           0       -3.017716    3.915460    1.218799
     22          6           0       -0.037375    3.339639    3.374860
     23          6           0       -1.486790    5.963849    2.206307
     24          8           0       -0.465857    6.294013    2.766353
     25          6           0       -2.373440    7.169173    1.773289
     26          7           0       -5.192343    2.798787   -0.693377
     27          6           0       -4.864807    4.106530   -0.506349
     28          6           0       -5.646241    5.043822   -1.484539
     29          6           0       -6.728160    4.126247   -2.109045
     30          6           0       -6.240775    2.734243   -1.581032
     31          6           0       -6.289705    6.329056   -0.930575
     32          6           0       -7.014023    4.210675   -3.597904
     33          6           0       -8.352195    4.607454   -4.037290
     34          7           0       -5.726030    0.022580   -0.656110
     35          6           0       -6.671965    0.262842   -1.656637
     36          6           0       -7.258412   -0.924834   -2.172510
     37          6           0       -6.545185   -1.951787   -1.460023
     38          6           0       -5.615581   -1.302130   -0.551673
     39          6           0       -8.461435   -1.117748   -3.027978
     40          6           0       -6.426600   -3.376892   -1.250416
     41          8           0       -7.014207   -4.370213   -1.641511
     42          6           0       -5.199427   -3.494364   -0.234966
     43          6           0       -5.654191   -4.167733    1.038513
     44          8           0       -6.419541   -3.697033    1.866200
     45          8           0       -5.034060   -5.419024    1.165315
     46          6           0       -5.145674   -6.072720    2.557615
     47          6           0        2.249312   -4.805987   -1.194839
     48          6           0        3.715379   -4.300263   -1.122922
     49          6           0        4.956699   -4.890172   -1.324203
     50          6           0        5.124204   -6.258342   -2.001577
     51          6           0        6.232726   -4.092309   -0.988772
     52          6           0        6.321251   -2.766006   -1.752963
     53          6           0        6.068327   -1.534888   -0.930598
     54          6           0        7.096183   -0.451697   -1.192264
     55          6           0        6.791224    0.226821   -2.581138
     56          6           0        7.194664    0.533240   -0.029015
     57          6           0        8.247156    0.010694    1.077267
     58          6           0        9.107063    1.201035    1.556709
     59          6           0       10.583411    1.040227    1.871488
     60          6           0       10.944158    1.146681    3.327746
     61          6           0       11.566821    1.796347    0.986257
     62          6           0       12.032002    0.943531   -0.156916
     63          6           0       13.020727    1.747188   -1.051996
     64          6           0       12.181036    2.557601   -2.102185
     65          6           0       12.411138    2.131465   -3.559163
     66          6           0       12.370670    4.072466   -1.931405
     67          1           0       -0.942253    0.718843    3.374737
     68          1           0       -3.338450    5.513695   -0.064209
     69          1           0       -7.855408    1.625131   -2.608512
     70          1           0       -3.153493   -3.548969    2.083681
     71          1           0       -0.927189   -1.835504    2.760580
     72          1           0       -3.229366   -1.308103    4.590395
     73          1           0       -1.551117   -1.623159    4.741157
     74          1           0       -2.829135   -2.981645    4.346547
     75          1           0       -0.804261   -2.545637    0.461852
     76          1           0       -2.026312   -3.555890   -0.259064
     77          1           0       -1.471641   -5.354855    1.447503
     78          1           0       -0.165277   -4.336867    1.995485
     79          1           0        0.671223    4.025427    2.910901
     80          1           0        0.384681    2.335491    3.352660
     81          1           0       -0.392403    3.586206    4.375407
     82          1           0       -2.357809    7.476442    0.727824
     83          1           0       -2.171738    8.101238    2.299518
     84          1           0       -3.378055    6.874187    2.078752
     85          1           0       -4.919749    5.355426   -2.234978
     86          1           0       -7.687070    4.277359   -1.613400
     87          1           0       -5.944705    6.630764    0.057701
     88          1           0       -7.369156    6.467555   -0.999510
     89          1           0       -5.929339    7.164960   -1.530893
     90          1           0       -6.888642    3.192891   -3.967784
     91          1           0       -6.318643    4.863392   -4.123836
     92          1           0       -9.138688    4.543456   -3.284970
     93          1           0       -8.722694    3.850200   -4.727220
     94          1           0       -8.279503    5.589680   -4.504331
     95          1           0       -9.143453   -0.268978   -3.039687
     96          1           0       -8.977384   -2.042339   -2.766884
     97          1           0       -8.149891   -1.126490   -4.072356
     98          1           0       -4.381932   -4.087971   -0.644560
     99          1           0       -5.418767   -5.313132    3.290093
    100          1           0       -4.150505   -6.515972    2.572228
    101          1           0       -5.920599   -6.824178    2.707685
    102          1           0        1.777536   -4.568564   -2.147708
    103          1           0        2.376830   -5.868933   -1.402109
    104          1           0        3.800169   -3.300140   -0.695306
    105          1           0        6.033633   -6.717492   -1.613153
    106          1           0        5.012156   -6.182050   -3.082844
    107          1           0        4.397037   -6.951556   -1.578814
    108          1           0        7.186050   -4.583073   -1.190330
    109          1           0        6.159219   -3.899873    0.081549
    110          1           0        5.581839   -2.899212   -2.542267
    111          1           0        7.222354   -2.758416   -2.366198
    112          1           0        6.200093   -1.809601    0.116400
    113          1           0        5.045237   -1.187054   -1.075614
    114          1           0        8.093510   -0.856605   -1.365777
    115          1           0        5.941922   -0.143882   -3.154367
    116          1           0        7.698247    0.119180   -3.175516
    117          1           0        6.556773    1.287011   -2.480018
    118          1           0        6.233935    0.609807    0.479190
    119          1           0        7.424712    1.522652   -0.424066
    120          1           0        8.893517   -0.758111    0.654877
    121          1           0        7.731349   -0.391337    1.948867
    122          1           0        8.653549    1.714363    2.404492
    123          1           0        9.010128    2.036871    0.864299
    124          1           0       10.786998   -0.019345    1.718918
    125          1           0       11.809673    0.526741    3.564488
    126          1           0       10.071863    0.774580    3.863347
    127          1           0       11.196587    2.159635    3.642356
    128          1           0       12.418906    2.073155    1.606835
    129          1           0       11.070747    2.675781    0.574390
    130          1           0       11.165117    0.511946   -0.658520
    131          1           0       12.556285    0.043596    0.165945
    132          1           0       13.639630    0.929427   -1.422816
    133          1           0       13.736220    2.354269   -0.496187
    134          1           0       11.114860    2.491167   -1.886030
    135          1           0       12.952847    2.834489   -4.190326
    136          1           0       11.432767    1.858285   -3.954203
    137          1           0       13.022877    1.229295   -3.538824
    138          1           0       11.781933    4.534322   -1.137701
    139          1           0       12.048522    4.584228   -2.838728
    140          1           0       13.435790    4.292197   -1.853538
 ---------------------------------------------------------------------

 SCF Done:  E(RB-LYP) =  -3007.35655889     A.U. after   21 cycles

 Excitation energies and oscillator strengths:

 Excited State   1:      Singlet-A      1.7879 eV  693.44 nm  f=0.2663  <S**2>=0.000
     245 -> 248       -0.20545
     246 -> 247        0.67930
     246 <- 247       -0.14744
 This state for optimization and/or second-order correction.
 Total Energy, E(TD-HF/TD-DFT) =  -3007.29085307
 Copying the excited state density for this state as the 1-particle RhoCI density.

 Excited State   2:      Singlet-A      1.8592 eV  666.89 nm  f=0.0067  <S**2>=0.000
     244 -> 247        0.67820
     245 -> 247        0.17550

 Excited State   3:      Singlet-A      1.8969 eV  653.60 nm  f=0.0116  <S**2>=0.000
     243 -> 247        0.66208
     244 -> 247        0.11688
     245 -> 247       -0.18789

 Excited State   4:      Singlet-A      1.9742 eV  628.01 nm  f=0.0684  <S**2>=0.000
     243 -> 247        0.22443
     244 -> 247       -0.15566
     245 -> 247        0.59095
     246 -> 248        0.25021

 Excited State   5:      Singlet-A      2.1479 eV  577.23 nm  f=0.0002  <S**2>=0.000
     242 -> 247        0.70686

 The electronic state is 1-A.
 Alpha  occ. eigenvalues --  -46.28172 -18.82629 -18.81592 -18.77374 -18.76678
 Alpha  occ. eigenvalues --  -18.76243 -18.75670 -14.04026 -14.03847 -14.01703
 Alpha  occ. eigenvalues --  -14.00829 -10.04679 -10.03510 -10.01002  -9.99513
 Alpha  occ. eigenvalues --   -9.98247  -9.97924  -9.97399  -9.97062  -9.97008
 Alpha  occ. eigenvalues --   -9.96832  -9.96683  -9.96040  -9.95284  -9.94871
 Alpha  occ. eigenvalues --   -9.94758  -9.94458  -9.94296  -9.94292  -9.94025
 Alpha  occ. eigenvalues --   -9.94021  -9.94005  -9.93915  -9.93878  -9.93646
 Alpha  occ. eigenvalues --   -9.93343  -9.93215  -9.93137  -9.93048  -9.92984
 Alpha  occ. eigenvalues --   -9.92918  -9.92906  -9.92403  -9.92314  -9.92255
 Alpha  occ. eigenvalues --   -9.92102  -9.92032  -9.92027  -9.91914  -9.91814
 Alpha  occ. eigenvalues --   -9.91808  -9.91655  -9.91647  -9.91642  -9.91275
 Alpha  occ. eigenvalues --   -9.90942  -9.90936  -9.90842  -9.90747  -9.90689
 Alpha  occ. eigenvalues --   -9.90606  -9.90472  -9.90417  -9.90414  -9.90301
 Alpha  occ. eigenvalues --   -9.90222  -2.92698  -1.73089  -1.72593  -1.72415
 Alpha  occ. eigenvalues --   -0.96917  -0.95835  -0.92713  -0.91207  -0.89848
 Alpha  occ. eigenvalues --   -0.88581  -0.86583  -0.85985  -0.85400  -0.84557
 Alpha  occ. eigenvalues --   -0.75690  -0.73780  -0.73387  -0.73273  -0.72779
 Alpha  occ. eigenvalues --   -0.71955  -0.71669  -0.70991  -0.70891  -0.70639
 Alpha  occ. eigenvalues --   -0.69823  -0.69297  -0.68352  -0.67897  -0.67165
 Alpha  occ. eigenvalues --   -0.66493  -0.65979  -0.65046  -0.64616  -0.64570
 Alpha  occ. eigenvalues --   -0.64188  -0.63005  -0.62479  -0.61935  -0.60625
 Alpha  occ. eigenvalues --   -0.60238  -0.59987  -0.59915  -0.59392  -0.59041
 Alpha  occ. eigenvalues --   -0.58223  -0.57708  -0.57233  -0.55913  -0.54754
 Alpha  occ. eigenvalues --   -0.53884  -0.53790  -0.52681  -0.52198  -0.51694
 Alpha  occ. eigenvalues --   -0.51515  -0.51460  -0.50931  -0.50578  -0.50436
 Alpha  occ. eigenvalues --   -0.49787  -0.49294  -0.48746  -0.47783  -0.46320
 Alpha  occ. eigenvalues --   -0.46272  -0.45970  -0.45609  -0.45319  -0.44352
 Alpha  occ. eigenvalues --   -0.44013  -0.43389  -0.43171  -0.42720  -0.42385
 Alpha  occ. eigenvalues --   -0.41912  -0.41647  -0.41544  -0.41343  -0.40995
 Alpha  occ. eigenvalues --   -0.40698  -0.40640  -0.40443  -0.40084  -0.39885
 Alpha  occ. eigenvalues --   -0.39793  -0.39621  -0.39540  -0.39408  -0.39174
 Alpha  occ. eigenvalues --   -0.38909  -0.38764  -0.38595  -0.38557  -0.38189
 Alpha  occ. eigenvalues --   -0.38066  -0.37989  -0.37933  -0.37797  -0.37671
 Alpha  occ. eigenvalues --   -0.37081  -0.36980  -0.36802  -0.36740  -0.36621
 Alpha  occ. eigenvalues --   -0.36341  -0.36013  -0.35913  -0.35861  -0.35815
 Alpha  occ. eigenvalues --   -0.35668  -0.35404  -0.35188  -0.35107  -0.34904
 Alpha  occ. eigenvalues --   -0.34765  -0.34462  -0.34399  -0.34154  -0.34046
 Alpha  occ. eigenvalues --   -0.33922  -0.33814  -0.33360  -0.33277  -0.33230
 Alpha  occ. eigenvalues --   -0.33057  -0.32800  -0.32587  -0.32347  -0.32303
 Alpha  occ. eigenvalues --   -0.32145  -0.32025  -0.31884  -0.31762  -0.31453
 Alpha  occ. eigenvalues --   -0.31390  -0.31120  -0.31076  -0.31029  -0.30822
 Alpha  occ. eigenvalues --   -0.30610  -0.30547  -0.30200  -0.30109  -0.29953
 Alpha  occ. eigenvalues --   -0.29840  -0.29661  -0.29453  -0.29379  -0.29275
 Alpha  occ. eigenvalues --   -0.28774  -0.28502  -0.28393  -0.28278  -0.27884
 Alpha  occ. eigenvalues --   -0.27527  -0.27301  -0.26742  -0.26728  -0.26578
 Alpha  occ. eigenvalues --   -0.26274  -0.25759  -0.25550  -0.25511  -0.25323
 Alpha  occ. eigenvalues --   -0.25019  -0.24753  -0.24620  -0.24077  -0.23803
 Alpha  occ. eigenvalues --   -0.23222  -0.22362  -0.22061  -0.21694  -0.20718
 Alpha  occ. eigenvalues --   -0.20514  -0.19890  -0.18927  -0.18733  -0.17608
 Alpha  occ. eigenvalues --   -0.16225
 Alpha virt. eigenvalues --   -0.11998  -0.07553  -0.06519  -0.04927  -0.04029
 Alpha virt. eigenvalues --   -0.03632  -0.03252  -0.02245  -0.02205  -0.00886
 Alpha virt. eigenvalues --    0.01017   0.01521   0.01952   0.01987   0.02642

 Mulliken charges:
               1
     1  Mg   0.705181
     2  C    0.061395
     3  C   -0.085679
     4  C   -0.084753
     5  C   -0.083617
     6  N   -0.226888
     7  C   -0.083373
     8  C    0.050895
     9  C   -0.021143
    10  C    0.040275
    11  C    0.140926
    12  C    0.097069
    13  C    0.178676
    14  C    0.095740
    15  O   -0.182914
    16  O   -0.293537
    17  N   -0.311255
    18  C    0.171093
    19  C   -0.194171
    20  C    0.040411
    21  C    0.078872
    22  C    0.199427
    23  C   -0.045693
    24  O   -0.146228
    25  C    0.087643
    26  N   -0.230171
    27  C    0.079403
    28  C    0.022385
    29  C    0.041850
    30  C    0.031602
    31  C    0.119358
    32  C    0.116546
    33  C    0.070776
    34  N   -0.242540
    35  C    0.076589
    36  C   -0.146593
    37  C    0.045172
    38  C    0.040497
    39  C    0.187706
    40  C   -0.010404
    41  O   -0.119375
    42  C    0.046865
    43  C    0.106269
    44  O   -0.180453
    45  O   -0.304877
    46  C    0.190359
    47  C    0.337225
    48  C   -0.092294
    49  C   -0.191617
    50  C    0.137864
    51  C    0.140807
    52  C    0.065493
    53  C    0.127741
    54  C   -0.098246
    55  C    0.090705
    56  C    0.111785
    57  C    0.088091
    58  C    0.109799
    59  C   -0.067927
    60  C    0.107677
    61  C    0.151316
    62  C    0.006635
    63  C    0.147337
    64  C   -0.081641
    65  C    0.124198
    66  C    0.079218
    67  H   -0.048876
    68  H   -0.032971
    69  H   -0.051112
    70  H   -0.042596
    71  H   -0.031759
    72  H   -0.010146
    73  H   -0.000944
    74  H    0.005201
    75  H   -0.016437
    76  H   -0.014994
    77  H   -0.007570
    78  H   -0.021156
    79  H    0.018311
    80  H   -0.022603
    81  H    0.013640
    82  H    0.020209
    83  H   -0.009637
    84  H    0.000669
    85  H   -0.014783
    86  H   -0.025263
    87  H   -0.012151
    88  H   -0.005087
    89  H   -0.030915
    90  H   -0.026623
    91  H   -0.029554
    92  H   -0.021609
    93  H   -0.019230
    94  H   -0.000986
    95  H   -0.018698
    96  H    0.025584
    97  H   -0.004781
    98  H   -0.011257
    99  H    0.025683
   100  H    0.029160
   101  H    0.027719
   102  H   -0.008667
   103  H   -0.026712
   104  H   -0.038153
   105  H   -0.017976
   106  H    0.024536
   107  H   -0.005290
   108  H   -0.036258
   109  H   -0.010480
   110  H   -0.035257
   111  H   -0.039939
   112  H   -0.039124
   113  H   -0.011959
   114  H   -0.034961
   115  H   -0.016133
   116  H   -0.016243
   117  H   -0.024207
   118  H   -0.033686
   119  H   -0.028739
   120  H   -0.020077
   121  H   -0.018460
   122  H   -0.056471
   123  H   -0.058831
   124  H   -0.054412
   125  H   -0.020399
   126  H   -0.025954
   127  H   -0.020106
   128  H   -0.049536
   129  H   -0.035313
   130  H   -0.030107
   131  H   -0.047845
   132  H   -0.042430
   133  H   -0.035877
   134  H   -0.026893
   135  H   -0.012473
   136  H   -0.014254
   137  H   -0.030241
   138  H   -0.011149
   139  H   -0.030666
   140  H   -0.017170
 Sum of Mulliken charges =  -0.00000

 Dipole moment (field-independent basis, Debye):
    X=              0.9751    Y=              2.9842    Z=              0.4147  Tot=              3.1667
 Quadrupole moment (field-independent basis, Debye-Ang):
   XX=           -399.9047   YY=           -422.7380   ZZ=           -397.5421
   XY=            -57.9075   XZ=             -5.1704   YZ=            -32.3096

 Normal termination of Gaussian 16 at Wed Apr 27 03:11:03 2022.
