 Gaussian 16, Revision A.03,
 Gaussian 16:  ES64L-G16RevA.03 25-Dec-2016

 -----------------------------------
 #p cam-b3lyp/Def2SVP td=(nstates=5)
 -----------------------------------

 --------------------------------------------------------
 step_1051_chromophore_17 TDDFT with cam-b3lyp functional
 --------------------------------------------------------
 Symbolic Z-matrix:
 Charge =  0 Multiplicity = 1

                         Standard orientation:
 ---------------------------------------------------------------------
 Center     Atomic      Atomic             Coordinates (Angstroms)
 Number     Number       Type             X           Y           Z
 ---------------------------------------------------------------------
      1         12           0       -4.584719    1.284082    0.636611
      2          6           0       -4.702955   -2.142635    0.109443
      3          6           0       -1.744404    0.825259    2.640405
      4          6           0       -3.835658    4.600030    0.264609
      5          6           0       -6.898578    1.577292   -2.084285
      6          7           0       -3.378486   -0.524249    1.202811
      7          6           0       -3.674816   -1.824900    0.972426
      8          6           0       -2.605368   -2.719812    1.636307
      9          6           0       -2.012753   -1.739966    2.731880
     10          6           0       -2.313494   -0.386067    2.100775
     11          6           0       -2.444542   -1.969643    4.220811
     12          6           0       -1.520644   -3.336731    0.681985
     13          6           0       -0.764710   -4.591905    1.121448
     14          6           0        0.213519   -5.157608    0.089816
     15          8           0       -0.107902   -6.052277   -0.674587
     16          8           0        1.411692   -4.415398   -0.038110
     17          7           0       -3.141812    2.544302    1.494865
     18          6           0       -2.049288    2.127138    2.224574
     19          6           0       -1.284729    3.348052    2.545369
     20          6           0       -1.923763    4.481438    1.980907
     21          6           0       -3.017716    3.915460    1.218799
     22          6           0       -0.037375    3.339639    3.374860
     23          6           0       -1.486790    5.963849    2.206307
     24          8           0       -0.465857    6.294013    2.766353
     25          6           0       -2.373440    7.169173    1.773289
     26          7           0       -5.192343    2.798787   -0.693377
     27          6           0       -4.864807    4.106530   -0.506349
     28          6           0       -5.646241    5.043822   -1.484539
     29          6           0       -6.728160    4.126247   -2.109045
     30          6           0       -6.240775    2.734243   -1.581032
     31          6           0       -6.289705    6.329056   -0.930575
     32          6           0       -7.014023    4.210675   -3.597904
     33          6           0       -8.352195    4.607454   -4.037290
     34          7           0       -5.726030    0.022580   -0.656110
     35          6           0       -6.671965    0.262842   -1.656637
     36          6           0       -7.258412   -0.924834   -2.172510
     37          6           0       -6.545185   -1.951787   -1.460023
     38          6           0       -5.615581   -1.302130   -0.551673
     39          6           0       -8.461435   -1.117748   -3.027978
     40          6           0       -6.426600   -3.376892   -1.250416
     41          8           0       -7.014207   -4.370213   -1.641511
     42          6           0       -5.199427   -3.494364   -0.234966
     43          6           0       -5.654191   -4.167733    1.038513
     44          8           0       -6.419541   -3.697033    1.866200
     45          8           0       -5.034060   -5.419024    1.165315
     46          6           0       -5.145674   -6.072720    2.557615
     47          6           0        2.249312   -4.805987   -1.194839
     48          6           0        3.715379   -4.300263   -1.122922
     49          6           0        4.956699   -4.890172   -1.324203
     50          6           0        5.124204   -6.258342   -2.001577
     51          6           0        6.232726   -4.092309   -0.988772
     52          6           0        6.321251   -2.766006   -1.752963
     53          6           0        6.068327   -1.534888   -0.930598
     54          6           0        7.096183   -0.451697   -1.192264
     55          6           0        6.791224    0.226821   -2.581138
     56          6           0        7.194664    0.533240   -0.029015
     57          6           0        8.247156    0.010694    1.077267
     58          6           0        9.107063    1.201035    1.556709
     59          6           0       10.583411    1.040227    1.871488
     60          6           0       10.944158    1.146681    3.327746
     61          6           0       11.566821    1.796347    0.986257
     62          6           0       12.032002    0.943531   -0.156916
     63          6           0       13.020727    1.747188   -1.051996
     64          6           0       12.181036    2.557601   -2.102185
     65          6           0       12.411138    2.131465   -3.559163
     66          6           0       12.370670    4.072466   -1.931405
     67          1           0       -0.942253    0.718843    3.374737
     68          1           0       -3.338450    5.513695   -0.064209
     69          1           0       -7.855408    1.625131   -2.608512
     70          1           0       -3.153493   -3.548969    2.083681
     71          1           0       -0.927189   -1.835504    2.760580
     72          1           0       -3.229366   -1.308103    4.590395
     73          1           0       -1.551117   -1.623159    4.741157
     74          1           0       -2.829135   -2.981645    4.346547
     75          1           0       -0.804261   -2.545637    0.461852
     76          1           0       -2.026312   -3.555890   -0.259064
     77          1           0       -1.471641   -5.354855    1.447503
     78          1           0       -0.165277   -4.336867    1.995485
     79          1           0        0.671223    4.025427    2.910901
     80          1           0        0.384681    2.335491    3.352660
     81          1           0       -0.392403    3.586206    4.375407
     82          1           0       -2.357809    7.476442    0.727824
     83          1           0       -2.171738    8.101238    2.299518
     84          1           0       -3.378055    6.874187    2.078752
     85          1           0       -4.919749    5.355426   -2.234978
     86          1           0       -7.687070    4.277359   -1.613400
     87          1           0       -5.944705    6.630764    0.057701
     88          1           0       -7.369156    6.467555   -0.999510
     89          1           0       -5.929339    7.164960   -1.530893
     90          1           0       -6.888642    3.192891   -3.967784
     91          1           0       -6.318643    4.863392   -4.123836
     92          1           0       -9.138688    4.543456   -3.284970
     93          1           0       -8.722694    3.850200   -4.727220
     94          1           0       -8.279503    5.589680   -4.504331
     95          1           0       -9.143453   -0.268978   -3.039687
     96          1           0       -8.977384   -2.042339   -2.766884
     97          1           0       -8.149891   -1.126490   -4.072356
     98          1           0       -4.381932   -4.087971   -0.644560
     99          1           0       -5.418767   -5.313132    3.290093
    100          1           0       -4.150505   -6.515972    2.572228
    101          1           0       -5.920599   -6.824178    2.707685
    102          1           0        1.777536   -4.568564   -2.147708
    103          1           0        2.376830   -5.868933   -1.402109
    104          1           0        3.800169   -3.300140   -0.695306
    105          1           0        6.033633   -6.717492   -1.613153
    106          1           0        5.012156   -6.182050   -3.082844
    107          1           0        4.397037   -6.951556   -1.578814
    108          1           0        7.186050   -4.583073   -1.190330
    109          1           0        6.159219   -3.899873    0.081549
    110          1           0        5.581839   -2.899212   -2.542267
    111          1           0        7.222354   -2.758416   -2.366198
    112          1           0        6.200093   -1.809601    0.116400
    113          1           0        5.045237   -1.187054   -1.075614
    114          1           0        8.093510   -0.856605   -1.365777
    115          1           0        5.941922   -0.143882   -3.154367
    116          1           0        7.698247    0.119180   -3.175516
    117          1           0        6.556773    1.287011   -2.480018
    118          1           0        6.233935    0.609807    0.479190
    119          1           0        7.424712    1.522652   -0.424066
    120          1           0        8.893517   -0.758111    0.654877
    121          1           0        7.731349   -0.391337    1.948867
    122          1           0        8.653549    1.714363    2.404492
    123          1           0        9.010128    2.036871    0.864299
    124          1           0       10.786998   -0.019345    1.718918
    125          1           0       11.809673    0.526741    3.564488
    126          1           0       10.071863    0.774580    3.863347
    127          1           0       11.196587    2.159635    3.642356
    128          1           0       12.418906    2.073155    1.606835
    129          1           0       11.070747    2.675781    0.574390
    130          1           0       11.165117    0.511946   -0.658520
    131          1           0       12.556285    0.043596    0.165945
    132          1           0       13.639630    0.929427   -1.422816
    133          1           0       13.736220    2.354269   -0.496187
    134          1           0       11.114860    2.491167   -1.886030
    135          1           0       12.952847    2.834489   -4.190326
    136          1           0       11.432767    1.858285   -3.954203
    137          1           0       13.022877    1.229295   -3.538824
    138          1           0       11.781933    4.534322   -1.137701
    139          1           0       12.048522    4.584228   -2.838728
    140          1           0       13.435790    4.292197   -1.853538
 ---------------------------------------------------------------------

 SCF Done:  E(RCAM-B3LYP) =  -3007.13919805     A.U. after   17 cycles

 Excitation energies and oscillator strengths:

 Excited State   1:      Singlet-A      1.6848 eV  735.89 nm  f=0.3613  <S**2>=0.000
     245 -> 248       -0.18782
     246 -> 247        0.68405
     245 <- 248       -0.11049
 This state for optimization and/or second-order correction.
 Total Energy, E(TD-HF/TD-DFT) =  -3007.07728245
 Copying the excited state density for this state as the 1-particle RhoCI density.

 Excited State   2:      Singlet-A      2.1741 eV  570.29 nm  f=0.0942  <S**2>=0.000
     245 -> 247        0.63166
     246 -> 248        0.30561

 Excited State   3:      Singlet-A      3.3068 eV  374.94 nm  f=0.0004  <S**2>=0.000
     242 -> 247        0.48579
     243 -> 247        0.48858

 Excited State   4:      Singlet-A      3.3511 eV  369.98 nm  f=0.1380  <S**2>=0.000
     241 -> 247       -0.13411
     242 -> 247       -0.37707
     243 -> 247        0.35653
     245 -> 247       -0.13499
     246 -> 248        0.41251

 Excited State   5:      Singlet-A      3.4355 eV  360.89 nm  f=0.0209  <S**2>=0.000
     241 -> 247        0.58517
     241 -> 249        0.24060
     241 -> 250       -0.11272
     241 -> 251       -0.18939
     243 -> 247        0.10776
     246 -> 248        0.12244

 The electronic state is 1-A.
 Alpha  occ. eigenvalues --  -46.89787 -19.25516 -19.24510 -19.20441 -19.19746
 Alpha  occ. eigenvalues --  -19.19613 -19.18679 -14.42871 -14.42830 -14.40311
 Alpha  occ. eigenvalues --  -14.39126 -10.40070 -10.38976 -10.36354 -10.34749
 Alpha  occ. eigenvalues --  -10.32327 -10.32141 -10.32106 -10.31683 -10.31500
 Alpha  occ. eigenvalues --  -10.31361 -10.31188 -10.30648 -10.29242 -10.29011
 Alpha  occ. eigenvalues --  -10.28883 -10.28804 -10.28554 -10.28373 -10.28280
 Alpha  occ. eigenvalues --  -10.28271 -10.28226 -10.28081 -10.27910 -10.27721
 Alpha  occ. eigenvalues --  -10.27552 -10.27513 -10.27308 -10.27071 -10.27005
 Alpha  occ. eigenvalues --  -10.26834 -10.26451 -10.26277 -10.26256 -10.26159
 Alpha  occ. eigenvalues --  -10.25964 -10.25876 -10.25704 -10.25624 -10.25573
 Alpha  occ. eigenvalues --  -10.25520 -10.25501 -10.25343 -10.25197 -10.24973
 Alpha  occ. eigenvalues --  -10.24616 -10.24536 -10.24437 -10.24372 -10.24280
 Alpha  occ. eigenvalues --  -10.24165 -10.24113 -10.24060 -10.24009 -10.23911
 Alpha  occ. eigenvalues --  -10.23801  -3.18206  -1.93075  -1.92668  -1.92503
 Alpha  occ. eigenvalues --   -1.15369  -1.14349  -1.11292  -1.09458  -1.07681
 Alpha  occ. eigenvalues --   -1.06412  -1.04258  -1.03656  -1.02937  -1.02181
 Alpha  occ. eigenvalues --   -0.92769  -0.90641  -0.90095  -0.90073  -0.89554
 Alpha  occ. eigenvalues --   -0.88718  -0.88347  -0.87586  -0.87478  -0.87038
 Alpha  occ. eigenvalues --   -0.86612  -0.85714  -0.84530  -0.84112  -0.83322
 Alpha  occ. eigenvalues --   -0.82555  -0.82070  -0.81017  -0.80627  -0.80338
 Alpha  occ. eigenvalues --   -0.79947  -0.78626  -0.78105  -0.77574  -0.76024
 Alpha  occ. eigenvalues --   -0.75560  -0.75296  -0.75258  -0.74686  -0.74295
 Alpha  occ. eigenvalues --   -0.73265  -0.72686  -0.72177  -0.70724  -0.69335
 Alpha  occ. eigenvalues --   -0.68452  -0.68348  -0.67238  -0.66526  -0.65833
 Alpha  occ. eigenvalues --   -0.65727  -0.65553  -0.65099  -0.64459  -0.64190
 Alpha  occ. eigenvalues --   -0.63778  -0.63246  -0.62668  -0.61464  -0.59961
 Alpha  occ. eigenvalues --   -0.59800  -0.59418  -0.59057  -0.58633  -0.57913
 Alpha  occ. eigenvalues --   -0.57530  -0.56566  -0.56482  -0.55958  -0.55223
 Alpha  occ. eigenvalues --   -0.54888  -0.54654  -0.54490  -0.54004  -0.53815
 Alpha  occ. eigenvalues --   -0.53595  -0.53439  -0.53283  -0.52801  -0.52676
 Alpha  occ. eigenvalues --   -0.52585  -0.52357  -0.52236  -0.52031  -0.51886
 Alpha  occ. eigenvalues --   -0.51611  -0.51462  -0.51409  -0.51025  -0.50662
 Alpha  occ. eigenvalues --   -0.50624  -0.50313  -0.50137  -0.50068  -0.49966
 Alpha  occ. eigenvalues --   -0.49594  -0.49438  -0.49394  -0.49095  -0.48855
 Alpha  occ. eigenvalues --   -0.48736  -0.48386  -0.47957  -0.47919  -0.47771
 Alpha  occ. eigenvalues --   -0.47632  -0.47374  -0.47221  -0.47095  -0.46699
 Alpha  occ. eigenvalues --   -0.46666  -0.46553  -0.46317  -0.46138  -0.46032
 Alpha  occ. eigenvalues --   -0.45690  -0.45655  -0.45296  -0.45009  -0.44968
 Alpha  occ. eigenvalues --   -0.44843  -0.44509  -0.44325  -0.44002  -0.43833
 Alpha  occ. eigenvalues --   -0.43743  -0.43668  -0.43565  -0.43473  -0.43157
 Alpha  occ. eigenvalues --   -0.42876  -0.42812  -0.42511  -0.42416  -0.42297
 Alpha  occ. eigenvalues --   -0.42064  -0.41856  -0.41563  -0.41416  -0.41222
 Alpha  occ. eigenvalues --   -0.41134  -0.40799  -0.40792  -0.40570  -0.40455
 Alpha  occ. eigenvalues --   -0.39885  -0.39549  -0.39433  -0.39322  -0.38783
 Alpha  occ. eigenvalues --   -0.38714  -0.38109  -0.37843  -0.37526  -0.37348
 Alpha  occ. eigenvalues --   -0.37192  -0.36776  -0.36415  -0.36397  -0.36231
 Alpha  occ. eigenvalues --   -0.36191  -0.35544  -0.35126  -0.34663  -0.34247
 Alpha  occ. eigenvalues --   -0.34164  -0.33648  -0.33404  -0.31313  -0.31233
 Alpha  occ. eigenvalues --   -0.30544  -0.30221  -0.29596  -0.29437  -0.24429
 Alpha  occ. eigenvalues --   -0.21494
 Alpha virt. eigenvalues --   -0.09112  -0.02521  -0.00084   0.01254   0.02152
 Alpha virt. eigenvalues --    0.03947   0.04200   0.05125   0.05605   0.06188
 Alpha virt. eigenvalues --    0.07540   0.07880   0.08169   0.08381   0.08695

 Mulliken charges:
               1
     1  Mg   0.833342
     2  C    0.027608
     3  C   -0.097888
     4  C   -0.103116
     5  C   -0.085248
     6  N   -0.292529
     7  C   -0.042420
     8  C    0.005473
     9  C   -0.080827
    10  C    0.062924
    11  C    0.088229
    12  C    0.046936
    13  C    0.111825
    14  C    0.175830
    15  O   -0.221356
    16  O   -0.358956
    17  N   -0.398183
    18  C    0.176835
    19  C   -0.195120
    20  C   -0.034209
    21  C    0.114031
    22  C    0.140840
    23  C    0.030321
    24  O   -0.183934
    25  C    0.013370
    26  N   -0.303343
    27  C    0.100702
    28  C   -0.032717
    29  C   -0.014021
    30  C    0.052673
    31  C    0.060652
    32  C    0.051880
    33  C    0.007747
    34  N   -0.330228
    35  C    0.076896
    36  C   -0.137168
    37  C   -0.033240
    38  C    0.084094
    39  C    0.129438
    40  C    0.085265
    41  O   -0.160417
    42  C   -0.032526
    43  C    0.195398
    44  O   -0.218350
    45  O   -0.370049
    46  C    0.157390
    47  C    0.308459
    48  C   -0.114853
    49  C   -0.213457
    50  C    0.075701
    51  C    0.082534
    52  C    0.005937
    53  C    0.072395
    54  C   -0.151838
    55  C    0.033093
    56  C    0.057760
    57  C    0.035506
    58  C    0.052976
    59  C   -0.126827
    60  C    0.052025
    61  C    0.098225
    62  C   -0.043323
    63  C    0.084067
    64  C   -0.140733
    65  C    0.063206
    66  C    0.024509
    67  H   -0.012617
    68  H   -0.001868
    69  H   -0.020151
    70  H   -0.011203
    71  H    0.003443
    72  H    0.016388
    73  H    0.020934
    74  H    0.027692
    75  H    0.014150
    76  H    0.014146
    77  H    0.023688
    78  H    0.010542
    79  H    0.048078
    80  H    0.003462
    81  H    0.041276
    82  H    0.046277
    83  H    0.024862
    84  H    0.026854
    85  H    0.019551
    86  H    0.009193
    87  H    0.012459
    88  H    0.020415
    89  H   -0.004910
    90  H    0.007394
    91  H    0.000219
    92  H    0.002745
    93  H    0.005612
    94  H    0.021986
    95  H    0.006123
    96  H    0.051407
    97  H    0.021966
    98  H    0.033107
    99  H    0.049839
   100  H    0.049613
   101  H    0.049813
   102  H    0.019774
   103  H    0.002081
   104  H   -0.008034
   105  H    0.008158
   106  H    0.047892
   107  H    0.019014
   108  H   -0.003965
   109  H    0.019604
   110  H   -0.003229
   111  H   -0.009317
   112  H   -0.011977
   113  H    0.014838
   114  H   -0.003742
   115  H    0.008168
   116  H    0.006706
   117  H    0.000456
   118  H   -0.004596
   119  H   -0.000295
   120  H    0.005048
   121  H    0.008232
   122  H   -0.024498
   123  H   -0.029115
   124  H   -0.021148
   125  H    0.004097
   126  H   -0.001285
   127  H    0.003512
   128  H   -0.018457
   129  H   -0.010566
   130  H   -0.005171
   131  H   -0.017530
   132  H   -0.011370
   133  H   -0.005691
   134  H    0.002475
   135  H    0.011996
   136  H    0.009630
   137  H   -0.005300
   138  H    0.011829
   139  H   -0.005065
   140  H    0.005141
 Sum of Mulliken charges =  -0.00000

 Dipole moment (field-independent basis, Debye):
    X=              1.3015    Y=              3.5401    Z=              0.8917  Tot=              3.8757
 Quadrupole moment (field-independent basis, Debye-Ang):
   XX=           -401.7698   YY=           -418.1469   ZZ=           -396.0770
   XY=            -60.8778   XZ=             -6.1744   YZ=            -33.5213

 Normal termination of Gaussian 16 at Wed Apr 27 02:14:32 2022.
