 Gaussian 16, Revision A.03,
 Gaussian 16:  ES64L-G16RevA.03 25-Dec-2016

 ---------------------------------
 #p PBE1PBE/Def2SVP td=(nstates=5)
 ---------------------------------

 ------------------------------------------------------
 step_1051_chromophore_17 TDDFT with PBE1PBE functional
 ------------------------------------------------------
 Symbolic Z-matrix:
 Charge =  0 Multiplicity = 1

                         Standard orientation:
 ---------------------------------------------------------------------
 Center     Atomic      Atomic             Coordinates (Angstroms)
 Number     Number       Type             X           Y           Z
 ---------------------------------------------------------------------
      1         12           0       -4.584719    1.284082    0.636611
      2          6           0       -4.702955   -2.142635    0.109443
      3          6           0       -1.744404    0.825259    2.640405
      4          6           0       -3.835658    4.600030    0.264609
      5          6           0       -6.898578    1.577292   -2.084285
      6          7           0       -3.378486   -0.524249    1.202811
      7          6           0       -3.674816   -1.824900    0.972426
      8          6           0       -2.605368   -2.719812    1.636307
      9          6           0       -2.012753   -1.739966    2.731880
     10          6           0       -2.313494   -0.386067    2.100775
     11          6           0       -2.444542   -1.969643    4.220811
     12          6           0       -1.520644   -3.336731    0.681985
     13          6           0       -0.764710   -4.591905    1.121448
     14          6           0        0.213519   -5.157608    0.089816
     15          8           0       -0.107902   -6.052277   -0.674587
     16          8           0        1.411692   -4.415398   -0.038110
     17          7           0       -3.141812    2.544302    1.494865
     18          6           0       -2.049288    2.127138    2.224574
     19          6           0       -1.284729    3.348052    2.545369
     20          6           0       -1.923763    4.481438    1.980907
     21          6           0       -3.017716    3.915460    1.218799
     22          6           0       -0.037375    3.339639    3.374860
     23          6           0       -1.486790    5.963849    2.206307
     24          8           0       -0.465857    6.294013    2.766353
     25          6           0       -2.373440    7.169173    1.773289
     26          7           0       -5.192343    2.798787   -0.693377
     27          6           0       -4.864807    4.106530   -0.506349
     28          6           0       -5.646241    5.043822   -1.484539
     29          6           0       -6.728160    4.126247   -2.109045
     30          6           0       -6.240775    2.734243   -1.581032
     31          6           0       -6.289705    6.329056   -0.930575
     32          6           0       -7.014023    4.210675   -3.597904
     33          6           0       -8.352195    4.607454   -4.037290
     34          7           0       -5.726030    0.022580   -0.656110
     35          6           0       -6.671965    0.262842   -1.656637
     36          6           0       -7.258412   -0.924834   -2.172510
     37          6           0       -6.545185   -1.951787   -1.460023
     38          6           0       -5.615581   -1.302130   -0.551673
     39          6           0       -8.461435   -1.117748   -3.027978
     40          6           0       -6.426600   -3.376892   -1.250416
     41          8           0       -7.014207   -4.370213   -1.641511
     42          6           0       -5.199427   -3.494364   -0.234966
     43          6           0       -5.654191   -4.167733    1.038513
     44          8           0       -6.419541   -3.697033    1.866200
     45          8           0       -5.034060   -5.419024    1.165315
     46          6           0       -5.145674   -6.072720    2.557615
     47          6           0        2.249312   -4.805987   -1.194839
     48          6           0        3.715379   -4.300263   -1.122922
     49          6           0        4.956699   -4.890172   -1.324203
     50          6           0        5.124204   -6.258342   -2.001577
     51          6           0        6.232726   -4.092309   -0.988772
     52          6           0        6.321251   -2.766006   -1.752963
     53          6           0        6.068327   -1.534888   -0.930598
     54          6           0        7.096183   -0.451697   -1.192264
     55          6           0        6.791224    0.226821   -2.581138
     56          6           0        7.194664    0.533240   -0.029015
     57          6           0        8.247156    0.010694    1.077267
     58          6           0        9.107063    1.201035    1.556709
     59          6           0       10.583411    1.040227    1.871488
     60          6           0       10.944158    1.146681    3.327746
     61          6           0       11.566821    1.796347    0.986257
     62          6           0       12.032002    0.943531   -0.156916
     63          6           0       13.020727    1.747188   -1.051996
     64          6           0       12.181036    2.557601   -2.102185
     65          6           0       12.411138    2.131465   -3.559163
     66          6           0       12.370670    4.072466   -1.931405
     67          1           0       -0.942253    0.718843    3.374737
     68          1           0       -3.338450    5.513695   -0.064209
     69          1           0       -7.855408    1.625131   -2.608512
     70          1           0       -3.153493   -3.548969    2.083681
     71          1           0       -0.927189   -1.835504    2.760580
     72          1           0       -3.229366   -1.308103    4.590395
     73          1           0       -1.551117   -1.623159    4.741157
     74          1           0       -2.829135   -2.981645    4.346547
     75          1           0       -0.804261   -2.545637    0.461852
     76          1           0       -2.026312   -3.555890   -0.259064
     77          1           0       -1.471641   -5.354855    1.447503
     78          1           0       -0.165277   -4.336867    1.995485
     79          1           0        0.671223    4.025427    2.910901
     80          1           0        0.384681    2.335491    3.352660
     81          1           0       -0.392403    3.586206    4.375407
     82          1           0       -2.357809    7.476442    0.727824
     83          1           0       -2.171738    8.101238    2.299518
     84          1           0       -3.378055    6.874187    2.078752
     85          1           0       -4.919749    5.355426   -2.234978
     86          1           0       -7.687070    4.277359   -1.613400
     87          1           0       -5.944705    6.630764    0.057701
     88          1           0       -7.369156    6.467555   -0.999510
     89          1           0       -5.929339    7.164960   -1.530893
     90          1           0       -6.888642    3.192891   -3.967784
     91          1           0       -6.318643    4.863392   -4.123836
     92          1           0       -9.138688    4.543456   -3.284970
     93          1           0       -8.722694    3.850200   -4.727220
     94          1           0       -8.279503    5.589680   -4.504331
     95          1           0       -9.143453   -0.268978   -3.039687
     96          1           0       -8.977384   -2.042339   -2.766884
     97          1           0       -8.149891   -1.126490   -4.072356
     98          1           0       -4.381932   -4.087971   -0.644560
     99          1           0       -5.418767   -5.313132    3.290093
    100          1           0       -4.150505   -6.515972    2.572228
    101          1           0       -5.920599   -6.824178    2.707685
    102          1           0        1.777536   -4.568564   -2.147708
    103          1           0        2.376830   -5.868933   -1.402109
    104          1           0        3.800169   -3.300140   -0.695306
    105          1           0        6.033633   -6.717492   -1.613153
    106          1           0        5.012156   -6.182050   -3.082844
    107          1           0        4.397037   -6.951556   -1.578814
    108          1           0        7.186050   -4.583073   -1.190330
    109          1           0        6.159219   -3.899873    0.081549
    110          1           0        5.581839   -2.899212   -2.542267
    111          1           0        7.222354   -2.758416   -2.366198
    112          1           0        6.200093   -1.809601    0.116400
    113          1           0        5.045237   -1.187054   -1.075614
    114          1           0        8.093510   -0.856605   -1.365777
    115          1           0        5.941922   -0.143882   -3.154367
    116          1           0        7.698247    0.119180   -3.175516
    117          1           0        6.556773    1.287011   -2.480018
    118          1           0        6.233935    0.609807    0.479190
    119          1           0        7.424712    1.522652   -0.424066
    120          1           0        8.893517   -0.758111    0.654877
    121          1           0        7.731349   -0.391337    1.948867
    122          1           0        8.653549    1.714363    2.404492
    123          1           0        9.010128    2.036871    0.864299
    124          1           0       10.786998   -0.019345    1.718918
    125          1           0       11.809673    0.526741    3.564488
    126          1           0       10.071863    0.774580    3.863347
    127          1           0       11.196587    2.159635    3.642356
    128          1           0       12.418906    2.073155    1.606835
    129          1           0       11.070747    2.675781    0.574390
    130          1           0       11.165117    0.511946   -0.658520
    131          1           0       12.556285    0.043596    0.165945
    132          1           0       13.639630    0.929427   -1.422816
    133          1           0       13.736220    2.354269   -0.496187
    134          1           0       11.114860    2.491167   -1.886030
    135          1           0       12.952847    2.834489   -4.190326
    136          1           0       11.432767    1.858285   -3.954203
    137          1           0       13.022877    1.229295   -3.538824
    138          1           0       11.781933    4.534322   -1.137701
    139          1           0       12.048522    4.584228   -2.838728
    140          1           0       13.435790    4.292197   -1.853538
 ---------------------------------------------------------------------

 SCF Done:  E(RPBE1PBE) =  -3005.32962464     A.U. after   15 cycles

 Excitation energies and oscillator strengths:

 Excited State   1:      Singlet-A      1.8369 eV  674.95 nm  f=0.3457  <S**2>=0.000
     245 -> 248       -0.18369
     246 -> 247        0.69064
     246 <- 247       -0.10720
 This state for optimization and/or second-order correction.
 Total Energy, E(TD-HF/TD-DFT) =  -3005.26211804
 Copying the excited state density for this state as the 1-particle RhoCI density.

 Excited State   2:      Singlet-A      2.1789 eV  569.01 nm  f=0.0967  <S**2>=0.000
     245 -> 247        0.64512
     246 -> 248        0.27750

 Excited State   3:      Singlet-A      2.8826 eV  430.11 nm  f=0.0001  <S**2>=0.000
     242 -> 247        0.63465
     242 -> 249        0.13763
     243 -> 247       -0.24353

 Excited State   4:      Singlet-A      2.9715 eV  417.24 nm  f=0.0005  <S**2>=0.000
     241 -> 247       -0.38295
     242 -> 247        0.23157
     243 -> 247        0.53243

 Excited State   5:      Singlet-A      3.0440 eV  407.31 nm  f=0.0001  <S**2>=0.000
     241 -> 247        0.55478
     243 -> 247        0.35216
     246 -> 248        0.19013

 The electronic state is 1-A.
 Alpha  occ. eigenvalues --  -46.93191 -19.26217 -19.25218 -19.20712 -19.20000
 Alpha  occ. eigenvalues --  -19.19722 -19.19023 -14.42408 -14.42323 -14.39908
 Alpha  occ. eigenvalues --  -14.38860 -10.37135 -10.36044 -10.33448 -10.31976
 Alpha  occ. eigenvalues --  -10.29779 -10.29749 -10.29362 -10.29276 -10.29265
 Alpha  occ. eigenvalues --  -10.29006 -10.28989 -10.28163 -10.27137 -10.26828
 Alpha  occ. eigenvalues --  -10.26712 -10.26320 -10.26289 -10.26089 -10.26070
 Alpha  occ. eigenvalues --  -10.25908 -10.25785 -10.25747 -10.25516 -10.25389
 Alpha  occ. eigenvalues --  -10.25325 -10.25321 -10.24985 -10.24718 -10.24602
 Alpha  occ. eigenvalues --  -10.24441 -10.23998 -10.23863 -10.23613 -10.23530
 Alpha  occ. eigenvalues --  -10.23498 -10.23343 -10.23272 -10.23264 -10.23189
 Alpha  occ. eigenvalues --  -10.23159 -10.23077 -10.23044 -10.22640 -10.22553
 Alpha  occ. eigenvalues --  -10.22184 -10.22076 -10.21986 -10.21883 -10.21769
 Alpha  occ. eigenvalues --  -10.21688 -10.21607 -10.21530 -10.21419 -10.21377
 Alpha  occ. eigenvalues --  -10.21161  -3.15190  -1.87997  -1.87571  -1.87409
 Alpha  occ. eigenvalues --   -1.10167  -1.09103  -1.05958  -1.04314  -1.02571
 Alpha  occ. eigenvalues --   -1.01270  -0.98897  -0.98254  -0.97624  -0.96764
 Alpha  occ. eigenvalues --   -0.87181  -0.84736  -0.84378  -0.84187  -0.83740
 Alpha  occ. eigenvalues --   -0.83000  -0.82465  -0.81888  -0.81589  -0.81482
 Alpha  occ. eigenvalues --   -0.80802  -0.79944  -0.78841  -0.78286  -0.77630
 Alpha  occ. eigenvalues --   -0.76735  -0.76350  -0.75143  -0.74806  -0.74636
 Alpha  occ. eigenvalues --   -0.74136  -0.72926  -0.72394  -0.71833  -0.70375
 Alpha  occ. eigenvalues --   -0.69729  -0.69642  -0.69325  -0.68816  -0.68449
 Alpha  occ. eigenvalues --   -0.67695  -0.67038  -0.66593  -0.65035  -0.63724
 Alpha  occ. eigenvalues --   -0.62948  -0.62583  -0.61643  -0.60731  -0.60322
 Alpha  occ. eigenvalues --   -0.59958  -0.59907  -0.59584  -0.59073  -0.58692
 Alpha  occ. eigenvalues --   -0.57918  -0.57389  -0.56841  -0.56060  -0.54460
 Alpha  occ. eigenvalues --   -0.54328  -0.54053  -0.53609  -0.53205  -0.52457
 Alpha  occ. eigenvalues --   -0.52026  -0.51164  -0.51016  -0.50519  -0.49822
 Alpha  occ. eigenvalues --   -0.49332  -0.49118  -0.49030  -0.48568  -0.48316
 Alpha  occ. eigenvalues --   -0.48104  -0.48040  -0.47669  -0.47465  -0.47186
 Alpha  occ. eigenvalues --   -0.47107  -0.46810  -0.46595  -0.46484  -0.46365
 Alpha  occ. eigenvalues --   -0.46183  -0.46029  -0.45909  -0.45539  -0.45302
 Alpha  occ. eigenvalues --   -0.45092  -0.44952  -0.44753  -0.44604  -0.44509
 Alpha  occ. eigenvalues --   -0.44232  -0.44027  -0.43965  -0.43708  -0.43493
 Alpha  occ. eigenvalues --   -0.43370  -0.43039  -0.42627  -0.42547  -0.42487
 Alpha  occ. eigenvalues --   -0.42219  -0.42069  -0.41881  -0.41795  -0.41335
 Alpha  occ. eigenvalues --   -0.41290  -0.41104  -0.41077  -0.40848  -0.40726
 Alpha  occ. eigenvalues --   -0.40393  -0.40253  -0.40049  -0.39795  -0.39675
 Alpha  occ. eigenvalues --   -0.39621  -0.39239  -0.39111  -0.38790  -0.38488
 Alpha  occ. eigenvalues --   -0.38468  -0.38432  -0.38339  -0.38293  -0.37955
 Alpha  occ. eigenvalues --   -0.37711  -0.37565  -0.37343  -0.37191  -0.37162
 Alpha  occ. eigenvalues --   -0.36922  -0.36557  -0.36428  -0.36182  -0.36117
 Alpha  occ. eigenvalues --   -0.35871  -0.35676  -0.35508  -0.35449  -0.35173
 Alpha  occ. eigenvalues --   -0.34802  -0.34492  -0.34226  -0.34095  -0.33652
 Alpha  occ. eigenvalues --   -0.33542  -0.32865  -0.32835  -0.32310  -0.32257
 Alpha  occ. eigenvalues --   -0.32110  -0.31714  -0.31409  -0.31233  -0.31227
 Alpha  occ. eigenvalues --   -0.30963  -0.30458  -0.30075  -0.29868  -0.29324
 Alpha  occ. eigenvalues --   -0.29025  -0.28775  -0.28555  -0.26981  -0.26017
 Alpha  occ. eigenvalues --   -0.25639  -0.25536  -0.25388  -0.24737  -0.21337
 Alpha  occ. eigenvalues --   -0.19148
 Alpha virt. eigenvalues --   -0.11598  -0.05972  -0.04223  -0.02335  -0.01588
 Alpha virt. eigenvalues --   -0.00629  -0.00282   0.00659   0.00903   0.02073
 Alpha virt. eigenvalues --    0.04089   0.04286   0.04743   0.04761   0.05473

 Mulliken charges:
               1
     1  Mg   0.972602
     2  C   -0.013220
     3  C   -0.087635
     4  C   -0.090710
     5  C   -0.071430
     6  N   -0.391995
     7  C    0.043393
     8  C   -0.072278
     9  C   -0.158259
    10  C    0.101369
    11  C    0.033536
    12  C   -0.003371
    13  C    0.032518
    14  C    0.238428
    15  O   -0.252415
    16  O   -0.387367
    17  N   -0.508809
    18  C    0.198399
    19  C   -0.227213
    20  C   -0.076455
    21  C    0.135326
    22  C    0.078504
    23  C    0.082647
    24  O   -0.218445
    25  C   -0.061972
    26  N   -0.406818
    27  C    0.130475
    28  C   -0.110106
    29  C   -0.087314
    30  C    0.089277
    31  C    0.005982
    32  C   -0.012715
    33  C   -0.060783
    34  N   -0.450931
    35  C    0.089249
    36  C   -0.144603
    37  C   -0.079703
    38  C    0.156299
    39  C    0.073483
    40  C    0.174120
    41  O   -0.206885
    42  C   -0.141829
    43  C    0.285099
    44  O   -0.252036
    45  O   -0.399270
    46  C    0.101433
    47  C    0.266646
    48  C   -0.128553
    49  C   -0.262092
    50  C    0.013770
    51  C    0.024116
    52  C   -0.053116
    53  C    0.011041
    54  C   -0.240355
    55  C   -0.021155
    56  C    0.003644
    57  C   -0.030252
    58  C    0.005789
    59  C   -0.212681
    60  C   -0.011817
    61  C    0.043916
    62  C   -0.114307
    63  C    0.029584
    64  C   -0.232003
    65  C    0.003393
    66  C   -0.035721
    67  H    0.017174
    68  H    0.031135
    69  H    0.012754
    70  H    0.035435
    71  H    0.040733
    72  H    0.043953
    73  H    0.047241
    74  H    0.053862
    75  H    0.047031
    76  H    0.048505
    77  H    0.056294
    78  H    0.043580
    79  H    0.074657
    80  H    0.030620
    81  H    0.069386
    82  H    0.070211
    83  H    0.052452
    84  H    0.054599
    85  H    0.056438
    86  H    0.048084
    87  H    0.040201
    88  H    0.046254
    89  H    0.022908
    90  H    0.041430
    91  H    0.033234
    92  H    0.029382
    93  H    0.033061
    94  H    0.049377
    95  H    0.033685
    96  H    0.078166
    97  H    0.051499
    98  H    0.072076
    99  H    0.069765
   100  H    0.070830
   101  H    0.071235
   102  H    0.047161
   103  H    0.030134
   104  H    0.026364
   105  H    0.035897
   106  H    0.074678
   107  H    0.045676
   108  H    0.027460
   109  H    0.052516
   110  H    0.031671
   111  H    0.022129
   112  H    0.023367
   113  H    0.045828
   114  H    0.034317
   115  H    0.034951
   116  H    0.033458
   117  H    0.027633
   118  H    0.028941
   119  H    0.030517
   120  H    0.035847
   121  H    0.040049
   122  H    0.008802
   123  H    0.003039
   124  H    0.019270
   125  H    0.032333
   126  H    0.027605
   127  H    0.031709
   128  H    0.014831
   129  H    0.024572
   130  H    0.030060
   131  H    0.015681
   132  H    0.020626
   133  H    0.025287
   134  H    0.039735
   135  H    0.038218
   136  H    0.036837
   137  H    0.022613
   138  H    0.038791
   139  H    0.023628
   140  H    0.033105
 Sum of Mulliken charges =  -0.00000

 Dipole moment (field-independent basis, Debye):
    X=              1.0662    Y=              3.4698    Z=              0.6803  Tot=              3.6931
 Quadrupole moment (field-independent basis, Debye-Ang):
   XX=           -395.4150   YY=           -415.4266   ZZ=           -392.8722
   XY=            -61.5481   XZ=             -4.4410   YZ=            -34.3128

 Normal termination of Gaussian 16 at Wed Apr 27 02:33:22 2022.
