 Gaussian 16, Revision A.03,
 Gaussian 16:  ES64L-G16RevA.03 25-Dec-2016

 --------------------------------
 #p wB97XD/Def2SVP td=(nstates=5)
 --------------------------------

 -----------------------------------------------------
 step_1051_chromophore_17 TDDFT with wB97XD functional
 -----------------------------------------------------
 Symbolic Z-matrix:
 Charge =  0 Multiplicity = 1

                         Standard orientation:
 ---------------------------------------------------------------------
 Center     Atomic      Atomic             Coordinates (Angstroms)
 Number     Number       Type             X           Y           Z
 ---------------------------------------------------------------------
      1         12           0       -4.584719    1.284082    0.636611
      2          6           0       -4.702955   -2.142635    0.109443
      3          6           0       -1.744404    0.825259    2.640405
      4          6           0       -3.835658    4.600030    0.264609
      5          6           0       -6.898578    1.577292   -2.084285
      6          7           0       -3.378486   -0.524249    1.202811
      7          6           0       -3.674816   -1.824900    0.972426
      8          6           0       -2.605368   -2.719812    1.636307
      9          6           0       -2.012753   -1.739966    2.731880
     10          6           0       -2.313494   -0.386067    2.100775
     11          6           0       -2.444542   -1.969643    4.220811
     12          6           0       -1.520644   -3.336731    0.681985
     13          6           0       -0.764710   -4.591905    1.121448
     14          6           0        0.213519   -5.157608    0.089816
     15          8           0       -0.107902   -6.052277   -0.674587
     16          8           0        1.411692   -4.415398   -0.038110
     17          7           0       -3.141812    2.544302    1.494865
     18          6           0       -2.049288    2.127138    2.224574
     19          6           0       -1.284729    3.348052    2.545369
     20          6           0       -1.923763    4.481438    1.980907
     21          6           0       -3.017716    3.915460    1.218799
     22          6           0       -0.037375    3.339639    3.374860
     23          6           0       -1.486790    5.963849    2.206307
     24          8           0       -0.465857    6.294013    2.766353
     25          6           0       -2.373440    7.169173    1.773289
     26          7           0       -5.192343    2.798787   -0.693377
     27          6           0       -4.864807    4.106530   -0.506349
     28          6           0       -5.646241    5.043822   -1.484539
     29          6           0       -6.728160    4.126247   -2.109045
     30          6           0       -6.240775    2.734243   -1.581032
     31          6           0       -6.289705    6.329056   -0.930575
     32          6           0       -7.014023    4.210675   -3.597904
     33          6           0       -8.352195    4.607454   -4.037290
     34          7           0       -5.726030    0.022580   -0.656110
     35          6           0       -6.671965    0.262842   -1.656637
     36          6           0       -7.258412   -0.924834   -2.172510
     37          6           0       -6.545185   -1.951787   -1.460023
     38          6           0       -5.615581   -1.302130   -0.551673
     39          6           0       -8.461435   -1.117748   -3.027978
     40          6           0       -6.426600   -3.376892   -1.250416
     41          8           0       -7.014207   -4.370213   -1.641511
     42          6           0       -5.199427   -3.494364   -0.234966
     43          6           0       -5.654191   -4.167733    1.038513
     44          8           0       -6.419541   -3.697033    1.866200
     45          8           0       -5.034060   -5.419024    1.165315
     46          6           0       -5.145674   -6.072720    2.557615
     47          6           0        2.249312   -4.805987   -1.194839
     48          6           0        3.715379   -4.300263   -1.122922
     49          6           0        4.956699   -4.890172   -1.324203
     50          6           0        5.124204   -6.258342   -2.001577
     51          6           0        6.232726   -4.092309   -0.988772
     52          6           0        6.321251   -2.766006   -1.752963
     53          6           0        6.068327   -1.534888   -0.930598
     54          6           0        7.096183   -0.451697   -1.192264
     55          6           0        6.791224    0.226821   -2.581138
     56          6           0        7.194664    0.533240   -0.029015
     57          6           0        8.247156    0.010694    1.077267
     58          6           0        9.107063    1.201035    1.556709
     59          6           0       10.583411    1.040227    1.871488
     60          6           0       10.944158    1.146681    3.327746
     61          6           0       11.566821    1.796347    0.986257
     62          6           0       12.032002    0.943531   -0.156916
     63          6           0       13.020727    1.747188   -1.051996
     64          6           0       12.181036    2.557601   -2.102185
     65          6           0       12.411138    2.131465   -3.559163
     66          6           0       12.370670    4.072466   -1.931405
     67          1           0       -0.942253    0.718843    3.374737
     68          1           0       -3.338450    5.513695   -0.064209
     69          1           0       -7.855408    1.625131   -2.608512
     70          1           0       -3.153493   -3.548969    2.083681
     71          1           0       -0.927189   -1.835504    2.760580
     72          1           0       -3.229366   -1.308103    4.590395
     73          1           0       -1.551117   -1.623159    4.741157
     74          1           0       -2.829135   -2.981645    4.346547
     75          1           0       -0.804261   -2.545637    0.461852
     76          1           0       -2.026312   -3.555890   -0.259064
     77          1           0       -1.471641   -5.354855    1.447503
     78          1           0       -0.165277   -4.336867    1.995485
     79          1           0        0.671223    4.025427    2.910901
     80          1           0        0.384681    2.335491    3.352660
     81          1           0       -0.392403    3.586206    4.375407
     82          1           0       -2.357809    7.476442    0.727824
     83          1           0       -2.171738    8.101238    2.299518
     84          1           0       -3.378055    6.874187    2.078752
     85          1           0       -4.919749    5.355426   -2.234978
     86          1           0       -7.687070    4.277359   -1.613400
     87          1           0       -5.944705    6.630764    0.057701
     88          1           0       -7.369156    6.467555   -0.999510
     89          1           0       -5.929339    7.164960   -1.530893
     90          1           0       -6.888642    3.192891   -3.967784
     91          1           0       -6.318643    4.863392   -4.123836
     92          1           0       -9.138688    4.543456   -3.284970
     93          1           0       -8.722694    3.850200   -4.727220
     94          1           0       -8.279503    5.589680   -4.504331
     95          1           0       -9.143453   -0.268978   -3.039687
     96          1           0       -8.977384   -2.042339   -2.766884
     97          1           0       -8.149891   -1.126490   -4.072356
     98          1           0       -4.381932   -4.087971   -0.644560
     99          1           0       -5.418767   -5.313132    3.290093
    100          1           0       -4.150505   -6.515972    2.572228
    101          1           0       -5.920599   -6.824178    2.707685
    102          1           0        1.777536   -4.568564   -2.147708
    103          1           0        2.376830   -5.868933   -1.402109
    104          1           0        3.800169   -3.300140   -0.695306
    105          1           0        6.033633   -6.717492   -1.613153
    106          1           0        5.012156   -6.182050   -3.082844
    107          1           0        4.397037   -6.951556   -1.578814
    108          1           0        7.186050   -4.583073   -1.190330
    109          1           0        6.159219   -3.899873    0.081549
    110          1           0        5.581839   -2.899212   -2.542267
    111          1           0        7.222354   -2.758416   -2.366198
    112          1           0        6.200093   -1.809601    0.116400
    113          1           0        5.045237   -1.187054   -1.075614
    114          1           0        8.093510   -0.856605   -1.365777
    115          1           0        5.941922   -0.143882   -3.154367
    116          1           0        7.698247    0.119180   -3.175516
    117          1           0        6.556773    1.287011   -2.480018
    118          1           0        6.233935    0.609807    0.479190
    119          1           0        7.424712    1.522652   -0.424066
    120          1           0        8.893517   -0.758111    0.654877
    121          1           0        7.731349   -0.391337    1.948867
    122          1           0        8.653549    1.714363    2.404492
    123          1           0        9.010128    2.036871    0.864299
    124          1           0       10.786998   -0.019345    1.718918
    125          1           0       11.809673    0.526741    3.564488
    126          1           0       10.071863    0.774580    3.863347
    127          1           0       11.196587    2.159635    3.642356
    128          1           0       12.418906    2.073155    1.606835
    129          1           0       11.070747    2.675781    0.574390
    130          1           0       11.165117    0.511946   -0.658520
    131          1           0       12.556285    0.043596    0.165945
    132          1           0       13.639630    0.929427   -1.422816
    133          1           0       13.736220    2.354269   -0.496187
    134          1           0       11.114860    2.491167   -1.886030
    135          1           0       12.952847    2.834489   -4.190326
    136          1           0       11.432767    1.858285   -3.954203
    137          1           0       13.022877    1.229295   -3.538824
    138          1           0       11.781933    4.534322   -1.137701
    139          1           0       12.048522    4.584228   -2.838728
    140          1           0       13.435790    4.292197   -1.853538
 ---------------------------------------------------------------------

 SCF Done:  E(RwB97XD) =  -3007.83688762     A.U. after   18 cycles

 Excitation energies and oscillator strengths:

 Excited State   1:      Singlet-A      1.6292 eV  761.01 nm  f=0.3609  <S**2>=0.000
     245 -> 248       -0.19283
     246 -> 247        0.68198
     245 <- 248       -0.11966
 This state for optimization and/or second-order correction.
 Total Energy, E(TD-HF/TD-DFT) =  -3007.77701504
 Copying the excited state density for this state as the 1-particle RhoCI density.

 Excited State   2:      Singlet-A      2.1165 eV  585.80 nm  f=0.0913  <S**2>=0.000
     245 -> 247        0.62982
     246 -> 248        0.30734

 Excited State   3:      Singlet-A      3.3259 eV  372.78 nm  f=0.0051  <S**2>=0.000
     242 -> 247        0.53994
     243 -> 247        0.41047

 Excited State   4:      Singlet-A      3.3666 eV  368.28 nm  f=0.1839  <S**2>=0.000
     242 -> 247       -0.27080
     243 -> 247        0.41409
     245 -> 247       -0.15418
     246 -> 248        0.44636

 Excited State   5:      Singlet-A      3.4847 eV  355.80 nm  f=0.0279  <S**2>=0.000
     241 -> 247        0.57157
     241 -> 249        0.27669
     241 -> 250       -0.21654
     246 -> 248        0.12004

 The electronic state is 1-A.
 Alpha  occ. eigenvalues --  -46.96146 -19.30773 -19.29742 -19.25379 -19.24683
 Alpha  occ. eigenvalues --  -19.24648 -19.23709 -14.47481 -14.47420 -14.44949
 Alpha  occ. eigenvalues --  -14.43698 -10.43902 -10.42834 -10.40370 -10.38748
 Alpha  occ. eigenvalues --  -10.36242 -10.36229 -10.35880 -10.35740 -10.35617
 Alpha  occ. eigenvalues --  -10.35351 -10.35182 -10.34743 -10.33198 -10.33090
 Alpha  occ. eigenvalues --  -10.32996 -10.32843 -10.32618 -10.32462 -10.32324
 Alpha  occ. eigenvalues --  -10.32301 -10.32176 -10.32107 -10.31872 -10.31865
 Alpha  occ. eigenvalues --  -10.31659 -10.31543 -10.31338 -10.31131 -10.30883
 Alpha  occ. eigenvalues --  -10.30840 -10.30290 -10.30236 -10.30176 -10.30033
 Alpha  occ. eigenvalues --  -10.29824 -10.29796 -10.29633 -10.29609 -10.29522
 Alpha  occ. eigenvalues --  -10.29451 -10.29443 -10.29326 -10.28984 -10.28912
 Alpha  occ. eigenvalues --  -10.28536 -10.28465 -10.28355 -10.28259 -10.28106
 Alpha  occ. eigenvalues --  -10.28064 -10.27985 -10.27961 -10.27821 -10.27811
 Alpha  occ. eigenvalues --  -10.27616  -3.22026  -1.95578  -1.95154  -1.94988
 Alpha  occ. eigenvalues --   -1.17541  -1.16492  -1.13536  -1.11678  -1.09905
 Alpha  occ. eigenvalues --   -1.08616  -1.06247  -1.05656  -1.04966  -1.04244
 Alpha  occ. eigenvalues --   -0.94733  -0.92405  -0.91909  -0.91853  -0.91395
 Alpha  occ. eigenvalues --   -0.90678  -0.90139  -0.89503  -0.89251  -0.88960
 Alpha  occ. eigenvalues --   -0.88616  -0.87605  -0.86404  -0.85938  -0.85254
 Alpha  occ. eigenvalues --   -0.84393  -0.84003  -0.82904  -0.82517  -0.82265
 Alpha  occ. eigenvalues --   -0.81796  -0.80536  -0.80047  -0.79494  -0.77982
 Alpha  occ. eigenvalues --   -0.77396  -0.77234  -0.77033  -0.76501  -0.76117
 Alpha  occ. eigenvalues --   -0.75238  -0.74634  -0.74147  -0.72650  -0.71258
 Alpha  occ. eigenvalues --   -0.70438  -0.70223  -0.69268  -0.68377  -0.67798
 Alpha  occ. eigenvalues --   -0.67562  -0.67451  -0.67112  -0.66465  -0.66159
 Alpha  occ. eigenvalues --   -0.65592  -0.65047  -0.64489  -0.63458  -0.61921
 Alpha  occ. eigenvalues --   -0.61796  -0.61416  -0.61014  -0.60610  -0.59880
 Alpha  occ. eigenvalues --   -0.59513  -0.58526  -0.58461  -0.57933  -0.57152
 Alpha  occ. eigenvalues --   -0.56784  -0.56551  -0.56387  -0.55903  -0.55737
 Alpha  occ. eigenvalues --   -0.55507  -0.55373  -0.55128  -0.54746  -0.54554
 Alpha  occ. eigenvalues --   -0.54517  -0.54240  -0.54171  -0.53882  -0.53821
 Alpha  occ. eigenvalues --   -0.53530  -0.53395  -0.53300  -0.52900  -0.52617
 Alpha  occ. eigenvalues --   -0.52543  -0.52230  -0.52053  -0.51950  -0.51860
 Alpha  occ. eigenvalues --   -0.51573  -0.51409  -0.51294  -0.50984  -0.50757
 Alpha  occ. eigenvalues --   -0.50640  -0.50297  -0.49882  -0.49798  -0.49673
 Alpha  occ. eigenvalues --   -0.49504  -0.49296  -0.49123  -0.49034  -0.48607
 Alpha  occ. eigenvalues --   -0.48568  -0.48381  -0.48260  -0.48076  -0.47959
 Alpha  occ. eigenvalues --   -0.47575  -0.47525  -0.47217  -0.46975  -0.46854
 Alpha  occ. eigenvalues --   -0.46777  -0.46429  -0.46226  -0.45936  -0.45680
 Alpha  occ. eigenvalues --   -0.45669  -0.45565  -0.45525  -0.45380  -0.45077
 Alpha  occ. eigenvalues --   -0.44837  -0.44811  -0.44420  -0.44306  -0.44270
 Alpha  occ. eigenvalues --   -0.44003  -0.43705  -0.43472  -0.43301  -0.43089
 Alpha  occ. eigenvalues --   -0.42982  -0.42674  -0.42635  -0.42477  -0.42305
 Alpha  occ. eigenvalues --   -0.41781  -0.41441  -0.41291  -0.41159  -0.40627
 Alpha  occ. eigenvalues --   -0.40609  -0.39939  -0.39836  -0.39373  -0.39240
 Alpha  occ. eigenvalues --   -0.39171  -0.38790  -0.38364  -0.38245  -0.38238
 Alpha  occ. eigenvalues --   -0.38017  -0.37389  -0.36962  -0.36642  -0.36226
 Alpha  occ. eigenvalues --   -0.36102  -0.35599  -0.35457  -0.33540  -0.33217
 Alpha  occ. eigenvalues --   -0.32513  -0.32429  -0.31740  -0.31479  -0.26349
 Alpha  occ. eigenvalues --   -0.23297
 Alpha virt. eigenvalues --   -0.07461  -0.00620   0.02054   0.04168   0.04505
 Alpha virt. eigenvalues --    0.06158   0.06405   0.07460   0.07755   0.08724
 Alpha virt. eigenvalues --    0.10699   0.11103   0.11340   0.11408   0.12244

 Mulliken charges:
               1
     1  Mg   0.965187
     2  C    0.004711
     3  C   -0.105690
     4  C   -0.111023
     5  C   -0.089483
     6  N   -0.358351
     7  C   -0.000288
     8  C   -0.035981
     9  C   -0.131471
    10  C    0.084628
    11  C    0.041787
    12  C    0.007202
    13  C    0.048903
    14  C    0.230382
    15  O   -0.250750
    16  O   -0.387605
    17  N   -0.479479
    18  C    0.192905
    19  C   -0.213178
    20  C   -0.075113
    21  C    0.138209
    22  C    0.091546
    23  C    0.076886
    24  O   -0.213740
    25  C   -0.047324
    26  N   -0.375987
    27  C    0.122387
    28  C   -0.086111
    29  C   -0.060976
    30  C    0.077968
    31  C    0.015821
    32  C    0.005203
    33  C   -0.047859
    34  N   -0.414795
    35  C    0.085899
    36  C   -0.144627
    37  C   -0.077297
    38  C    0.126825
    39  C    0.082984
    40  C    0.158337
    41  O   -0.198484
    42  C   -0.103059
    43  C    0.262447
    44  O   -0.247884
    45  O   -0.399023
    46  C    0.117900
    47  C    0.284791
    48  C   -0.137701
    49  C   -0.243937
    50  C    0.026807
    51  C    0.038021
    52  C   -0.036503
    53  C    0.029126
    54  C   -0.205556
    55  C   -0.013250
    56  C    0.018912
    57  C   -0.012124
    58  C    0.017890
    59  C   -0.180351
    60  C    0.001819
    61  C    0.058546
    62  C   -0.088015
    63  C    0.040451
    64  C   -0.202264
    65  C    0.014569
    66  C   -0.023173
    67  H    0.012946
    68  H    0.021210
    69  H    0.003263
    70  H    0.012839
    71  H    0.029731
    72  H    0.038468
    73  H    0.041857
    74  H    0.049373
    75  H    0.039298
    76  H    0.038520
    77  H    0.051978
    78  H    0.036692
    79  H    0.071526
    80  H    0.025169
    81  H    0.065738
    82  H    0.067564
    83  H    0.051263
    84  H    0.046744
    85  H    0.046648
    86  H    0.032909
    87  H    0.033176
    88  H    0.041412
    89  H    0.017167
    90  H    0.030815
    91  H    0.026113
    92  H    0.023236
    93  H    0.027639
    94  H    0.044105
    95  H    0.027711
    96  H    0.074737
    97  H    0.045572
    98  H    0.064481
    99  H    0.065563
   100  H    0.067666
   101  H    0.067909
   102  H    0.042729
   103  H    0.021321
   104  H    0.018187
   105  H    0.030613
   106  H    0.070190
   107  H    0.039359
   108  H    0.022146
   109  H    0.043308
   110  H    0.019536
   111  H    0.014868
   112  H    0.009326
   113  H    0.037703
   114  H    0.019420
   115  H    0.029401
   116  H    0.028249
   117  H    0.021766
   118  H    0.020539
   119  H    0.020693
   120  H    0.024449
   121  H    0.033156
   122  H    0.000752
   123  H   -0.009391
   124  H    0.002853
   125  H    0.026705
   126  H    0.020692
   127  H    0.025516
   128  H    0.006057
   129  H    0.009933
   130  H    0.016652
   131  H    0.007648
   132  H    0.013003
   133  H    0.017762
   134  H    0.025839
   135  H    0.033186
   136  H    0.031846
   137  H    0.015655
   138  H    0.033728
   139  H    0.017109
   140  H    0.025859
 Sum of Mulliken charges =  -0.00000

 Dipole moment (field-independent basis, Debye):
    X=              1.3601    Y=              3.6865    Z=              1.0028  Tot=              4.0554
 Quadrupole moment (field-independent basis, Debye-Ang):
   XX=           -397.7296   YY=           -413.7522   ZZ=           -392.2349
   XY=            -61.6523   XZ=             -5.9831   YZ=            -33.8215

 Normal termination of Gaussian 16 at Wed Apr 27 02:59:06 2022.
