 Gaussian 16, Revision A.03,
 Gaussian 16:  ES64L-G16RevA.03 25-Dec-2016

 --------------------
 #p ZINDO=(nstates=5)
 --------------------

 ------------------------------
 step_1051_chromophore_17 ZINDO
 ------------------------------
 Symbolic Z-matrix:
 Charge =  0 Multiplicity = 1

                         Standard orientation:
 ---------------------------------------------------------------------
 Center     Atomic      Atomic             Coordinates (Angstroms)
 Number     Number       Type             X           Y           Z
 ---------------------------------------------------------------------
      1         12           0       -4.584719    1.284082    0.636611
      2          6           0       -4.702955   -2.142635    0.109443
      3          6           0       -1.744404    0.825259    2.640405
      4          6           0       -3.835658    4.600030    0.264609
      5          6           0       -6.898578    1.577292   -2.084285
      6          7           0       -3.378486   -0.524249    1.202811
      7          6           0       -3.674816   -1.824900    0.972426
      8          6           0       -2.605368   -2.719812    1.636307
      9          6           0       -2.012753   -1.739966    2.731880
     10          6           0       -2.313494   -0.386067    2.100775
     11          6           0       -2.444542   -1.969643    4.220811
     12          6           0       -1.520644   -3.336731    0.681985
     13          6           0       -0.764710   -4.591905    1.121448
     14          6           0        0.213519   -5.157608    0.089816
     15          8           0       -0.107902   -6.052277   -0.674587
     16          8           0        1.411692   -4.415398   -0.038110
     17          7           0       -3.141812    2.544302    1.494865
     18          6           0       -2.049288    2.127138    2.224574
     19          6           0       -1.284729    3.348052    2.545369
     20          6           0       -1.923763    4.481438    1.980907
     21          6           0       -3.017716    3.915460    1.218799
     22          6           0       -0.037375    3.339639    3.374860
     23          6           0       -1.486790    5.963849    2.206307
     24          8           0       -0.465857    6.294013    2.766353
     25          6           0       -2.373440    7.169173    1.773289
     26          7           0       -5.192343    2.798787   -0.693377
     27          6           0       -4.864807    4.106530   -0.506349
     28          6           0       -5.646241    5.043822   -1.484539
     29          6           0       -6.728160    4.126247   -2.109045
     30          6           0       -6.240775    2.734243   -1.581032
     31          6           0       -6.289705    6.329056   -0.930575
     32          6           0       -7.014023    4.210675   -3.597904
     33          6           0       -8.352195    4.607454   -4.037290
     34          7           0       -5.726030    0.022580   -0.656110
     35          6           0       -6.671965    0.262842   -1.656637
     36          6           0       -7.258412   -0.924834   -2.172510
     37          6           0       -6.545185   -1.951787   -1.460023
     38          6           0       -5.615581   -1.302130   -0.551673
     39          6           0       -8.461435   -1.117748   -3.027978
     40          6           0       -6.426600   -3.376892   -1.250416
     41          8           0       -7.014207   -4.370213   -1.641511
     42          6           0       -5.199427   -3.494364   -0.234966
     43          6           0       -5.654191   -4.167733    1.038513
     44          8           0       -6.419541   -3.697033    1.866200
     45          8           0       -5.034060   -5.419024    1.165315
     46          6           0       -5.145674   -6.072720    2.557615
     47          6           0        2.249312   -4.805987   -1.194839
     48          6           0        3.715379   -4.300263   -1.122922
     49          6           0        4.956699   -4.890172   -1.324203
     50          6           0        5.124204   -6.258342   -2.001577
     51          6           0        6.232726   -4.092309   -0.988772
     52          6           0        6.321251   -2.766006   -1.752963
     53          6           0        6.068327   -1.534888   -0.930598
     54          6           0        7.096183   -0.451697   -1.192264
     55          6           0        6.791224    0.226821   -2.581138
     56          6           0        7.194664    0.533240   -0.029015
     57          6           0        8.247156    0.010694    1.077267
     58          6           0        9.107063    1.201035    1.556709
     59          6           0       10.583411    1.040227    1.871488
     60          6           0       10.944158    1.146681    3.327746
     61          6           0       11.566821    1.796347    0.986257
     62          6           0       12.032002    0.943531   -0.156916
     63          6           0       13.020727    1.747188   -1.051996
     64          6           0       12.181036    2.557601   -2.102185
     65          6           0       12.411138    2.131465   -3.559163
     66          6           0       12.370670    4.072466   -1.931405
     67          1           0       -0.942253    0.718843    3.374737
     68          1           0       -3.338450    5.513695   -0.064209
     69          1           0       -7.855408    1.625131   -2.608512
     70          1           0       -3.153493   -3.548969    2.083681
     71          1           0       -0.927189   -1.835504    2.760580
     72          1           0       -3.229366   -1.308103    4.590395
     73          1           0       -1.551117   -1.623159    4.741157
     74          1           0       -2.829135   -2.981645    4.346547
     75          1           0       -0.804261   -2.545637    0.461852
     76          1           0       -2.026312   -3.555890   -0.259064
     77          1           0       -1.471641   -5.354855    1.447503
     78          1           0       -0.165277   -4.336867    1.995485
     79          1           0        0.671223    4.025427    2.910901
     80          1           0        0.384681    2.335491    3.352660
     81          1           0       -0.392403    3.586206    4.375407
     82          1           0       -2.357809    7.476442    0.727824
     83          1           0       -2.171738    8.101238    2.299518
     84          1           0       -3.378055    6.874187    2.078752
     85          1           0       -4.919749    5.355426   -2.234978
     86          1           0       -7.687070    4.277359   -1.613400
     87          1           0       -5.944705    6.630764    0.057701
     88          1           0       -7.369156    6.467555   -0.999510
     89          1           0       -5.929339    7.164960   -1.530893
     90          1           0       -6.888642    3.192891   -3.967784
     91          1           0       -6.318643    4.863392   -4.123836
     92          1           0       -9.138688    4.543456   -3.284970
     93          1           0       -8.722694    3.850200   -4.727220
     94          1           0       -8.279503    5.589680   -4.504331
     95          1           0       -9.143453   -0.268978   -3.039687
     96          1           0       -8.977384   -2.042339   -2.766884
     97          1           0       -8.149891   -1.126490   -4.072356
     98          1           0       -4.381932   -4.087971   -0.644560
     99          1           0       -5.418767   -5.313132    3.290093
    100          1           0       -4.150505   -6.515972    2.572228
    101          1           0       -5.920599   -6.824178    2.707685
    102          1           0        1.777536   -4.568564   -2.147708
    103          1           0        2.376830   -5.868933   -1.402109
    104          1           0        3.800169   -3.300140   -0.695306
    105          1           0        6.033633   -6.717492   -1.613153
    106          1           0        5.012156   -6.182050   -3.082844
    107          1           0        4.397037   -6.951556   -1.578814
    108          1           0        7.186050   -4.583073   -1.190330
    109          1           0        6.159219   -3.899873    0.081549
    110          1           0        5.581839   -2.899212   -2.542267
    111          1           0        7.222354   -2.758416   -2.366198
    112          1           0        6.200093   -1.809601    0.116400
    113          1           0        5.045237   -1.187054   -1.075614
    114          1           0        8.093510   -0.856605   -1.365777
    115          1           0        5.941922   -0.143882   -3.154367
    116          1           0        7.698247    0.119180   -3.175516
    117          1           0        6.556773    1.287011   -2.480018
    118          1           0        6.233935    0.609807    0.479190
    119          1           0        7.424712    1.522652   -0.424066
    120          1           0        8.893517   -0.758111    0.654877
    121          1           0        7.731349   -0.391337    1.948867
    122          1           0        8.653549    1.714363    2.404492
    123          1           0        9.010128    2.036871    0.864299
    124          1           0       10.786998   -0.019345    1.718918
    125          1           0       11.809673    0.526741    3.564488
    126          1           0       10.071863    0.774580    3.863347
    127          1           0       11.196587    2.159635    3.642356
    128          1           0       12.418906    2.073155    1.606835
    129          1           0       11.070747    2.675781    0.574390
    130          1           0       11.165117    0.511946   -0.658520
    131          1           0       12.556285    0.043596    0.165945
    132          1           0       13.639630    0.929427   -1.422816
    133          1           0       13.736220    2.354269   -0.496187
    134          1           0       11.114860    2.491167   -1.886030
    135          1           0       12.952847    2.834489   -4.190326
    136          1           0       11.432767    1.858285   -3.954203
    137          1           0       13.022877    1.229295   -3.538824
    138          1           0       11.781933    4.534322   -1.137701
    139          1           0       12.048522    4.584228   -2.838728
    140          1           0       13.435790    4.292197   -1.853538
 ---------------------------------------------------------------------

 SCF Done:  E(RZINDO/S) =  -474.090250761     A.U. after   19 cycles

 Excitation energies and oscillator strengths:

 Excited State   1:      Singlet-A      1.2555 eV  987.53 nm  f=0.5719  <S**2>=0.000
     175 ->178        -0.19479
     176 ->177         0.66202
 This state for optimization and/or second-order correction.
 Total Energy, E(CIS/TDA) =  -474.044111895
 Copying the excited state density for this state as the 1-particle RhoCI density.

 Excited State   2:      Singlet-A      1.8552 eV  668.29 nm  f=0.0265  <S**2>=0.000
     175 ->177         0.53424
     176 ->178         0.43688

 Excited State   3:      Singlet-A      2.9462 eV  420.82 nm  f=1.0874  <S**2>=0.000
     173 ->177         0.11884
     175 ->177        -0.39831
     176 ->178         0.51424

 Excited State   4:      Singlet-A      2.9612 eV  418.69 nm  f=0.0059  <S**2>=0.000
     176 ->179         0.29914
     176 ->180         0.61048
     176 ->181         0.10876

 Excited State   5:      Singlet-A      3.0200 eV  410.55 nm  f=0.0073  <S**2>=0.000
     168 ->177         0.23191
     168 ->178        -0.11943
     168 ->179        -0.40262
     168 ->181         0.16027
     168 ->182        -0.30939
     168 ->186        -0.24156
     168 ->189         0.10628

 The electronic state is 1-A.
 Alpha  occ. eigenvalues --   -1.83248  -1.79781  -1.78860  -1.70844  -1.69358
 Alpha  occ. eigenvalues --   -1.68835  -1.66883  -1.63086  -1.59496  -1.56855
 Alpha  occ. eigenvalues --   -1.55110  -1.51254  -1.50906  -1.48203  -1.47277
 Alpha  occ. eigenvalues --   -1.43842  -1.42717  -1.39834  -1.39000  -1.38249
 Alpha  occ. eigenvalues --   -1.36178  -1.33867  -1.33294  -1.32114  -1.29423
 Alpha  occ. eigenvalues --   -1.28505  -1.26168  -1.22658  -1.20240  -1.18610
 Alpha  occ. eigenvalues --   -1.17023  -1.15760  -1.14281  -1.14203  -1.13672
 Alpha  occ. eigenvalues --   -1.12206  -1.11357  -1.10261  -1.05418  -1.02867
 Alpha  occ. eigenvalues --   -1.02084  -1.01423  -0.98934  -0.98229  -0.97483
 Alpha  occ. eigenvalues --   -0.95219  -0.94536  -0.93802  -0.93183  -0.92172
 Alpha  occ. eigenvalues --   -0.91563  -0.91398  -0.90258  -0.88174  -0.87525
 Alpha  occ. eigenvalues --   -0.86673  -0.85684  -0.83707  -0.82281  -0.80075
 Alpha  occ. eigenvalues --   -0.79213  -0.78812  -0.76783  -0.76494  -0.76090
 Alpha  occ. eigenvalues --   -0.75132  -0.74522  -0.74452  -0.73873  -0.73605
 Alpha  occ. eigenvalues --   -0.73184  -0.72747  -0.72103  -0.71598  -0.71117
 Alpha  occ. eigenvalues --   -0.70953  -0.70155  -0.69480  -0.68753  -0.68217
 Alpha  occ. eigenvalues --   -0.67358  -0.66722  -0.66213  -0.65804  -0.65470
 Alpha  occ. eigenvalues --   -0.65106  -0.63943  -0.63890  -0.63397  -0.63361
 Alpha  occ. eigenvalues --   -0.63203  -0.62729  -0.62502  -0.62240  -0.62101
 Alpha  occ. eigenvalues --   -0.61747  -0.61541  -0.61306  -0.60834  -0.60647
 Alpha  occ. eigenvalues --   -0.60253  -0.60031  -0.59816  -0.58863  -0.58751
 Alpha  occ. eigenvalues --   -0.58448  -0.57990  -0.57835  -0.57457  -0.57238
 Alpha  occ. eigenvalues --   -0.56139  -0.55687  -0.55461  -0.55102  -0.55005
 Alpha  occ. eigenvalues --   -0.54611  -0.53553  -0.53251  -0.53132  -0.52821
 Alpha  occ. eigenvalues --   -0.52461  -0.52171  -0.51796  -0.51648  -0.51535
 Alpha  occ. eigenvalues --   -0.51311  -0.50664  -0.50540  -0.50310  -0.50175
 Alpha  occ. eigenvalues --   -0.49966  -0.49898  -0.49841  -0.49727  -0.49347
 Alpha  occ. eigenvalues --   -0.49072  -0.48717  -0.48501  -0.48394  -0.47884
 Alpha  occ. eigenvalues --   -0.47546  -0.47384  -0.47209  -0.46699  -0.46528
 Alpha  occ. eigenvalues --   -0.46325  -0.46193  -0.45774  -0.45671  -0.45453
 Alpha  occ. eigenvalues --   -0.45093  -0.44948  -0.44386  -0.43994  -0.43744
 Alpha  occ. eigenvalues --   -0.43632  -0.43091  -0.42893  -0.42577  -0.42264
 Alpha  occ. eigenvalues --   -0.42080  -0.41476  -0.40952  -0.39230  -0.38809
 Alpha  occ. eigenvalues --   -0.38170  -0.37584  -0.36239  -0.34977  -0.34386
 Alpha  occ. eigenvalues --   -0.33585  -0.32648  -0.31858  -0.31556  -0.26926
 Alpha  occ. eigenvalues --   -0.22058
 Alpha virt. eigenvalues --   -0.08766  -0.02832  -0.00643   0.00435   0.00945
 Alpha virt. eigenvalues --    0.01299   0.02172   0.03138   0.03975   0.04152
 Alpha virt. eigenvalues --    0.06077   0.06162   0.07053   0.07634   0.07751

 Mulliken charges:
               1
     1  Mg   0.437774
     2  C   -0.012379
     3  C   -0.072685
     4  C   -0.101255
     5  C   -0.074925
     6  N   -0.278001
     7  C    0.110519
     8  C    0.004473
     9  C    0.001641
    10  C    0.132808
    11  C   -0.049608
    12  C   -0.012345
    13  C    0.016465
    14  C    0.462619
    15  O   -0.498048
    16  O   -0.268216
    17  N   -0.336126
    18  C    0.121231
    19  C    0.050436
    20  C   -0.052744
    21  C    0.142588
    22  C   -0.039531
    23  C    0.329141
    24  O   -0.502081
    25  C   -0.030546
    26  N   -0.259936
    27  C    0.156351
    28  C    0.008137
    29  C   -0.002299
    30  C    0.099375
    31  C   -0.056093
    32  C   -0.022736
    33  C   -0.053511
    34  N   -0.324782
    35  C    0.084871
    36  C    0.023025
    37  C   -0.072406
    38  C    0.113397
    39  C   -0.031570
    40  C    0.334307
    41  O   -0.517491
    42  C    0.053256
    43  C    0.486059
    44  O   -0.526996
    45  O   -0.288252
    46  C    0.064956
    47  C    0.103668
    48  C   -0.105813
    49  C   -0.000030
    50  C   -0.046772
    51  C   -0.019799
    52  C   -0.033409
    53  C   -0.017648
    54  C   -0.010512
    55  C   -0.066598
    56  C   -0.036845
    57  C   -0.034983
    58  C   -0.036663
    59  C   -0.012845
    60  C   -0.052712
    61  C   -0.025309
    62  C   -0.034050
    63  C   -0.038420
    64  C   -0.007646
    65  C   -0.055704
    66  C   -0.058500
    67  H    0.037318
    68  H    0.030616
    69  H    0.032260
    70  H    0.027348
    71  H    0.017887
    72  H    0.024178
    73  H    0.025381
    74  H    0.035165
    75  H    0.024144
    76  H    0.025674
    77  H    0.042120
    78  H    0.026325
    79  H    0.047448
    80  H    0.019747
    81  H    0.047172
    82  H    0.042703
    83  H    0.036330
    84  H    0.022165
    85  H    0.034361
    86  H    0.030952
    87  H    0.020011
    88  H    0.029387
    89  H    0.006589
    90  H    0.020686
    91  H    0.018140
    92  H    0.019030
    93  H    0.014343
    94  H    0.022081
    95  H    0.022305
    96  H    0.041314
    97  H    0.028825
    98  H    0.048119
    99  H    0.052775
   100  H    0.037502
   101  H    0.049346
   102  H    0.048998
   103  H    0.045465
   104  H    0.017617
   105  H    0.022598
   106  H    0.044040
   107  H    0.022336
   108  H    0.020631
   109  H    0.025925
   110  H    0.012088
   111  H    0.016929
   112  H    0.011282
   113  H    0.027434
   114  H    0.021393
   115  H    0.020276
   116  H    0.015221
   117  H    0.014436
   118  H    0.016513
   119  H    0.024772
   120  H    0.025840
   121  H    0.023329
   122  H    0.010781
   123  H    0.009721
   124  H    0.006741
   125  H    0.014279
   126  H    0.013152
   127  H    0.017006
   128  H    0.019285
   129  H    0.022218
   130  H    0.021121
   131  H    0.007594
   132  H    0.013212
   133  H    0.025703
   134  H    0.020790
   135  H    0.026635
   136  H    0.019737
   137  H    0.012450
   138  H    0.020094
   139  H    0.007611
   140  H    0.016723
 Sum of Mulliken charges =  -0.00000

 Dipole moment (field-independent basis, Debye):
    X=              3.2429    Y=              5.6356    Z=              1.7215  Tot=              6.7261
 N-N= 4.344323011142D+03 E-N= 0.000000000000D+00  KE=-9.362368799427D+03
 Leave Link  601 at Wed Apr 27 03:11:13 2022, MaxMem=  6710886400 cpu:               0.8 elap:               0.0
 (Enter /sw/apps/gaussian-16.0/g16/l9999.exe)
 1\1\GINC-BP1-COMPUTE156\SP\RZINDO CIS\STO-3G\C55H74Mg1N4O6\OF15641\27-
 Apr-2022\0\\#p ZINDO=(nstates=5)\\step_1051_chromophore_17 ZINDO\\0,1\
 Mg,0,29.07,59.013,41.293\C,0,26.15,57.42,40.308\C,0,30.918,56.419,39.8
 27\C,0,31.825,61.039,41.276\C,0,27.042,61.9,41.922\N,0,28.491,57.173,4
 0.142\C,0,27.25,56.663,39.962\C,0,27.351,55.328,39.192\C,0,28.852,54.9
 11,39.483\C,0,29.485,56.273,39.74\C,0,29.099,53.775,40.534\C,0,26.989,
 55.374,37.664\C,0,26.568,54.085,36.956\C,0,26.162,54.25,35.49\O,0,24.9

 Normal termination of Gaussian 16 at Wed Apr 27 03:11:13 2022.
