 Gaussian 16, Revision A.03,
 Gaussian 16:  ES64L-G16RevA.03 25-Dec-2016

 ------------------------------
 #p blyp/Def2SVP td=(nstates=5)
 ------------------------------

 --------------------------------------------------
 step_701_chromophore_17 TDDFT with blyp functional
 --------------------------------------------------
 Symbolic Z-matrix:
 Charge =  0 Multiplicity = 1

                         Standard orientation:
 ---------------------------------------------------------------------
 Center     Atomic      Atomic             Coordinates (Angstroms)
 Number     Number       Type             X           Y           Z
 ---------------------------------------------------------------------
      1         12           0        3.886717    1.627663   -0.625085
      2          6           0        3.445470   -2.026763   -1.076340
      3          6           0        1.191440    1.798345   -2.983935
      4          6           0        3.272825    4.564717    0.438420
      5          6           0        5.770120    0.705760    2.197229
      6          7           0        2.496411    0.093625   -1.849524
      7          6           0        2.514151   -1.243280   -1.772507
      8          6           0        1.448065   -1.905370   -2.712023
      9          6           0        1.196285   -0.713456   -3.717083
     10          6           0        1.596205    0.462442   -2.739775
     11          6           0        2.054246   -0.639392   -4.999762
     12          6           0        0.173358   -2.436178   -1.978468
     13          6           0       -0.426313   -3.792087   -2.398736
     14          6           0       -0.852277   -4.780278   -1.244633
     15          8           0       -0.010344   -5.414240   -0.583885
     16          8           0       -2.224491   -4.831804   -1.158257
     17          7           0        2.512121    3.112442   -1.331510
     18          6           0        1.535897    3.009883   -2.303774
     19          6           0        0.970664    4.312652   -2.423212
     20          6           0        1.577966    5.208111   -1.413685
     21          6           0        2.483204    4.286355   -0.759008
     22          6           0       -0.066136    4.716025   -3.388269
     23          6           0        1.304970    6.608987   -1.102730
     24          8           0        0.455639    7.182015   -1.773036
     25          6           0        1.956934    7.424641   -0.135742
     26          7           0        4.422742    2.507933    1.024588
     27          6           0        4.183741    3.791122    1.171464
     28          6           0        4.880270    4.340599    2.433729
     29          6           0        5.548383    3.127611    3.093755
     30          6           0        5.285040    2.048347    2.022736
     31          6           0        5.789092    5.600327    2.194941
     32          6           0        4.925247    2.683726    4.453874
     33          6           0        5.937901    2.387399    5.617807
     34          7           0        4.735369   -0.285655    0.298679
     35          6           0        5.526398   -0.461411    1.387685
     36          6           0        5.817881   -1.850367    1.540602
     37          6           0        5.076182   -2.526555    0.594823
     38          6           0        4.389951   -1.512715   -0.184698
     39          6           0        6.703345   -2.497688    2.598268
     40          6           0        4.566971   -3.845431    0.154069
     41          8           0        4.790455   -4.997388    0.461915
     42          6           0        3.658244   -3.517477   -0.974399
     43          6           0        4.207914   -3.962337   -2.298637
     44          8           0        5.010012   -3.356961   -2.993502
     45          8           0        3.734430   -5.241636   -2.486507
     46          6           0        3.835031   -5.844233   -3.792145
     47          6           0       -2.724612   -5.691957   -0.105030
     48          6           0       -3.532267   -4.979767    0.895026
     49          6           0       -4.761259   -5.109292    1.421033
     50          6           0       -5.902237   -5.974704    0.954415
     51          6           0       -5.349762   -4.027069    2.318476
     52          6           0       -4.654043   -3.894530    3.671497
     53          6           0       -3.928320   -2.562274    3.706942
     54          6           0       -4.855485   -1.368514    4.182995
     55          6           0       -4.809007   -1.190055    5.751762
     56          6           0       -4.458835   -0.021005    3.443327
     57          6           0       -5.604484    0.771805    2.748345
     58          6           0       -5.722166    0.355700    1.233184
     59          6           0       -7.188982    0.412606    0.665246
     60          6           0       -7.564263   -0.892453   -0.160268
     61          6           0       -7.394580    1.651861   -0.237848
     62          6           0       -8.807671    2.345878   -0.017471
     63          6           0       -9.529467    2.615084   -1.331774
     64          6           0      -10.118045    4.025835   -1.500698
     65          6           0      -11.250831    4.084308   -2.606666
     66          6           0       -9.061563    5.111330   -1.609313
     67          1           0        0.418205    2.051298   -3.712372
     68          1           0        3.290323    5.608495    0.758074
     69          1           0        6.358638    0.416039    3.069619
     70          1           0        1.868318   -2.715693   -3.307226
     71          1           0        0.139692   -0.621946   -3.969437
     72          1           0        2.509689   -1.606537   -5.211599
     73          1           0        2.796007    0.122985   -4.763334
     74          1           0        1.367104   -0.188090   -5.715441
     75          1           0       -0.658656   -1.735735   -2.043861
     76          1           0        0.415377   -2.473474   -0.916573
     77          1           0        0.265959   -4.374629   -3.006384
     78          1           0       -1.277757   -3.605627   -3.053180
     79          1           0        0.258053    4.490206   -4.403654
     80          1           0       -0.408616    5.750317   -3.400338
     81          1           0       -0.913928    4.043046   -3.258628
     82          1           0        1.600973    7.160362    0.860021
     83          1           0        1.587187    8.431055   -0.335453
     84          1           0        3.044268    7.433812   -0.200419
     85          1           0        4.051139    4.554438    3.109062
     86          1           0        6.599658    3.368104    3.250194
     87          1           0        5.674094    6.048059    1.208367
     88          1           0        6.845569    5.398874    2.372605
     89          1           0        5.582674    6.447873    2.848717
     90          1           0        4.317373    1.786672    4.336688
     91          1           0        4.195239    3.371701    4.881348
     92          1           0        5.703850    3.033519    6.464295
     93          1           0        6.957472    2.608705    5.300914
     94          1           0        5.901914    1.347561    5.944669
     95          1           0        7.742097   -2.171168    2.565943
     96          1           0        6.681899   -3.576870    2.450765
     97          1           0        6.417688   -2.222431    3.614016
     98          1           0        2.751871   -4.069071   -0.725699
     99          1           0        2.898046   -6.356378   -4.011337
    100          1           0        4.612392   -6.606620   -3.734308
    101          1           0        3.983709   -5.085734   -4.560581
    102          1           0       -1.986046   -6.270357    0.451117
    103          1           0       -3.244260   -6.395946   -0.754704
    104          1           0       -3.212898   -3.961887    1.120079
    105          1           0       -6.712900   -5.481767    0.418144
    106          1           0       -6.200974   -6.695927    1.715196
    107          1           0       -5.435256   -6.598627    0.191532
    108          1           0       -6.379331   -4.312345    2.532934
    109          1           0       -5.491214   -3.091417    1.776324
    110          1           0       -3.959858   -4.692902    3.933245
    111          1           0       -5.480922   -3.921551    4.379868
    112          1           0       -3.591253   -2.340913    2.694118
    113          1           0       -3.124508   -2.552193    4.443141
    114          1           0       -5.893733   -1.645834    3.998271
    115          1           0       -4.059026   -0.471199    6.084348
    116          1           0       -4.555472   -2.125342    6.250344
    117          1           0       -5.813993   -0.879937    6.039105
    118          1           0       -3.745143   -0.162440    2.631698
    119          1           0       -3.934476    0.672132    4.101311
    120          1           0       -5.349891    1.831781    2.779867
    121          1           0       -6.535082    0.658596    3.303775
    122          1           0       -5.191571   -0.563237    0.982373
    123          1           0       -5.047416    1.084272    0.784421
    124          1           0       -7.880529    0.436814    1.507867
    125          1           0       -7.429360   -0.744130   -1.231984
    126          1           0       -8.606159   -1.044158    0.124310
    127          1           0       -7.007018   -1.767039    0.174409
    128          1           0       -7.317623    1.385721   -1.292465
    129          1           0       -6.638343    2.360933    0.099114
    130          1           0       -8.663453    3.328477    0.431218
    131          1           0       -9.472318    1.781701    0.635829
    132          1           0      -10.417991    1.987446   -1.265569
    133          1           0       -9.085302    2.299550   -2.276845
    134          1           0      -10.613298    4.202452   -0.546350
    135          1           0      -11.082453    4.782784   -3.426396
    136          1           0      -12.218908    4.292149   -2.150565
    137          1           0      -11.254867    3.169218   -3.198539
    138          1           0       -8.949314    5.683047   -0.688893
    139          1           0       -9.270814    5.787618   -2.438063
    140          1           0       -8.141970    4.552176   -1.785614
 ---------------------------------------------------------------------

 SCF Done:  E(RB-LYP) =  -3007.33597418     A.U. after   20 cycles

 Excitation energies and oscillator strengths:

 Excited State   1:      Singlet-A      1.6062 eV  771.92 nm  f=0.0003  <S**2>=0.000
     244 -> 247        0.69816
     245 -> 247       -0.10744
 This state for optimization and/or second-order correction.
 Total Energy, E(TD-HF/TD-DFT) =  -3007.27694838
 Copying the excited state density for this state as the 1-particle RhoCI density.

 Excited State   2:      Singlet-A      1.8468 eV  671.36 nm  f=0.3135  <S**2>=0.000
     245 -> 248       -0.19467
     246 -> 247        0.68546
     246 <- 247       -0.14775

 Excited State   3:      Singlet-A      1.9399 eV  639.11 nm  f=0.0611  <S**2>=0.000
     243 -> 247        0.36524
     245 -> 247        0.56034
     246 -> 248        0.17146

 Excited State   4:      Singlet-A      2.0454 eV  606.17 nm  f=0.0277  <S**2>=0.000
     243 -> 247        0.60118
     245 -> 247       -0.32727
     246 -> 248       -0.14293

 Excited State   5:      Singlet-A      2.3116 eV  536.35 nm  f=0.0070  <S**2>=0.000
     242 -> 247        0.69283

 The electronic state is 1-A.
 Alpha  occ. eigenvalues --  -46.29073 -18.83593 -18.81525 -18.77687 -18.77156
 Alpha  occ. eigenvalues --  -18.75715 -18.73799 -14.03613 -14.03580 -14.00762
 Alpha  occ. eigenvalues --  -14.00510 -10.05041 -10.04006  -9.99462  -9.98272
 Alpha  occ. eigenvalues --   -9.98137  -9.97527  -9.97516  -9.96644  -9.96556
 Alpha  occ. eigenvalues --   -9.96522  -9.95590  -9.95215  -9.95209  -9.94269
 Alpha  occ. eigenvalues --   -9.94228  -9.94108  -9.94074  -9.93972  -9.93831
 Alpha  occ. eigenvalues --   -9.93575  -9.93476  -9.93395  -9.93381  -9.93295
 Alpha  occ. eigenvalues --   -9.93287  -9.92989  -9.92984  -9.92894  -9.92851
 Alpha  occ. eigenvalues --   -9.92533  -9.92481  -9.92375  -9.92200  -9.92102
 Alpha  occ. eigenvalues --   -9.92044  -9.92018  -9.91913  -9.91744  -9.91479
 Alpha  occ. eigenvalues --   -9.91389  -9.91292  -9.91283  -9.91169  -9.91148
 Alpha  occ. eigenvalues --   -9.91147  -9.91057  -9.91047  -9.91035  -9.91034
 Alpha  occ. eigenvalues --   -9.90956  -9.90934  -9.90831  -9.90738  -9.90413
 Alpha  occ. eigenvalues --   -9.90254  -2.93602  -1.73972  -1.73538  -1.73301
 Alpha  occ. eigenvalues --   -0.98380  -0.97416  -0.91861  -0.90975  -0.90274
 Alpha  occ. eigenvalues --   -0.90264  -0.87596  -0.87215  -0.86083  -0.85499
 Alpha  occ. eigenvalues --   -0.75990  -0.74049  -0.72684  -0.72480  -0.72384
 Alpha  occ. eigenvalues --   -0.71554  -0.71429  -0.70519  -0.70402  -0.69573
 Alpha  occ. eigenvalues --   -0.69321  -0.68956  -0.68190  -0.67527  -0.67242
 Alpha  occ. eigenvalues --   -0.66527  -0.66311  -0.65291  -0.64936  -0.64785
 Alpha  occ. eigenvalues --   -0.63978  -0.62385  -0.62230  -0.61706  -0.60615
 Alpha  occ. eigenvalues --   -0.60170  -0.60029  -0.59900  -0.59327  -0.58837
 Alpha  occ. eigenvalues --   -0.58356  -0.57702  -0.56692  -0.55622  -0.54909
 Alpha  occ. eigenvalues --   -0.54068  -0.53919  -0.52724  -0.52438  -0.52093
 Alpha  occ. eigenvalues --   -0.51474  -0.51000  -0.50700  -0.50270  -0.50227
 Alpha  occ. eigenvalues --   -0.49664  -0.48898  -0.48642  -0.48342  -0.46912
 Alpha  occ. eigenvalues --   -0.46759  -0.46138  -0.45868  -0.45748  -0.44893
 Alpha  occ. eigenvalues --   -0.44215  -0.43649  -0.42936  -0.42783  -0.42517
 Alpha  occ. eigenvalues --   -0.42381  -0.42029  -0.41767  -0.41091  -0.41049
 Alpha  occ. eigenvalues --   -0.41018  -0.40546  -0.40350  -0.40165  -0.39975
 Alpha  occ. eigenvalues --   -0.39905  -0.39656  -0.39318  -0.39256  -0.39225
 Alpha  occ. eigenvalues --   -0.38925  -0.38571  -0.38492  -0.38310  -0.38231
 Alpha  occ. eigenvalues --   -0.38095  -0.37988  -0.37797  -0.37375  -0.37227
 Alpha  occ. eigenvalues --   -0.37058  -0.36904  -0.36558  -0.36180  -0.36111
 Alpha  occ. eigenvalues --   -0.36056  -0.35754  -0.35555  -0.35443  -0.35190
 Alpha  occ. eigenvalues --   -0.35093  -0.34796  -0.34588  -0.34471  -0.34400
 Alpha  occ. eigenvalues --   -0.34294  -0.34149  -0.34045  -0.33890  -0.33813
 Alpha  occ. eigenvalues --   -0.33757  -0.33587  -0.33566  -0.33304  -0.33039
 Alpha  occ. eigenvalues --   -0.33017  -0.32988  -0.32706  -0.32557  -0.32364
 Alpha  occ. eigenvalues --   -0.32197  -0.32011  -0.31546  -0.31455  -0.31364
 Alpha  occ. eigenvalues --   -0.31210  -0.31100  -0.30807  -0.30663  -0.30592
 Alpha  occ. eigenvalues --   -0.30329  -0.30296  -0.30150  -0.29739  -0.29593
 Alpha  occ. eigenvalues --   -0.29480  -0.29385  -0.29217  -0.28921  -0.28844
 Alpha  occ. eigenvalues --   -0.28778  -0.28311  -0.28239  -0.28119  -0.28059
 Alpha  occ. eigenvalues --   -0.27800  -0.27213  -0.26633  -0.26255  -0.26215
 Alpha  occ. eigenvalues --   -0.26079  -0.25974  -0.25679  -0.25379  -0.25315
 Alpha  occ. eigenvalues --   -0.24944  -0.24525  -0.24261  -0.23760  -0.23665
 Alpha  occ. eigenvalues --   -0.23245  -0.22489  -0.22350  -0.21972  -0.20477
 Alpha  occ. eigenvalues --   -0.20285  -0.19509  -0.18912  -0.17479  -0.17173
 Alpha  occ. eigenvalues --   -0.16026
 Alpha virt. eigenvalues --   -0.11646  -0.06659  -0.06204  -0.04693  -0.04367
 Alpha virt. eigenvalues --   -0.03955  -0.02638  -0.02358  -0.01448   0.00463
 Alpha virt. eigenvalues --    0.01043   0.02300   0.02327   0.02605   0.02857

 Mulliken charges:
               1
     1  Mg   0.730333
     2  C    0.004032
     3  C   -0.036657
     4  C   -0.042989
     5  C   -0.044193
     6  N   -0.100166
     7  C   -0.081615
     8  C   -0.013418
     9  C   -0.052612
    10  C   -0.006935
    11  C    0.180841
    12  C    0.137236
    13  C    0.127928
    14  C    0.082235
    15  O   -0.197109
    16  O   -0.257268
    17  N   -0.246122
    18  C    0.060468
    19  C   -0.123816
    20  C    0.086592
    21  C    0.076310
    22  C    0.172127
    23  C   -0.142282
    24  O   -0.177804
    25  C    0.185800
    26  N   -0.312130
    27  C    0.020178
    28  C    0.057050
    29  C    0.026513
    30  C    0.066026
    31  C    0.119729
    32  C    0.073824
    33  C    0.047065
    34  N   -0.207454
    35  C    0.044370
    36  C   -0.165447
    37  C    0.041458
    38  C    0.051283
    39  C    0.158490
    40  C   -0.018207
    41  O   -0.106891
    42  C    0.099823
    43  C    0.111039
    44  O   -0.170271
    45  O   -0.259854
    46  C    0.212190
    47  C    0.327262
    48  C   -0.050838
    49  C   -0.201019
    50  C    0.160594
    51  C    0.092318
    52  C    0.111951
    53  C    0.094130
    54  C   -0.068759
    55  C    0.094956
    56  C    0.101969
    57  C    0.048397
    58  C    0.078683
    59  C   -0.077472
    60  C    0.093964
    61  C    0.123405
    62  C    0.086418
    63  C    0.070639
    64  C   -0.119059
    65  C    0.101404
    66  C    0.129151
    67  H   -0.069703
    68  H   -0.096223
    69  H   -0.068301
    70  H   -0.028716
    71  H   -0.042771
    72  H    0.009619
    73  H   -0.004393
    74  H   -0.003504
    75  H   -0.017573
    76  H   -0.011266
    77  H   -0.007042
    78  H   -0.019510
    79  H   -0.018811
    80  H    0.010729
    81  H   -0.014191
    82  H    0.006469
    83  H   -0.016703
    84  H    0.012178
    85  H   -0.023800
    86  H   -0.023749
    87  H   -0.003654
    88  H   -0.011091
    89  H   -0.014072
    90  H   -0.012634
    91  H   -0.022268
    92  H   -0.006333
    93  H   -0.010552
    94  H    0.001190
    95  H   -0.009728
    96  H    0.010972
    97  H   -0.008181
    98  H    0.002118
    99  H    0.008911
   100  H    0.021551
   101  H    0.013581
   102  H    0.016337
   103  H   -0.011899
   104  H   -0.034887
   105  H    0.018105
   106  H   -0.004371
   107  H   -0.050411
   108  H   -0.052786
   109  H    0.006325
   110  H   -0.023392
   111  H   -0.036790
   112  H   -0.021745
   113  H   -0.037874
   114  H   -0.038754
   115  H   -0.010410
   116  H   -0.018421
   117  H   -0.011683
   118  H   -0.039974
   119  H   -0.044810
   120  H   -0.033124
   121  H   -0.028004
   122  H   -0.033973
   123  H   -0.037489
   124  H   -0.029994
   125  H   -0.008952
   126  H   -0.016315
   127  H   -0.018021
   128  H   -0.020493
   129  H   -0.027900
   130  H   -0.034478
   131  H   -0.026949
   132  H   -0.047146
   133  H   -0.029761
   134  H   -0.044027
   135  H   -0.027514
   136  H   -0.003189
   137  H   -0.026852
   138  H   -0.010883
   139  H   -0.016834
   140  H   -0.021006
 Sum of Mulliken charges =  -0.00000

 Dipole moment (field-independent basis, Debye):
    X=             -1.4911    Y=              0.9732    Z=              0.9421  Tot=              2.0145
 Quadrupole moment (field-independent basis, Debye-Ang):
   XX=           -391.3018   YY=           -434.0554   ZZ=           -383.7810
   XY=             45.5439   XZ=              7.4947   YZ=             29.7473

 Normal termination of Gaussian 16 at Thu May  5 06:40:33 2022.
